MGN
    13
  53.8830000  34.3610000  57.2850000  53.3760000  34.9630000  58.0390000
  53.1940000  33.6250000  56.8700000  54.2070000  35.0100000  56.4690000
  55.0650000  33.7050000  57.8620000  55.9590000  34.1680000  57.6930000
  55.0750000  32.6660000  58.6790000  54.0160000  31.9580000  58.9320000
  53.2140000  32.0310000  58.3030000  54.0900000  31.1980000  59.5970000
  56.1800000  32.3020000  59.2590000  57.0390000  32.7440000  58.9510000
  56.1780000  31.5080000  59.8810000
