%VERSION  VERSION_STAMP = V0001.000  DATE = 10/06/26  15:17:26                  
%FLAG TITLE                                                                     
%FORMAT(20a4)                                                                   
MGN                                                                             
%FLAG POINTERS                                                                  
%FORMAT(10I8)                                                                   
      13       5       8       4      14       4      19       3       0       0
      49       1       4       4       3       4       7       3       5       0
       0       0       0       0       0       0       0       0      13       0
       0
%FLAG ATOM_NAME                                                                 
%FORMAT(20a4)                                                                   
CD  HD1 HD2 HD3 NE  HE  CZ  NH1 HH11HH12NH2 HH21HH22
%FLAG CHARGE                                                                    
%FORMAT(5E16.8)                                                                 
 -8.01781200E-02  1.48269388E+00  1.48269388E+00  1.48269388E+00 -7.27251993E+00
  5.98967001E+00  9.49928499E+00 -9.16946136E+00  5.99422559E+00  5.99422559E+00
 -9.16946136E+00  5.99422559E+00  5.99422559E+00
%FLAG ATOMIC_NUMBER                                                             
%FORMAT(10I8)                                                                   
       6       1       1       1       7       1       6       7       1       1
       7       1       1
%FLAG MASS                                                                      
%FORMAT(5E16.8)                                                                 
  1.20100000E+01  1.00800000E+00  1.00800000E+00  1.00800000E+00  1.40100000E+01
  1.00800000E+00  1.20100000E+01  1.40100000E+01  1.00800000E+00  1.00800000E+00
  1.40100000E+01  1.00800000E+00  1.00800000E+00
%FLAG ATOM_TYPE_INDEX                                                           
%FORMAT(10I8)                                                                   
       1       2       2       2       3       4       5       3       4       4
       3       4       4
%FLAG NUMBER_EXCLUDED_ATOMS                                                     
%FORMAT(10I8)                                                                   
       8       5       4       3       8       3       6       5       2       1
       2       1       1
%FLAG NONBONDED_PARM_INDEX                                                      
%FORMAT(10I8)                                                                   
       1       2       4       7      11       2       3       5       8      12
       4       5       6       9      13       7       8       9      10      14
      11      12      13      14      15
%FLAG RESIDUE_LABEL                                                             
%FORMAT(20a4)                                                                   
MGN 
%FLAG RESIDUE_POINTER                                                           
%FORMAT(10I8)                                                                   
       1
%FLAG BOND_FORCE_CONSTANT                                                       
%FORMAT(5E16.8)                                                                 
  3.30600000E+02  3.26600000E+02  4.04600000E+02  4.88000000E+02
%FLAG BOND_EQUIL_VALUE                                                          
%FORMAT(5E16.8)                                                                 
  1.09690000E+00  1.46400000E+00  1.01210000E+00  1.33900000E+00
%FLAG ANGLE_FORCE_CONSTANT                                                      
%FORMAT(5E16.8)                                                                 
  4.61000000E+01  6.29000000E+01  3.92000000E+01  4.96000000E+01  7.30000000E+01
  4.88000000E+01  4.01000000E+01
%FLAG ANGLE_EQUIL_VALUE                                                         
%FORMAT(5E16.8)                                                                 
  2.02440827E+00  2.18969102E+00  1.89298492E+00  1.91619781E+00  2.09683946E+00
  2.11446730E+00  2.00922390E+00
%FLAG DIHEDRAL_FORCE_CONSTANT                                                   
%FORMAT(5E16.8)                                                                 
  6.75000000E-01  0.00000000E+00  1.10000000E+00
%FLAG DIHEDRAL_PERIODICITY                                                      
%FORMAT(5E16.8)                                                                 
  2.00000000E+00  2.00000000E+00  2.00000000E+00
%FLAG DIHEDRAL_PHASE                                                            
%FORMAT(5E16.8)                                                                 
  3.14159400E+00  0.00000000E+00  3.14159400E+00
%FLAG SCEE_SCALE_FACTOR                                                         
%FORMAT(5E16.8)                                                                 
  1.20000000E+00  1.20000000E+00  0.00000000E+00
%FLAG SCNB_SCALE_FACTOR                                                         
%FORMAT(5E16.8)                                                                 
  2.00000000E+00  2.00000000E+00  0.00000000E+00
%FLAG SOLTY                                                                     
%FORMAT(5E16.8)                                                                 
  0.00000000E+00  0.00000000E+00  0.00000000E+00  0.00000000E+00  0.00000000E+00
%FLAG LENNARD_JONES_ACOEF                                                       
%FORMAT(5E16.8)                                                                 
  1.04308023E+06  6.78771368E+04  3.25969625E+03  9.95480466E+05  6.20665997E+04
  9.44293233E+05  2.56678134E+03  5.94667300E+01  2.12601181E+03  1.39982777E-01
  9.24822270E+05  6.01816484E+04  8.82619071E+05  2.27577561E+03  8.19971662E+05
%FLAG LENNARD_JONES_BCOEF                                                       
%FORMAT(5E16.8)                                                                 
  6.75612247E+02  1.06076943E+02  1.43076527E+01  7.36907417E+02  1.13252061E+02
  8.01323529E+02  2.06278363E+01  1.93248820E+00  2.09604198E+01  9.37598976E-02
  5.99015525E+02  9.40505980E+01  6.53361429E+02  1.82891803E+01  5.31102864E+02
%FLAG BONDS_INC_HYDROGEN                                                        
%FORMAT(10I8)                                                                   
       0       3       1       0       6       1       0       9       1      12
      15       3      21      24       3      21      27       3      30      33
       3      30      36       3
%FLAG BONDS_WITHOUT_HYDROGEN                                                    
%FORMAT(10I8)                                                                   
       0      12       2      12      18       4      18      21       4      18
      30       4
%FLAG ANGLES_INC_HYDROGEN                                                       
%FORMAT(10I8)                                                                   
       0      12      15       1       3       0       6       3       3       0
       9       3       3       0      12       4       6       0       9       3
       6       0      12       4       9       0      12       4      15      12
      18       6      18      21      24       6      18      21      27       6
      18      30      33       6      18      30      36       6      24      21
      27       7      33      30      36       7
%FLAG ANGLES_WITHOUT_HYDROGEN                                                   
%FORMAT(10I8)                                                                   
       0      12      18       2      12      18      21       5      12      18
      30       5      21      18      30       5
%FLAG DIHEDRALS_INC_HYDROGEN                                                    
%FORMAT(10I8)                                                                   
       3       0      12      15       2       3       0      12      18       2
       6       0      12      15       2       6       0      12      18       2
       9       0      12      15       2       9       0      12      18       2
      12      18      21      24       1      12      18      21      27       1
      12      18      30      33       1      12      18      30      36       1
      15      12      18      21       1      15      12      18      30       1
      21      18      30      33       1      21      18      30      36       1
      24      21      18      30       1      27      21      18      30       1
       0      18     -12     -15       3      18      24     -21     -27       3
      18      33     -30     -36       3
%FLAG DIHEDRALS_WITHOUT_HYDROGEN                                                
%FORMAT(10I8)                                                                   
       0      12      18      21       1       0      12      18      30       1
      12      21     -18     -30       3
%FLAG EXCLUDED_ATOMS_LIST                                                       
%FORMAT(10I8)                                                                   
       2       3       4       5       6       7       8      11       3       4
       5       6       7       4       5       6       7       5       6       7
       6       7       8       9      10      11      12      13       7       8
      11       8       9      10      11      12      13       9      10      11
      12      13      10      11      11      12      13      13       0
%FLAG HBOND_ACOEF                                                               
%FORMAT(5E16.8)                                                                 

%FLAG HBOND_BCOEF                                                               
%FORMAT(5E16.8)                                                                 

%FLAG HBCUT                                                                     
%FORMAT(5E16.8)                                                                 

%FLAG AMBER_ATOM_TYPE                                                           
%FORMAT(20a4)                                                                   
c3  h1  h1  h1  nh  hn  cz  nh  hn  hn  nh  hn  hn  
%FLAG TREE_CHAIN_CLASSIFICATION                                                 
%FORMAT(20a4)                                                                   
BLA BLA BLA BLA BLA BLA BLA BLA BLA BLA BLA BLA BLA 
%FLAG JOIN_ARRAY                                                                
%FORMAT(10I8)                                                                   
       0       0       0       0       0       0       0       0       0       0
       0       0       0
%FLAG IROTAT                                                                    
%FORMAT(10I8)                                                                   
       0       0       0       0       0       0       0       0       0       0
       0       0       0
%FLAG RADIUS_SET                                                                
%FORMAT(1a80)                                                                   
modified Bondi radii (mbondi)                                                   
%FLAG RADII                                                                     
%FORMAT(5E16.8)                                                                 
  1.70000000E+00  1.30000000E+00  1.30000000E+00  1.30000000E+00  1.55000000E+00
  1.30000000E+00  1.70000000E+00  1.55000000E+00  1.30000000E+00  1.30000000E+00
  1.55000000E+00  1.30000000E+00  1.30000000E+00
%FLAG SCREEN                                                                    
%FORMAT(5E16.8)                                                                 
  7.20000000E-01  8.50000000E-01  8.50000000E-01  8.50000000E-01  7.90000000E-01
  8.50000000E-01  7.20000000E-01  7.90000000E-01  8.50000000E-01  8.50000000E-01
  7.90000000E-01  8.50000000E-01  8.50000000E-01
%FLAG IPOL                                                                      
%FORMAT(1I8)                                                                    
       0
