QMMM reactant CHA#2 frame 43087
 55680
  28.2807121  47.1059799  42.6471024  28.5929794  48.0380898  42.8789673
  27.2853432  47.0630722  42.8129463  28.7570705  46.4403534  43.2388153
  28.7081509  46.7952232  41.2257881  28.2721062  47.5808029  40.6086807
  30.2247086  46.8229523  41.0558243  30.5272846  47.8648071  41.1611137
  30.5913353  46.2081757  41.8778534  30.8806362  46.3198891  39.7936783
  31.9651070  46.2858124  39.8978958  30.5515804  45.2807884  39.7840652
  30.4242382  47.2400742  38.3027420  30.0754051  45.9615707  37.0816650
  29.9414768  46.3885460  36.0877533  30.9617596  45.3286362  37.0384216
  29.1579247  45.4167633  37.3041687  28.1547108  45.4770050  40.8275948
  28.4158592  44.5135231  41.5279808  27.4539623  45.3961830  39.7159348
  27.3876057  46.2398300  39.1646080  26.8135815  44.2078819  39.1831779
  26.1840515  43.8569031  40.0008621  25.8044949  44.6683998  38.0926018
  25.0107422  45.2807045  38.5205460  26.3533459  45.2808342  37.3772011
  25.1111431  43.5512543  37.3114510  25.7862682  42.8485909  36.8230133
  24.6339436  44.0395508  36.4617767  23.8952789  42.6252174  38.0969543
  22.5258617  43.7825279  37.9662552  21.6381683  43.3397598  38.4179878
  22.3151283  44.0974083  36.9442253  22.8595371  44.6529350  38.5311890
  27.6114082  42.9720116  38.6953125  28.7695007  43.1905975  38.1944427
  27.2241306  41.7542114  38.9397812  26.3464813  41.6077652  39.4176750
  27.9641132  40.4991608  38.6112480  28.6955204  40.7371826  37.8389244
  28.5582714  39.7976608  39.8991241  27.7934685  39.3597565  40.5405426
  29.3242111  38.5364647  39.5704193  28.5923328  37.7869186  39.2693558
  29.9451122  38.7226982  38.6941223  29.9007683  38.2022781  40.4329758
  29.3678894  40.7383537  40.7445717  28.8764782  41.6837082  40.9746246
  29.4695454  40.3511772  41.7584076  30.7671852  41.0961647  40.2493591
  31.4973869  40.3334732  40.5199471  30.7154007  41.1007805  39.1605949
  30.9515228  42.1142845  40.5922127  27.0109634  39.5702591  37.9164009
  25.9074326  39.3448143  38.4532089  27.5324249  38.9484787  36.8429985
  28.5001221  39.1223984  36.6118851  26.7034264  38.0267754  35.9803810
  25.8836136  37.5594749  36.5259514  25.9785500  38.8666649  34.9478264
  26.5605354  39.7333031  34.6342392  25.8690071  38.2999878  34.0231781
  24.5248852  39.2685280  35.4257812  23.9723282  38.3621597  35.6733322
  24.6892662  39.7440720  36.3927040  23.6946373  40.1267471  34.4326134
  24.1868629  41.0664406  34.1820259  23.7002316  39.5669289  33.4973717
  22.3074093  40.2935257  34.8912163  22.0094414  39.5883446  35.5500298
  21.6853943  41.3924942  34.9142532  22.0211353  42.4299583  34.2021065
  21.4953976  43.2771034  34.3634911  22.7858047  42.4553719  33.5427628
  20.5658817  41.5395432  35.5553360  20.2810593  40.7072601  36.0516052
  19.8070316  42.2055397  35.5290222  27.5727367  36.8452606  35.4182739
  28.4317665  36.4079056  36.1794662  27.3820076  36.3034515  34.2172241
  26.6166687  36.7225494  33.7085876  28.1436749  35.2348747  33.6251297
  29.1928616  35.4722557  33.8010826  28.0195808  34.3128624  34.1931038
  27.8258495  34.9292946  32.1623726  26.9819336  35.5353241  31.5562820
  28.5042400  33.9657249  31.5491009  29.1280766  33.4544334  32.1569710
  28.4645252  33.5460548  30.1332512  27.4996967  33.8498650  29.7271671
  29.6028538  34.2649002  29.2773647  30.5473385  33.7213974  29.2517624
  29.1561317  34.4151382  27.7968216  28.2794094  35.0582047  27.7198715
  29.9131603  34.8104248  27.1195049  28.9015408  33.4338989  27.3962498
  29.9582882  35.6426964  29.8411121  29.0701656  36.2594337  29.9788628
  30.3941765  35.5590515  30.8366547  30.9845219  36.4544449  29.0502262
  30.4998302  36.8517876  28.1584358  31.3285637  37.2381744  29.7251358
  31.8255978  35.8162270  28.7793446  28.6113529  31.9898243  30.0816574
  29.1802063  31.3449154  30.9501133  28.0878525  31.3993187  28.9916096
  27.5539761  31.9767380  28.3578396  28.1703548  30.0248604  28.5695934
  28.9943352  29.6423855  29.1719818  26.8028679  29.3032875  28.7618313
  26.0036888  30.0153732  28.5560474  26.7386780  28.4911766  28.0376358
  26.3675232  28.6108246  30.0625134  26.3481541  29.2908535  30.9141483
  25.3476086  28.2420158  29.9536228  27.3633041  27.5025349  30.4295063
  28.2756977  27.9792938  30.7877522  27.0094185  26.9019814  31.2674828
  27.6285667  26.5460510  29.3886166  28.5817528  26.4768276  29.0618858
  26.8803158  25.5877647  28.8717899  25.7395916  25.2493649  29.4704227
  25.3961334  25.7334938  30.2875881  25.0787258  24.6994305  28.9403973
  27.2353668  24.9705105  27.7681255  26.6256084  24.2319145  27.4475441
  27.9616146  25.4142895  27.2243195  28.5475082  29.8723831  27.0636482
  28.0876541  30.6597176  26.1612968  29.1746712  28.7249012  26.7784386
  29.4147682  28.1128483  27.5451488  29.6236343  28.2359886  25.4623165
  28.8796787  28.3649311  24.6761818  30.5074139  28.8203411  25.2062645
  29.7863979  26.7624016  25.4399147  29.7136421  26.0813866  26.4707012
  29.9430771  26.3036785  24.2173061  29.8851585  26.9545078  23.4471321
  30.3466415  24.9151001  23.8592873  31.2217598  24.7713909  24.4930172
  29.2056103  23.9887600  24.0853863  29.6018448  22.9738503  24.0527744
  28.6887932  23.9827995  25.0450573  28.5812740  24.1190014  23.2014484
  30.7653713  24.8830414  22.3551636  30.5422134  25.7807903  21.5238705
  31.5193920  23.8168678  22.0163059  31.7298183  23.1590958  22.7532978
  31.9724560  23.5579052  20.6787777  31.2160797  23.9049664  19.9748268
  33.2346535  24.3475571  20.3140812  33.0219078  25.3911419  20.5459633
  34.6000252  23.9135494  20.8681316  34.5496292  22.8247166  20.8663025
  35.3791237  24.3319378  20.2309036  34.7608299  24.2769928  21.8830910
  33.3768921  24.4118004  18.9240265  33.7043877  25.2629070  18.6240826
  32.1994247  22.0313740  20.3376827  32.2359810  21.2494640  21.2861557
  32.5228920  21.5967159  19.0875072  32.5636597  22.2662830  18.3324413
  32.8151627  20.2452450  18.7994804  33.0680733  19.7330914  19.7278309
  31.7702599  19.4114723  18.1621113  32.1877594  18.4255981  17.9575386
  30.4344978  19.1963558  18.9838715  30.6388206  18.9500160  20.0258255
  29.6321621  19.9290180  18.8968983  29.8954525  18.3605518  18.5378227
  31.4156876  20.0324478  16.9698982  31.8999176  19.4907379  16.3424683
  34.1036491  20.1145172  17.9666748  34.4177094  20.9201756  17.1028728
  34.8619347  19.0565739  18.2740803  34.4369316  18.4252357  18.9380703
  36.0687485  18.5765724  17.4930782  36.4237633  19.2473545  16.7106991
  37.3243256  18.4532299  18.3392334  38.0865517  18.1059227  17.6417446
  37.7885475  19.7829056  18.9719105  36.9917412  20.1649151  19.6100788
  38.5733910  19.6155491  19.7095509  38.1093254  20.5010796  18.2173061
  37.2733841  17.5004921  19.5200863  36.6466179  17.8504047  20.3403511
  36.8089294  16.5865040  19.1499405  38.2661247  17.2761707  19.9102726
  35.7665787  17.3064919  16.7170143  35.0117912  16.4429569  17.1748123
  36.3956985  17.0158749  15.5666866  36.9678802  17.7243881  15.1299763
  36.2210007  15.7299576  14.8266392  35.1731377  15.4932089  14.6421700
  36.8102379  15.9031610  13.4515734  37.8739548  16.1366482  13.4059000
  36.6330681  14.9694328  12.9178391  36.0971909  17.0147171  12.6252604
  36.2649498  18.0024757  13.0545521  36.6164703  17.0692673  11.6684532
  34.5728607  16.6503239  12.4413233  33.8001709  17.5337296  12.0597019
  34.2286568  15.4307251  12.5061331  36.7998238  14.4554806  15.6084633
  36.5129547  13.3542614  15.2447519  37.6094551  14.6636524  16.5639973
  37.8266144  15.6283827  16.7695141  38.3844376  13.5861797  17.1968002
  37.7325974  12.7670555  17.5005322  39.4375343  12.9606266  16.2476482
  39.9602280  12.1876316  16.8110046  38.9431038  12.4962101  15.3944445
  40.5259972  13.9197311  15.8156261  39.9797745  14.6784210  15.2551498
  41.0407639  14.1655293  16.7444401  41.4033737  13.2464008  14.7930946
  41.7837143  12.3351021  15.2545881  40.7612724  12.9935951  13.9493580
  42.5103493  14.0488358  14.4113636  43.4431190  13.8354626  14.7346430
  42.4635086  15.1454716  13.6373711  41.4179382  15.6265240  13.1286011
  41.4068527  16.5651932  12.7559395  40.6638718  15.0008259  12.8836870
  43.5403252  15.8277702  13.3867626  43.3967018  16.6159420  12.7717352
  44.4042625  15.3682613  13.6368923  39.0697441  14.0147114  18.4594421
  39.3788986  15.1731234  18.6374207  39.3687172  13.0558825  19.3213043
  39.1466064  12.1286001  18.9882660  40.0953560  13.1637650  20.5733566
  39.9076233  14.1158247  21.0697861  39.8400421  11.9870300  21.4670906
  38.7603226  11.8507242  21.5281506  40.2498856  11.0930233  20.9971104
  40.3662148  12.0546846  22.8785820  40.3400536  13.1372252  23.5365086
  40.7316818  11.0108633  23.4030209  41.6452103  13.3545351  20.3505363
  42.4561691  12.4328861  20.5811806  42.1244125  14.6052608  20.0886841
  41.4042625  15.3134193  20.0891056  43.5002022  15.0573511  19.9645329
  44.0788155  14.4240637  20.6370373  44.0557251  14.7196627  18.5472813
  43.6747208  13.7373314  18.2680683  43.5703735  15.6909714  17.5178432
  42.4936829  15.8236036  17.6239033  44.0578499  16.6656322  17.4954910
  43.7261963  15.2260532  16.5443535  45.4542122  14.6175709  18.6342163
  45.8533401  15.4209061  18.2922401  43.8256264  16.5242577  20.4225750
  43.0201416  17.4655228  20.1226788  44.9291840  16.6417580  21.1233177
  45.4693527  15.7912712  21.1939812  45.2825203  17.8962784  21.8211117
  44.5078087  18.0326099  22.5756569  46.6622047  17.7126007  22.4478130
  46.6614418  16.9135780  23.1892014  47.4438782  17.4790382  21.7249470
  47.0993385  19.0403004  23.1300888  47.5227089  19.6755219  22.3520451
  46.2158775  19.4138393  23.6478405  48.2055626  18.8806210  24.1657829
  48.4406548  17.7062130  24.6032887  48.8137817  19.8872108  24.5189342
  45.2432137  19.1645222  20.9786072  44.7204247  20.2127743  21.4644814
  45.7997284  19.1764984  19.7810898  46.2001648  18.3128338  19.4436989
  45.9785461  20.3485298  18.9155979  46.2180634  21.2477722  19.4831314
  47.0553322  20.0404873  17.8269463  47.3142509  20.9275818  17.2489109
  48.0157051  19.7094078  18.2221298  46.6540108  18.8819504  16.8399582
  45.5734482  18.7530556  16.7777500  46.9409714  19.1027203  15.8118429
  47.2179375  17.5018692  17.2800140  48.0819321  16.8949108  16.5715771
  46.9615211  16.9782238  18.4000988  44.6220436  20.7609863  18.2463188
  44.3711624  21.9713249  18.0054207  43.6283035  19.8602180  18.2203808
  43.8048782  18.9770470  18.6774673  42.2599983  20.1306705  17.8506413
  42.2273941  20.8223572  17.0088539  41.4656258  18.9617977  17.3064919
  41.4861031  18.0023041  17.8232632  40.3981819  19.1724548  17.2409878
  41.8519135  18.6197624  15.8735762  42.8772430  18.2598515  15.9588203
  41.1588058  17.8136749  15.6329041  41.8665047  19.8474541  14.9161510
  42.9690666  20.2518024  14.4037771  40.7474213  20.4517288  14.6940098
  41.4580383  20.6956425  19.0154915  40.8244362  21.7191086  18.9296989
  41.4768257  19.9482536  20.1148052  41.9805870  19.0755863  20.1838894
  40.8135414  20.5022259  21.3618965  39.7335472  20.4835854  21.2157364
  41.0155640  19.4232788  22.4618893  42.0639877  19.2182980  22.6784458
  40.2442055  19.8931675  23.7205544  40.5923004  20.8583317  24.0885105
  39.1831284  19.7841454  23.4962158  40.4364738  19.3018456  24.6158047
  40.4358673  18.0854282  22.0395584  39.3560982  18.2095623  21.9571781
  40.8191528  17.8155079  21.0555191  40.7854652  16.9839745  22.9875278
  40.2320518  16.1264534  22.6047840  41.8631706  16.8574066  23.0906219
  40.4211388  17.2274513  23.9855671  41.3690071  21.9633274  21.7025967
  40.5229530  22.8619022  21.9152737  42.6900787  22.1964054  21.8354530
  43.3874207  21.4993973  21.6163883  43.1809006  23.5657558  22.1944008
  42.7566299  23.8006840  23.1705723  44.7229614  23.5587368  22.2467556
  45.1295891  23.1331711  21.3293400  45.1038208  24.5713844  22.3793888
  45.2580681  22.7063866  23.3977642  44.8700218  21.6889725  23.4467163
  46.8292542  22.5025902  23.3631325  47.0899048  21.9244785  24.2496700
  47.1560173  22.0267963  22.4384995  47.1896400  23.5173950  23.5316296
  45.0046501  23.3519573  24.7638760  43.9700546  23.1694851  25.0544186
  45.6979332  22.9080391  25.4782963  45.3464622  24.3855934  24.8172359
  42.6909943  24.5872917  21.2542820  42.1725845  25.5904408  21.7317162
  42.8163986  24.3771133  19.9561501  43.3453140  23.5517864  19.7128735
  42.3088760  25.1731453  18.8653393  42.7579956  26.1618519  18.9594307
  42.5363045  24.6698971  17.3975143  43.5928917  24.4653435  17.2246437
  42.0059052  23.7179279  17.3744068  42.2181244  25.6344738  16.3014946
  42.4150314  25.0881424  15.3790789  41.1417503  25.7985859  16.3524132
  43.0338516  26.8932457  16.4458542  42.5064659  27.9205055  16.8130417
  44.2832298  26.9068680  16.0934544  44.7228661  26.1675415  15.5640984
  44.6652832  27.8400650  16.0361996  40.7915306  25.4210701  19.0160313
  40.3945274  26.5510483  19.1370258  39.9067192  24.4304523  19.0888081
  40.2561264  23.5216389  18.8203506  38.4396782  24.6174812  19.2421455
  37.9960403  25.2161503  18.4466076  37.7737465  23.2284184  19.1342144
  38.5380249  22.4628334  19.0005856  37.1175156  22.9123802  19.9451275
  36.8878403  23.1365490  17.8580284  36.4367409  22.1475010  17.7780762
  36.0107727  23.7716465  17.9825592  37.4727440  23.3883324  16.4165993
  36.7121162  23.4639225  15.6395340  37.9518394  24.3645077  16.4917946
  38.4869156  22.2675476  16.0281296  39.3240089  22.0975246  16.7052326
  38.0475769  21.2740650  15.9382772  39.0456390  22.6505375  14.6481724
  39.6117897  23.4846916  14.7094612  39.6644020  21.9252186  14.3147774
  38.3693466  22.8154583  13.9163733  38.0942192  25.3582783  20.5755596
  37.2251282  26.2358437  20.5008926  38.7848549  25.0721207  21.6919079
  39.3987274  24.2701302  21.7003994  38.5486298  25.7809505  22.9504337
  37.4878311  25.9806290  23.1018829  39.1457825  25.0175953  24.1965866
  40.1940536  25.1209641  23.9163342  38.6711426  25.4441204  25.6173592
  38.8640099  26.4872665  25.8678570  37.5964165  25.2731628  25.6792889
  39.2944679  24.9417400  26.3570824  38.8065376  23.6887531  24.0022659
  39.3860588  23.3668098  23.3079243  39.1339836  27.2696571  22.8830471
  38.5361671  28.2123356  23.3302956  40.2629662  27.5271969  22.1420498
  40.8474503  26.7984943  21.7580299  40.7144394  28.9611855  21.7233734
  40.9077835  29.5463390  22.6224346  42.0575562  28.7972183  20.9297752
  42.2621040  27.8897438  20.3616657  42.0287018  29.6466274  20.2472954
  43.2658806  29.0234795  21.9087524  43.3238831  30.0797520  22.1714859
  43.1511345  28.3702583  22.7737598  44.5537796  28.7366600  20.9717941
  45.4644737  28.9461632  21.5329075  44.5582962  27.6838131  20.6896763
  44.6619377  29.5607681  19.7489357  43.7549858  29.5377502  19.1447697
  44.7890511  30.6106834  20.0127907  45.6549263  29.0230808  18.8653126
  45.8910561  29.7993259  18.2638264  46.5227852  28.8619003  19.3561745
  45.3001060  28.1889877  18.4197845  39.7173195  29.6811180  20.8729839
  39.3398666  30.7846642  21.2998009  39.2124786  29.0998917  19.7647038
  39.7756958  28.3294582  19.4340687  38.2201653  29.6811504  18.8822060
  38.5652199  30.6799545  18.6149406  37.8422050  28.7785606  17.7112675
  37.8954582  27.7608356  18.0979214  36.8237457  28.9447155  17.3602200
  38.8246536  28.9943657  16.5354328  39.1062050  30.0459213  16.4801216
  39.7434464  28.4430389  16.7353439  38.3031120  28.5032215  15.1540222
  37.0912399  28.2693024  14.9927034  39.1080627  28.2888298  14.1487141
  38.7710342  28.1510296  13.2066259  40.0647240  28.5968475  14.2488565
  36.9653473  30.0813770  19.7986336  36.3947868  31.1330910  19.6048431
  36.5938873  29.2174988  20.7397785  36.8886604  28.2543564  20.6651745
  35.4989586  29.4297543  21.6858940  34.6273842  29.8192978  21.1598549
  35.1487694  28.1053238  22.3546257  34.9354477  27.2917900  21.6612587
  36.1371002  27.7643070  22.6628799  34.1320992  27.9845848  23.5267086
  34.2627907  28.7171345  24.3232040  32.7011833  28.1891766  22.8789406
  32.5430984  29.2346172  22.6140594  32.5487480  27.5944157  21.9783115
  31.8765869  27.9980717  23.5656872  34.3265266  26.6736317  24.2155323
  35.3104401  26.7296867  24.6812344  33.6346092  26.4276638  25.0210457
  34.2341156  25.8209953  23.5428009  35.7520142  30.5174141  22.7578278
  34.9018326  31.3980770  22.8993359  36.9228516  30.5265999  23.4248619
  37.4891930  29.6964207  23.3240833  37.2337341  31.5410233  24.4798584
  36.3382568  31.6891022  25.0834293  38.4216080  31.0621548  25.4722023
  39.1650543  30.6220512  24.8075962  38.8609047  31.8569183  26.0750847
  38.0253220  30.0141048  26.4411812  37.4757118  29.2899590  25.8398151
  39.2332077  29.3399963  27.0780945  38.9516258  28.5520039  27.7765770
  39.7871933  28.8678417  26.2667580  39.9246292  30.1035061  27.4346008
  37.2242393  30.5766373  27.6201172  36.2173004  30.8987026  27.3547001
  37.0817833  29.8834133  28.4491291  37.7842026  31.4521637  27.9487553
  37.3798447  32.9274788  23.8288975  36.8271027  33.8547974  24.3766155
  38.2249260  33.1182289  22.8079529  38.6002731  32.2474594  22.4601402
  38.6217003  34.3268929  22.1253147  39.1301003  34.9201431  22.8853664
  39.7472076  34.0434532  21.0734539  40.4863091  33.3463135  21.4682064
  39.2876434  33.7311134  20.1357193  40.3857574  35.4596863  20.7124519
  39.7133713  35.9862328  20.0351410  40.7149429  35.9183922  21.6448269
  41.5916252  35.1519051  19.7678871  42.8065033  35.4422989  20.0240879
  41.2993202  34.6380806  18.6828518  37.4419403  35.1206741  21.5344105
  37.4780693  36.3824081  21.4176445  36.4071236  34.4073410  21.0443192
  36.3854408  33.4030495  21.1493206  35.1669426  34.9397125  20.5014420
  35.4058495  35.9184303  20.0853481  34.6904945  33.9246254  19.4199982
  35.4955330  33.7667618  18.7022991  34.4418716  32.9590378  19.8603649
  33.4713211  34.2752113  18.5484028  33.3513184  33.3601685  17.9684067
  32.5327530  34.3947067  19.0896149  33.7419243  35.5132980  17.6087036
  33.4886360  36.3840904  18.2134056  34.7835846  35.5524673  17.2900944
  32.8358765  35.5213585  16.4309502  32.8356781  34.5281754  15.9818583
  31.8085670  35.6254654  16.7800865  33.1448364  36.4614944  15.3375902
  32.5629082  36.2593994  14.5372038  32.9399223  37.3931198  15.6695366
  34.0759621  36.3336983  14.9677658  34.1816444  35.2634735  21.6186867
  33.3480377  36.1814804  21.4208965  34.1563835  34.4821815  22.7316227
  34.7244797  33.6478424  22.7669601  33.3458519  34.7897263  23.9548931
  32.3127518  34.9454994  23.6441860  33.3816872  33.6635246  25.0286942
  34.3798637  33.2662697  25.2129173  32.8929138  34.2425346  26.3248959
  32.6100464  33.4510155  27.0188560  33.6108093  34.9280510  26.7752171
  32.0999527  34.9770241  26.1840401  32.4592209  32.5111351  24.6502037
  31.3936462  32.6925964  24.7906399  32.5292168  32.3826828  23.5700645
  32.8530884  31.1763096  25.2215958  32.1929359  30.3868523  24.8623562
  33.8760414  30.8886185  24.9788952  32.8875122  31.2590179  26.3079071
  33.7728653  36.1238403  24.4973927  32.9556923  36.9303589  24.8573666
  35.1280174  36.3549385  24.6462383  35.7017441  35.6024475  24.2931194
  35.7835236  37.6262550  24.9484253  35.4218788  38.0410576  25.8893089
  37.3287086  37.3500290  25.0025425  37.6623230  36.9446106  24.0473213
  38.0845032  38.7213135  25.1623306  39.1670570  38.5941963  25.1577072
  37.9198151  39.3158417  24.2637119  37.7885437  39.2589645  26.0631275
  37.6840553  36.3640671  26.1388149  37.6288986  36.8740044  27.1005955
  37.0087051  35.5189781  26.2723904  39.1763115  35.8894005  26.0830021
  39.4865150  35.4324951  27.0227375  39.3926430  35.2944870  25.1956558
  39.7931976  36.7875290  26.1132488  35.5188141  38.6825714  23.8299751
  35.2544975  39.8186455  24.2157936  35.4407501  38.3712845  22.5439873
  35.6955338  37.4327126  22.2714691  35.1813660  39.4142380  21.4709835
  35.8129349  40.2913475  21.6120434  35.4894371  38.8362236  20.0184841
  36.3327408  38.1517792  20.1105213  34.6467972  38.3217735  19.5565357
  35.8710976  39.9888878  19.0393200  36.0389824  39.5569382  18.0527420
  35.1016960  40.7600670  19.0768623  37.2149200  40.7013626  19.3420467
  37.1608734  41.5108490  20.3173599  38.2473259  40.4648972  18.6985798
  33.7843361  39.9913979  21.5764275  33.4725571  41.1562691  21.2282658
  32.7971268  39.1730843  22.0197945  33.0222359  38.1892014  22.0572605
  31.4253254  39.6447067  21.9192200  31.3909340  40.3600616  21.0975208
  30.5003929  38.4129257  21.6456299  30.7637119  37.6638565  22.3923988
  29.4381008  38.6247978  21.7670631  30.5626717  37.7570992  20.2830753
  31.5183010  37.3166924  19.9986267  29.9404583  36.8830223  20.4752865
  29.9633636  38.6918869  19.2170410  30.0797653  38.3796577  17.9798069
  29.2965794  39.6896439  19.5054283  30.9743958  40.3353462  23.2216778
  30.0954342  41.2137833  23.2357445  31.5531712  39.8522072  24.3418961
  32.2089653  39.0840759  24.3448544  31.3102646  40.4468117  25.6772842
  30.3946209  41.0353394  25.6195793  30.9466705  39.3948288  26.7727032
  31.8517838  38.8517151  27.0445518  30.5962849  39.9882050  27.6172390
  29.7773094  38.5818901  26.2299786  28.6451740  38.9847527  26.2822247
  30.0157814  37.3575859  25.7842407  29.1354504  36.8893318  25.6234188
  30.9890175  37.1213570  25.6534386  32.4448051  41.4374466  26.1140442
  32.4268074  42.0571632  27.1856556  33.4275131  41.6283722  25.2308788
  33.5282402  40.9387398  24.4998798  34.5254288  42.5165024  25.3135777
  35.1330566  42.4783363  24.4094582  34.0915413  43.9743195  25.2583179
  33.4155998  44.1256638  26.0999241  34.9577713  44.6350136  25.2934246
  33.2243385  44.1940079  23.9800034  33.4808426  43.8841286  22.6841316
  34.2853851  43.5241051  22.1909847  32.4465714  44.2304535  21.9724674
  32.4056473  44.4299278  20.9118385  31.4197884  44.6774826  22.8043594
  30.5233974  45.0279732  22.4981861  31.9026012  44.6099052  24.0926285
  31.3710480  44.8340874  25.0056419  35.3745003  42.2927856  26.6136265
  35.7832375  43.2806015  27.2815571  35.6220512  40.9717636  26.9799213
  35.1811714  40.2669067  26.4064217  35.8935127  40.5745773  28.3513107
  35.2051926  41.1785431  28.9425335  35.6474800  39.0549812  28.5743504
  36.4535522  38.4662209  28.1364937  35.4729347  38.6619301  30.1388817
  36.4170685  38.8120270  30.6625156  34.7750397  39.3999443  30.5343266
  35.2023125  37.6084900  30.2104950  34.3953667  38.6902504  27.9834499
  33.6655121  38.9028893  28.5697079  37.3771782  40.8668518  28.7650471
  38.3155365  40.7746201  27.9433975  37.6254349  41.1781998  30.0552197
  36.8170166  41.3196907  30.6438961  39.0225906  41.2855034  30.6534328
  39.6895638  40.8232841  29.9256897  39.4071045  42.8096123  30.6261196
  40.4377937  42.9389915  30.9563351  39.4031372  43.3001518  29.6527462
  38.4680977  43.7084198  31.4441986  37.4324989  43.8162460  31.1216908
  38.4641190  43.3505669  32.4737778  39.0364647  45.1652374  31.4265652
  40.0483322  45.1401138  31.8310394  39.0919991  45.3196487  30.3489838
  38.1803780  46.1851501  32.1876678  38.6910744  47.1435738  32.0943108
  37.1690826  46.3386917  31.8110924  38.0361176  45.7524681  33.6058693
  37.6559677  46.5312920  34.1245384  37.4229355  44.9507256  33.6422501
  38.9098244  45.5012627  34.0459061  39.3038712  40.4672585  31.9638824
  38.3004189  40.2015228  32.6457558  40.6281662  39.9939461  32.2289581
  41.8251305  40.3565102  31.5359039  42.0186081  41.4068146  31.7539120
  41.7421532  40.1262131  30.4737453  42.9913826  39.5151978  32.1809311
  43.5380363  40.1427383  32.8848267  43.7345581  39.1132278  31.4923019
  42.3203735  38.3680344  32.9319305  42.8575859  38.1489449  33.8547020
  42.2786942  37.4531174  32.3409233  40.8019638  38.8266182  33.0431252
  40.2456055  38.0441475  32.5270805  40.4342613  39.0432968  34.5589333
  39.8735199  38.1055870  35.1152153  40.6717873  40.2119408  35.1171570
  41.1690788  40.9350739  34.6172752  40.3282585  40.5230560  36.4740105
  40.5249405  39.6739159  37.1285133  41.1821785  41.7142677  37.0348473
  41.1555138  41.7002678  38.1244316  42.2284203  41.5825653  36.7589226
  40.7502327  43.0842552  36.5906906  39.7124672  43.2981911  36.8463707
  41.3837700  43.7830658  37.1369553  40.9109955  43.2623825  35.0911942
  41.8309555  42.7597847  34.4166451  40.3664169  44.2562065  34.6085243
  38.7753372  40.7071991  36.6876602  38.3242264  40.6998100  37.8457985
  37.9435120  40.7497482  35.6741943  38.4046555  40.5228996  34.8047142
  36.5038948  40.7609100  35.8391037  36.3570633  41.3303413  36.7568665
  35.9111290  41.5073280  34.6190529  36.1654930  41.1198883  33.6325035
  34.8352356  41.3326416  34.6123314  36.1327400  43.0706367  34.6022758
  36.3914948  43.5803490  35.7452812  35.9674683  43.8623009  33.6524658
  35.9690399  39.3015137  35.9857216  34.8003197  39.1847115  36.3742447
  36.7889328  38.2659187  35.7634888  37.6530685  38.4881210  35.2902069
  36.3476219  36.9078598  35.9174271  35.2594185  36.9270554  35.8577728
  36.8214531  36.0380135  34.7073250  37.8906784  35.9755745  34.9097061
  36.1783409  34.6487083  34.7555313  35.1201248  34.7655182  34.9892883
  36.3190231  34.1160507  33.8150101  36.5817032  34.0827713  35.5952377
  36.6456718  36.7330933  33.3988914  36.7539597  36.0243950  32.5778465
  35.6974411  37.2531052  33.2626915  37.4442215  37.4513206  33.2129784
  36.7598228  36.2590218  37.2889481  37.9222946  36.0033569  37.6798439
  35.6698151  36.0000420  38.0207748  34.8625565  36.0791702  37.4189682
  35.5161171  35.5297012  39.3956833  35.9750328  36.2184906  40.1049538
  33.9519386  35.6554260  39.8714409  33.2778854  35.0783081  39.2384377
  33.7369194  35.0562820  41.3457756  34.2887268  34.1163216  41.3367119
  34.0878563  35.7832260  42.0782356  32.6695366  34.9738083  41.5507088
  33.3864746  36.9928551  39.7602501  32.3725166  36.9063416  40.1507568
  34.0022240  37.7453918  40.2528343  33.3420219  37.2564011  38.7035255
  36.0401955  34.0845757  39.4678459  37.0630379  33.8232689  40.0636368
  35.3470421  33.1898727  38.7223969  34.5612640  33.5573807  38.2051010
  35.7145805  31.7698193  38.5693169  36.7987213  31.7450294  38.4592247
  35.3804131  30.9130287  39.9029770  35.5927925  29.8555965  39.7453880
  35.9827461  31.3101883  40.7200165  33.8292580  30.8588963  40.2961159
  33.7299080  30.7236538  41.3731194  33.3348808  31.8068657  40.0838623
  33.0704956  29.7298336  39.6561623  33.2451553  28.5977383  40.0499001
  32.4176521  29.9603291  38.5171509  32.1350441  29.1207428  38.0320358
  32.3350639  30.8834152  38.1156616  35.0980263  31.1563034  37.2498589
  34.1404839  31.7412663  36.6179657  35.5926514  30.0387897  36.7406578
  36.2776604  29.5427685  37.2927704  35.2197723  29.4716549  35.4324379
  34.2138062  29.7769947  35.1444931  36.2618904  29.8939590  34.3794785
  36.1297226  30.9522724  34.1545105  37.2962189  29.7046795  34.6665955
  36.1481018  29.1771393  33.0681572  36.2164993  28.0925083  33.1518288
  35.1880417  29.4253025  32.6156082  37.5195923  29.5532150  31.9281101
  37.3038521  31.3459377  31.6751213  36.3815460  31.5229282  31.1218338
  37.3655167  31.7753983  32.6750526  38.1381683  31.7216625  31.0827999
  35.2735252  27.9712639  35.6008224  36.0599556  27.4238186  36.4308052
  34.3990936  27.2552719  34.9164276  33.7615204  27.7780361  34.3330612
  34.5541687  25.7811241  34.7751846  35.3469276  25.3032417  35.3507309
  33.2937088  25.1927757  35.4342308  32.4399872  25.6159058  34.9048767
  33.3136139  24.1190987  35.2473640  33.0721054  25.6751938  36.9456177
  33.1103668  26.7527599  37.1052628  31.7171803  25.2577229  37.4295158
  30.9656086  25.8098946  36.8652916  31.6084518  24.1754856  37.3585167
  31.5577602  25.5455189  38.4686775  33.9661484  25.0024643  38.0067291
  33.9895630  25.6204891  38.9042778  33.5919456  24.0339508  38.3384743
  34.9428101  24.9335995  37.5276794  34.6774254  25.4196415  33.3110733
  34.1405640  26.0954132  32.4308777  35.3206482  24.3101368  33.0248184
  35.7030678  23.8964100  33.8630791  35.5907478  23.8494301  31.6288929
  34.7918472  24.3363171  31.0696087  37.0252228  24.2593632  31.2546158
  37.5305557  24.3272476  32.2180138  37.5627136  23.4443893  30.7698307
  37.1556282  25.5339489  30.4014072  36.5228157  26.1979599  30.9902630
  38.6040764  26.0577183  30.1964607  38.9422493  26.1661758  31.2269840
  39.1586456  25.3265762  29.6082630  38.5363655  27.0317059  29.7118359
  36.4305191  25.3721085  29.0668926  35.3645897  25.2364292  29.2498837
  36.6240082  26.2225800  28.4131622  36.7697105  24.4782944  28.5433025
  35.3414001  22.2889748  31.6078701  35.3988380  21.6422920  32.6796303
  34.9200058  21.7192783  30.5374031  34.8216209  22.3206863  29.7319660
  34.6049309  20.2841358  30.3834934  35.3840637  19.6829357  30.8521214
  33.2981873  19.9925747  31.1034584  33.2773628  20.4930706  32.0715332
  32.5347557  20.3713036  30.4238720  33.0562820  18.6513653  31.2297401
  33.1790390  18.3911438  32.1456108  34.5222969  19.8873100  28.9162102
  34.4150734  20.7182159  28.0681953  34.4704781  18.5927639  28.7112122
  34.5951347  17.9673157  29.4943962  34.3438454  17.9035988  27.4314137
  33.5802956  18.4580116  26.8857765  35.7181892  17.8514385  26.6970406
  35.5266113  17.6377640  25.6454983  36.1037788  18.8686523  26.7655582
  36.3974113  17.1714897  27.2112541  33.7910767  16.5521526  27.5902710
  33.6941795  16.0110970  28.7050877  33.2409821  15.9805164  26.5010147
  33.0948715  16.5818920  25.7028313  32.2945213  14.8521194  26.5997906
  31.5654831  15.1703968  27.3449783  31.5404110  14.6255226  25.2438450
  31.1511879  13.6074343  25.2540836  30.3544388  15.5607090  25.2072163
  29.5019913  15.2330046  25.8022289  30.6597214  16.5565052  25.5286102
  30.0265770  15.5183048  24.1685581  32.3949699  14.8013983  24.1365719
  32.5521812  13.9348860  23.7544193  33.0550461  13.5558825  26.8982487
  34.2318764  13.3918791  26.5997391  32.4098244  12.5619879  27.5318546
  31.1602993  12.6266127  28.2617130  30.3125000  12.1637535  27.7566376
  30.8775349  13.6697702  28.4030209  31.4428368  12.0045462  29.6250267
  30.5687752  11.8043699  30.2447395  31.9966908  12.7071276  30.2477036
  32.3563957  10.8246422  29.1773090  31.7004223  10.0407438  28.7987518
  32.9841995  10.4760199  29.9973240  33.1677055  11.4521255  28.0706100
  34.0633392  11.8963032  28.5049438  33.7478714  10.4364557  27.0094624
  34.1350861   9.3650370  27.3759594  33.8871841  10.8393183  25.7566967
  33.7195168  11.8302917  25.6568661  34.7863617  10.3148794  24.7856712
  35.2143478   9.3855095  25.1614380  33.9208527  10.0290909  23.4655495
  34.5578995   9.7038956  22.6430435  33.1953812   9.2711735  23.7611141
  33.0724449  11.1382742  22.9557343  32.3121414  10.9166946  22.0063400
  32.8339386  12.1669817  23.5962944  36.0318069  11.1790400  24.3904953
  36.8366699  10.7010288  23.5977249  36.0550308  12.4475937  24.7213650
  35.2804413  12.7416420  25.2989845  37.2460175  13.2591381  24.7844334
  37.8784409  12.7300491  24.0715466  36.9887581  14.6973858  24.4319363
  36.5216980  15.3551226  25.1649685  38.0006065  15.0837831  24.3096027
  36.3256073  14.9963980  23.0658302  35.3042564  14.6171141  23.0328636
  36.0952644  16.4739647  22.9901886  35.2934303  16.6323948  23.7113380
  36.9722481  17.0892181  23.1913471  35.6965942  16.7018585  22.0016403
  37.0876274  14.5839825  21.8081226  37.4663887  13.5625048  21.8430328
  36.3652000  14.6609869  20.9955559  37.8729515  15.2958012  21.5537853
  38.0015526  13.1681871  26.1693134  37.4868011  13.4234028  27.2915134
  39.2900352  12.9339142  26.1008549  39.6488953  12.8952713  25.1575489
  40.2050896  12.7062254  27.2483597  39.9864693  13.3331089  28.1128368
  40.2502365  11.1552925  27.6529484  40.4153099  10.4608145  26.8292046
  41.0761986  11.1126194  28.3629265  38.9574699  10.6763868  28.2831306
  38.1464043  11.2599554  29.2898636  38.4704399  12.0356655  29.8496609
  36.9933701  10.5493460  29.4665775  36.2424736  10.6931858  30.2293816
  36.9553947   9.5840645  28.4878597  36.1775246   8.9659214  28.3064289
  38.1772957   9.6227837  27.7780781  38.3931847   8.9755869  26.9408646
  41.6324005  13.1707649  26.9477863  42.3262711  13.1108398  27.9765301
  41.9888191  13.6723967  25.7661152  41.2859917  13.6721706  25.0407619
  43.3825874  13.8774328  25.4224796  44.0237617  13.0476322  25.7198391
  43.6362152  14.1099520  23.9133339  44.6819420  14.2387686  23.6341286
  43.2989502  13.1935158  23.4290848  43.0138779  14.9589338  23.6304474
  44.0302086  15.1312170  26.1214428  45.2456589  15.2163992  26.2166042
  43.2701263  16.0978355  26.7226562  42.2679787  15.9815168  26.7702904
  43.9241486  17.2231770  27.4157219  44.7944107  16.9189548  27.9972706
  44.4094009  18.2568150  26.3834362  45.0160904  17.6886997  25.6782570
  43.3675575  18.8972473  25.4500828  42.6934509  19.4384270  26.1140118
  43.9733582  19.4501343  24.7321548  42.7608757  18.0886745  25.0423355
  45.3942146  19.2873154  26.9260235  45.6670341  19.9758778  26.1263046
  44.8785248  19.9708118  27.6005535  46.3077469  18.8362942  27.3135052
  42.9865952  17.8528175  28.3991528  41.7894554  17.9326878  28.1297512
  43.4269600  18.3225689  29.6096401  44.3569794  18.1086407  29.9403934
  42.5050087  19.1755180  30.3810139  41.5800056  18.6422443  30.6003036
  43.0924454  19.6446819  31.7323875  44.0499153  20.1176891  31.5141640
  42.5179138  20.4394779  32.2081108  43.4361038  18.5250721  32.7475204
  42.4907417  18.2099380  33.7099380  41.5206070  18.6822681  33.7562485
  42.6658173  17.2013397  34.6455116  41.8637772  16.9400902  35.3199577
  43.8916931  16.5139904  34.6757164  44.1221352  15.8389711  35.4866714
  44.8851738  16.7705421  33.6692505  45.8145103  16.2203274  33.6683388
  44.6449776  17.7639351  32.7285233  45.2976494  17.9067841  31.8799839
  42.0990906  20.5239391  29.5734558  42.9995270  21.2970638  29.1981487
  40.8216476  20.7736473  29.4438286  39.7077446  19.8603573  29.7068901
  39.3074799  20.0766506  30.6973972  39.9308968  18.8038712  29.5580997
  38.5401497  20.2712078  28.6812115  37.5350037  20.0296974  29.0268326
  38.7214737  19.7256432  27.7551575  38.8137589  21.6981525  28.5655899
  38.2718697  22.2472191  29.3356419  38.4314232  21.9782944  27.5840397
  40.3339310  21.8190308  28.6011448  40.6949539  21.5238228  27.6159420
  40.7797775  23.2586155  28.9932804  40.9190483  24.1017456  28.1310291
  41.0292320  23.5392551  30.3287926  40.8010368  22.8012123  30.9794235
  41.6329613  24.6625042  30.9584999  41.1088829  25.6131725  30.8601074
  41.6932678  24.2941532  32.4551849  42.0371399  23.2681999  32.5865898
  42.3684769  24.9602528  32.9923172  40.7705002  24.4647141  33.0097160
  43.0114555  24.9608631  30.4201336  43.5075531  26.1053944  30.6705875
  43.7720413  24.0255394  29.7623863  43.3559341  23.1228027  29.5834427
  45.0630608  24.3878994  29.0947628  45.6875458  24.9289989  29.8056316
  45.7097588  23.0282116  28.7709541  45.5276871  22.4048920  29.6464100
  45.0064125  22.5400734  28.0963249  47.1162834  23.0654392  28.2373314
  47.1509056  23.7545109  27.3934822  47.7435150  23.4037323  29.0620995
  47.5538406  21.7321949  27.6724834  47.3867035  20.9172707  28.3768024
  47.0190887  21.5797119  26.7349873  49.0637970  21.8013859  27.4812660
  49.2511177  22.5885296  26.7509117  49.5785599  22.2103539  28.3506718
  49.6248627  20.4626102  27.0651798  49.1537399  20.1701374  26.2210197
  50.5988426  20.5063286  26.8014374  49.3892059  19.7726650  27.7641373
  44.8294106  25.4365139  28.0154591  45.7343178  26.2050533  27.8460770
  43.6480522  25.5107117  27.4262123  43.0626984  24.6877995  27.4096336
  43.3683205  26.5761375  26.4571743  44.2391014  26.8256397  25.8508816
  42.3000259  26.0565472  25.4866676  41.3412666  25.9527245  25.9946918
  42.1249504  26.7972126  24.7063713  42.6478767  25.0918941  25.1171341
  42.9800072  27.9840469  27.0429382  42.6843872  28.8853855  26.2954063
  42.9699059  28.1428204  28.3640156  43.0727348  27.3071041  28.9217834
  42.9361992  29.4466534  28.9952812  42.4254990  30.1833687  28.3751678
  42.2424431  29.4492130  30.3480091  42.9814224  29.0416870  31.0378857
  41.7626495  30.8131523  30.8226891  42.6613045  31.3875580  31.0475941
  41.1158600  31.3055649  30.0965385  41.0965042  30.7061329  31.6787834
  41.0436554  28.4734364  30.2882710  40.3710747  28.8439732  29.5146866
  41.2576447  27.4786911  29.8973885  40.5541039  28.3742313  31.2570839
  44.3042145  29.9784355  29.1211243  44.4996834  31.1607494  28.9058018
  45.3446960  29.1111832  29.3100662  45.2060394  28.1151352  29.4036617
  46.8177299  29.4207363  29.2854652  47.0418282  30.4267445  29.6401844
  47.6296883  28.4473610  30.1529522  47.5390816  27.4136410  29.8193169
  48.6615334  28.7977715  30.1282120  47.1716614  28.4602623  31.6354427
  47.2987099  29.4655972  32.0370140  46.1670227  28.0417042  31.6955242
  48.0650482  27.6197052  32.5217400  49.0916939  27.9857941  32.5307732
  47.5829773  27.6742744  33.4978218  48.1966286  26.2004204  32.1379433
  48.9699135  26.0319748  31.5104389  47.3778343  25.1939754  32.3824844
  46.1904716  25.3018436  32.9526558  45.7070999  24.4514084  33.2040825
  45.8028831  26.2156754  33.1391602  47.7134895  23.9527035  32.0540085
  47.1522675  23.1858578  32.3961830  48.6515732  23.7941742  31.7149391
  47.4304352  29.6186829  27.8382854  48.5752106  30.1239223  27.7065983
  46.7228317  29.2494602  26.8081264  45.9544296  28.6397743  27.0488377
  46.9477692  29.7141418  25.4244366  47.9917450  29.5337582  25.1681595
  46.1370163  28.8432369  24.4292221  45.0796165  29.0549793  24.5878849
  46.4612961  29.1467857  23.4338303  46.4167061  27.2993851  24.5536537
  46.2701454  26.9875393  25.5877590  45.6939774  26.9028912  23.8405228
  47.7831993  26.8606224  24.0605354  48.0328674  26.7675743  22.8178711
  48.6952629  26.7965050  24.8586483  46.5539551  31.2017651  25.2853088
  46.9335327  31.8754826  24.2838078  45.8907890  31.8677120  26.3048229
  45.4549484  31.3580093  27.0600357  45.6233635  33.3387642  26.2922192
  45.9163780  33.7326736  25.3190403  44.1156464  33.7190323  26.4540920
  43.8037033  33.3166656  27.4178848  43.9847679  34.8002815  26.4972973
  43.0846596  33.1805573  25.4230499  43.1095123  32.0918846  25.4707718
  41.7014771  33.6502686  25.7791328  41.4875259  34.6691360  25.4562817
  40.9901924  33.0089836  25.2586327  41.5613823  33.5273590  26.8530827
  43.4777794  33.6530228  24.0078773  42.6634636  33.4982452  23.3000336
  43.6362648  34.7280083  23.9218960  44.3857460  33.1127357  23.7399387
  46.5792694  34.1454010  27.1985512  46.8923645  33.7617569  28.3359470
  47.0320435  35.3129845  26.7708912  46.7120552  35.6396751  25.8703423
  48.1700020  36.1257248  27.3857632  48.9406128  35.4338226  27.7256718
  48.9183235  37.1951904  26.4424629  48.2914696  38.0245094  26.1147709
  49.8184586  37.5726395  26.9276276  49.3039932  36.5211945  25.2378407
  48.4933853  36.4558449  24.7276974  47.5753860  36.7985344  28.6300907
  46.6397095  37.6224327  28.6076508  48.0637703  36.4002304  29.7816925
  48.8542099  35.7732544  29.7346802  47.7800789  37.0930672  31.0675068
  48.6188278  37.1105614  31.7634182  47.4981461  38.1376343  30.9352512
  46.6100769  36.4195366  31.8361549  46.3159714  36.8081741  32.9729271
  46.0050545  35.4041901  31.1705208  46.2901077  35.1985970  30.2236423
  44.7444458  34.7355118  31.6104813  44.1346397  35.4190559  32.2012520
  43.8535156  34.5091782  30.4272976  44.4171562  34.1817665  29.5536785
  43.3406448  33.5687561  30.6289806  42.9179306  35.5397415  29.9248810
  43.3624649  36.6426811  29.2893562  44.4182129  36.8452682  29.1856441
  42.3408775  37.3854370  28.9009304  42.4503708  38.3139191  28.5187912
  41.1745987  36.9294815  29.3977394  39.7857819  37.2815247  29.3760719
  39.5135269  38.1849060  28.8505421  38.7892838  36.6131935  30.1314545
  37.7568550  36.9234352  30.1965752  39.2032967  35.4862785  30.8880386
  38.5272598  34.9385834  31.5278835  40.5074501  34.9936485  30.8680840
  40.8477402  34.2047272  31.5224571  41.4638939  35.7176018  30.0978565
  45.0658379  33.4515190  32.4966354  44.1342316  32.8608971  33.0907936
  46.3175583  33.0959663  32.7157364  46.9903908  33.4364204  32.0438080
  46.6854820  32.0162010  33.6560173  46.1759567  31.1239758  33.2921066
  48.1986351  31.9260235  33.6388397  48.5256271  31.0300331  34.1664543
  48.5418243  31.8593025  32.6064301  48.8574371  33.1913643  34.2025261
  48.2480087  33.8483124  34.8231010  49.7007904  32.8248367  34.7877769
  49.3627815  34.1087456  33.1050491  48.8555107  34.1742821  31.9752560
  50.3446770  34.9032059  33.3454514  50.6583481  35.5248489  32.6138306
  50.6842995  34.9078560  34.2966232  46.0796814  32.0259094  35.0933113
  45.9331551  30.9989223  35.7276955  45.7108612  33.2042847  35.5807304
  45.9058685  33.9567108  34.9358101  45.3475304  33.5882721  36.9045334
  45.7461815  32.8550529  37.6056557  45.9324341  34.9668541  37.3411446
  45.3337631  35.7228203  36.8330040  45.6493225  35.0010071  38.3931808
  47.4125748  35.1802902  37.1076355  48.3245659  34.3372383  37.8152084
  47.9707146  33.7500000  38.6496811  49.7075996  34.3997459  37.6102257
  50.4314995  33.7419930  38.0681877  50.1326714  35.4206352  36.6537857
  51.4011459  35.5866776  36.3986855  51.9515495  35.2156372  37.0922127
  49.2207184  36.2547302  35.9476776  49.5223961  36.8145294  35.0747414
  47.8547592  36.1710930  36.1754112  47.1753922  36.7681236  35.5851402
  43.7534027  33.4616966  37.2132111  43.4241028  33.6078644  38.4041786
  42.8910103  33.4318733  36.1217842  43.3140869  33.3689651  35.2068253
  41.4354095  33.1394691  36.3387680  41.1682587  33.8639984  37.1080437
  40.6888733  33.4240723  35.0614204  41.2464180  32.9110184  34.2778130
  39.2242470  32.8800545  34.9387169  38.6749191  33.5344467  34.2618790
  39.2578697  31.8776112  34.5120125  38.7641487  33.0028458  35.9191933
  40.7593536  34.9425125  34.7606544  40.3002930  35.4617043  35.6019669
  41.7315788  35.3912926  34.5569992  40.2956543  35.0544739  33.7805786
  41.3328819  31.6736279  36.7766914  41.7566757  30.7733269  36.0270195
  40.7080536  31.3335056  37.9605255  40.2676849  32.2922401  38.9362640
  39.4235649  32.8820076  38.5788574  41.1135826  32.9305000  39.1915627
  39.7800102  31.5760937  40.1586380  38.6932869  31.6511078  40.1198006
  40.1695404  32.0666695  41.0506592  40.2388191  30.1779003  39.9554138
  39.6840286  29.3653221  40.4244843  41.1856689  30.2066765  40.4946213
  40.6550026  29.9819660  38.5115547  41.6739693  29.5979939  38.4628410
  39.7042732  29.0556431  37.7688942  38.6201210  29.5143509  37.3807755
  40.1155167  27.7758369  37.6214523  40.9960976  27.5049934  38.0353622
  39.2681847  26.7093792  36.9377785  38.2559242  27.1135082  36.9484024
  39.7826729  26.5474072  35.4648590  40.7852325  26.1199131  35.4797401
  38.8423042  25.6359978  34.6279335  39.1107368  24.6489201  35.0043869
  37.7741165  25.8269310  34.7310066  39.1257362  25.6187477  33.5755692
  39.8545303  27.8845654  34.6788635  40.5569801  28.5418015  35.1914062
  40.2879868  27.7669926  33.6856918  38.8944550  28.3997650  34.6484680
  39.2073212  25.4157848  37.7370987  39.9669456  25.1528015  38.6309471
  38.2812576  24.5240517  37.3713875  37.6177330  24.8823643  36.6994896
  38.2540169  23.0794830  37.7399635  39.2676506  22.6792698  37.7618294
  37.6055946  22.8550167  39.1111031  36.5359955  23.0611267  39.1508026
  37.7710190  21.4708462  39.6695328  37.4905968  21.5232468  40.7215385
  37.0647736  20.7825756  39.2052040  38.7888451  21.0957947  39.5624504
  38.2249069  23.6838894  40.0408630  38.7536964  24.3379440  39.5780487
  37.5210304  22.4250832  36.6561584  36.5475426  22.9198589  36.0971031
  37.9274597  21.1880245  36.2939606  38.6961670  20.7630386  36.7925339
  37.3671417  20.5223198  35.1186295  36.8659325  21.2628498  34.4953194
  38.4333115  19.7842903  34.3951797  38.9831619  19.0910683  35.0317421
  37.9702530  19.2264423  33.5812492  39.6366158  20.9911690  33.8197212
  40.0524712  21.5571289  34.9562302  36.2344513  19.5884647  35.5858765
  36.4896736  18.4427013  35.9349937  34.9800034  20.1101017  35.5851517
  34.8740311  21.1020927  35.4275856  33.7912979  19.3182716  36.0074577
  33.9627647  18.9313354  37.0119362  32.5256386  20.2908955  36.1884460
  31.7458267  19.6670952  36.6253242  32.9123421  21.0067272  36.9138069
  32.1153374  20.9972134  34.8420067  32.9449081  21.2927494  34.1996880
  31.5826645  20.2020760  34.3203545  30.9087887  22.3485832  34.8047714
  30.4792233  22.2628403  33.1027069  31.3929157  22.2200794  32.5098915
  29.7548599  21.4629669  32.9490776  29.9808559  23.1746902  32.7736816
  33.3662758  18.1866760  35.0300522  33.4224358  18.4110184  33.8939400
  32.9655571  17.0195656  35.5422897  32.8996162  16.9414978  36.5471077
  32.4963455  15.8913231  34.6846504  33.2378502  15.6890297  33.9117622
  32.2439384  14.6361599  35.5377083  33.1600418  14.4319277  36.0919151
  31.5520420  14.9049625  36.3359108  31.7599545  13.3881445  34.8515549
  31.7008877  12.5863037  35.5875282  30.7369900  13.4493074  34.4801979
  32.5485153  12.8227053  33.6923561  33.4699898  13.4927588  33.2700081
  32.2503738  11.7726517  33.0500526  31.3591366  11.3276815  33.2167740
  32.8125000  11.5092430  32.2533493  31.1954384  16.2593403  34.0028343
  30.2430344  16.8922558  34.5676689  31.0941811  15.6777506  32.7661285
  31.8921547  15.1463594  32.4483871  29.8788719  15.7947617  31.9199753
  29.3904858  16.7463551  32.1298523  30.2242107  15.8578720  30.4442062
  31.0200100  16.5882053  30.2978592  30.5551167  14.9040518  30.0333214
  28.9841003  16.2579823  29.5685139  29.3410378  16.0727749  28.5554028
  28.1170578  15.6190701  29.7362461  28.5312920  17.7254696  29.7177219
  29.3274746  18.6036854  30.1342068  27.3120289  18.0397568  29.3958855
  28.8571205  14.6768160  32.2792168  29.1558704  13.5504198  32.6256828
  27.6073437  15.0661755  32.3995285  27.3379154  15.9708338  32.0402184
  26.5069122  14.1355429  32.7643547  26.8909454  13.5666962  33.6111298
  25.2828770  14.9557552  33.1792488  25.5661716  15.6991129  33.9244080
  24.8642941  15.4549484  32.3053513  24.2123680  13.9683018  33.7819824
  23.9982986  13.1281176  33.1214027  24.4807987  13.4999685  34.7289314
  22.7265682  14.9121065  34.0513992  21.5448895  13.6295700  34.5041428
  22.0461445  13.1069717  35.3188400  20.5622978  14.0483255  34.7215233
  21.4377556  12.8938656  33.7070465  26.2265892  13.1476450  31.5890427
  26.1206684  13.5884504  30.4482670  26.1320038  11.8925686  31.8430424
  26.1878586  11.4921780  32.7686081  25.8321323  10.8682108  30.8374004
  26.3508530  11.1568346  29.9232197  26.3019905   9.4688559  31.3650150
  27.3554535   9.5869284  31.6187401  25.7427788   9.2286596  32.2692757
  26.1976318   8.2307205  30.5098343  26.5356312   7.1417389  31.0328159
  25.7983971   8.3694973  29.3321133  24.3029289  10.8629560  30.4909859
  23.5248051  10.5037212  31.3501377  23.8785477  11.2216587  29.2542152
  24.5534077  11.3656311  28.5166950  22.3874111  11.3686943  28.8960190
  21.7748375  10.7860470  29.5840511  21.9934387  12.7910519  28.9045773
  22.6600189  13.3780499  28.2727509  20.6363831  12.9943743  28.3194351
  19.9667759  12.3066149  28.8358822  20.1583023  13.9368496  28.5864201
  20.5188408  12.7520599  27.2632313  21.9463844  13.2430105  30.3401089
  21.1286297  12.7824707  30.8944321  22.8172569  12.9377737  30.9202042
  21.7020931  14.2994108  30.4516449  22.2445335  10.6470652  27.5435429
  23.1419601  10.7503729  26.6651630  21.1574554   9.9514713  27.2995396
  20.5345116   9.8738623  28.0907516  20.8438282   9.1383152  26.0786495
  21.6711884   8.4298363  26.0382175  19.6253033   8.2555037  26.3544502
  19.7142620   7.7864079  27.3343143  18.3298454   9.0453577  26.3435593
  18.0193443   9.1143055  25.3009949  17.5524387   8.4679260  26.8438740
  18.4097080  10.0052624  26.8537598  19.5591679   7.1163831  25.4852905
  18.6912956   6.7573009  25.6839333  20.6348629  10.0140390  24.8191662
  19.9701958  11.0586491  24.8601913  21.0321522   9.5210743  23.6587543
  21.4672756   8.6096754  23.6477928  21.1436691  10.3263378  22.4263554
  21.6172638   9.6708918  21.6954670  20.1210766  10.5460110  22.1195145
  21.9385109  11.5879183  22.4509964  21.9049339  12.3238115  21.5065022
  22.7027206  11.8674641  23.5583744  22.7227783  11.1517935  24.2707729
  23.4476357  13.1498499  23.7612228  22.6634579  13.8961105  23.6337013
  23.8012047  13.1103783  24.7915287  24.5522842  13.4666977  22.7460995
  25.2988129  12.5984774  22.3313961  24.7727470  14.7387657  22.5013332
  24.2823505  15.4346132  23.0448475  25.8455334  15.2139149  21.6671333
  25.6153736  15.0095482  20.6214943  25.7582569  16.7358818  21.6619873
  24.7554646  17.1407185  21.5255527  25.8837738  16.9129601  22.7301598
  26.8244400  17.4126282  20.8188057  27.8264503  16.9889240  20.8862629
  26.2673149  17.4251366  19.3745480  25.2492733  17.8127632  19.3366470
  26.8198414  18.1760101  18.8097553  26.3378315  16.4990044  18.8041000
  27.1517391  18.7936916  21.3867130  27.4442520  18.7626591  22.4362679
  27.8847542  19.4191017  20.8771515  26.2551117  19.4120216  21.4294853
  27.2513523  14.6109695  21.9814892  27.7253666  14.8051062  23.1175060
  28.0111141  14.0919638  21.0411530  27.5793705  14.0615768  20.1285839
  29.3564568  13.4361906  21.0668564  29.4403648  13.1634960  22.1188526
  29.4326954  12.0800390  20.2385521  28.9648800  12.2895203  19.2765903
  30.4398136  11.7569733  19.9750328  28.7336330  10.9582825  21.0192890
  29.3034344  10.8726969  21.9445457  27.7235661  11.2235661  21.3315220
  28.7313957   9.6204338  20.3114796  28.3247299   9.8188915  19.3198452
  29.6579552   9.0601587  20.1862526  27.8145313   8.6571007  21.0877800
  26.8445072   9.1409588  21.2019577  27.7442799   7.7164068  20.5416489
  28.3845024   8.3960295  22.3956661  29.3809471   8.2349901  22.3600960
  28.3779087   9.1800146  23.0323982  27.8875885   7.7070990  22.9420662
  30.4740887  14.4292870  20.6756363  30.2590504  15.4350605  19.9946194
  31.7400112  14.1662188  21.1957417  31.7837257  13.4401789  21.8964939
  33.0053215  14.9680033  20.9198914  33.7872047  14.5823698  21.5741520
  33.5631027  14.6746683  19.5179787  32.8663025  15.1947880  18.8606758
  34.5587769  15.0782137  19.3338966  33.5743027  13.2326736  19.1294689
  33.8400650  12.6369658  20.0027390  32.5410500  12.9971237  18.8744965
  34.5238571  12.9363184  18.0044937  34.1581078  13.4099274  17.0934391
  35.4988289  13.2215414  18.3996944  34.4588547  11.3978786  17.8480816
  35.3338356  10.9818668  18.3475285  33.5097351  11.0083923  18.2162857
  34.6285172  11.0180016  16.3817406  34.6693001  10.0223188  16.2172546
  33.8118134  11.2829905  15.8498793  35.3883781  11.4738102  15.8970270
  32.7928238  16.4745693  21.1335926  33.0267067  17.2376957  20.1636257
  32.4113884  16.8445415  22.3117466  32.4638977  16.1318073  23.0254364
  32.0497627  18.2669544  22.6269970  32.4051132  18.8527145  21.7792225
  30.5089931  18.3290291  22.7197609  30.1463585  18.0384998  21.7337646
  30.1329403  17.7074890  23.5323944  29.8908386  20.0270767  23.2593803
  30.5958538  20.6515598  22.3118229  32.7737694  18.8350143  23.8700085
  33.0392532  18.1082325  24.7810574  33.0639954  20.1337681  23.8362408
  32.7285614  20.6625366  23.0437813  33.8420830  20.8056812  24.8765602
  33.9811249  20.1282120  25.7190571  35.1983681  21.2907352  24.4544506
  35.0567818  22.1638432  23.8174744  36.0369873  21.9045029  25.5747395
  36.9436340  22.4623203  25.3403568  35.4897804  22.6565819  26.1431046
  36.3173027  21.1862183  26.3451977  36.0347328  20.3272076  23.5698376
  36.6120911  19.5752506  24.1077213  35.3618660  19.7959976  22.8966599
  37.1117401  21.0015564  22.7369690  37.8527031  21.3162251  23.4718552
  37.5175133  20.3028755  22.0053349  36.7401390  21.8324451  22.1372643
  33.0406380  22.0419140  25.3873863  32.6765976  22.8859215  24.5689735
  32.6427231  22.2124252  26.6594334  32.9767418  21.4755440  27.2640305
  31.6560936  23.1890488  27.2055073  31.2990551  23.7398338  26.3352985
  30.3672504  22.5322380  27.8073750  30.6328735  22.0548058  28.7505627
  29.6373730  23.2762718  28.1264229  29.6436710  21.4640007  26.9426441
  29.6007919  21.8500061  25.9241829  30.0577736  20.4594059  27.0287704
  28.1706371  21.2657585  27.3516140  27.7471485  22.2694359  27.3143387
  27.6606903  20.5813427  26.6736546  28.1264706  20.7637596  28.6742077
  28.6405525  19.9014854  28.7851200  27.7939739  21.3565025  29.7705650
  27.1321163  22.5104103  29.7830658  26.8238544  22.7640343  30.7108364
  26.5461693  22.6610870  28.9743252  28.2295094  20.8885155  30.8999119
  27.8547001  21.1426773  31.8026981  28.5708313  19.9444504  30.7888279
  32.4196014  24.1817360  28.1321201  33.3504791  23.8166046  28.8647614
  31.9696007  25.4583073  28.1392174  31.3071098  25.7123165  27.4204102
  32.5877457  26.5483818  29.0066967  33.1963463  25.9678326  29.6999950
  33.4063911  27.4711380  28.2041245  34.2481689  26.8953400  27.8194523
  32.7159576  28.1758518  27.0597286  31.9486256  28.8775883  27.3866291
  33.3725281  28.8286877  26.4845619  32.2267265  27.5076675  26.3510094
  34.2552299  28.4608822  28.9371586  34.7933311  27.9045372  29.7046375
  34.9875031  28.8824615  28.2485790  33.6232071  29.2435131  29.3568535
  31.4950352  27.2026672  29.7993221  30.3443222  27.3378716  29.3230858
  31.8224335  27.7027512  31.0095959  32.7608910  27.6077423  31.3706665
  30.9859180  28.5195541  31.9005165  30.2642918  29.0872841  31.3131161
  30.2989635  27.6489239  32.9689903  29.5857811  26.9211464  32.5819397
  31.0606251  27.0613308  33.4815407  29.4937611  28.3500729  34.1046906
  29.2816982  27.5916824  34.8583298  30.2553062  29.0368423  34.4741478
  28.0148067  29.1612835  33.4366264  27.8598919  30.5973988  34.5268860
  28.0817451  30.2604237  35.5394669  28.4858475  31.3873253  34.1117973
  26.8525772  31.0055866  34.4444389  31.8366661  29.5054207  32.6416588
  32.8814392  29.1405678  33.1495399  31.5014515  30.7732353  32.7927475
  30.5911636  31.1370525  32.5496140  32.4020615  31.7543163  33.4423027
  32.9502983  31.2307873  34.2255402  33.4092865  32.2920799  32.4033699
  34.1186218  32.9609833  32.8907204  33.9434662  31.4475327  31.9680595
  32.6760635  33.1631279  31.3103218  31.8360653  32.5377693  31.0079346
  32.3118591  34.1458321  31.6098957  33.6142235  33.3932686  29.7538128
  34.8052216  34.6333237  30.4730072  35.0835686  34.3951683  31.4996071
  35.6102829  34.6846046  29.7399673  34.1756897  35.5231476  30.4716492
  31.5441017  32.8095741  34.0775223  30.5388641  33.2995720  33.5865631
  32.0425339  33.2520485  35.2622261  32.8915520  32.8534927  35.6369553
  31.3017445  34.1934204  36.0708504  30.2586155  34.3545761  35.7988052
  31.3772564  33.6444130  37.5428810  32.3886337  33.7020798  37.9452362
  30.4404011  34.3984985  38.5439873  29.3928089  34.3669968  38.2445488
  30.5212765  34.1560898  39.6036072  30.6291561  35.4715118  38.5774307
  31.0112801  32.3150253  37.6736221  30.0548382  32.3073692  37.5914116
  31.9947052  35.5532265  36.0738678  33.1433105  35.6815109  36.4280701
  31.2946796  36.5945969  35.6280746  30.3223763  36.3510971  35.5038490
  31.9511700  37.7847710  35.0869064  33.0206642  37.7320023  35.2906189
  31.7891674  37.7330971  33.5580444  30.7899437  38.0570412  33.2669868
  32.7224007  38.7650108  32.8694000  33.7341194  38.4234200  33.0881119
  32.5871773  38.7103310  31.7891998  32.6241684  39.8106575  33.1610794
  32.1395607  36.3238602  32.9776039  32.9770927  35.8527985  33.4921265
  31.3680477  35.5618935  33.0884132  32.3997688  36.3782501  31.9205151
  31.3439026  39.0431900  35.6728325  30.0742569  39.2021179  35.7486954
  32.2180290  40.0650940  35.9178658  33.1933556  39.9621124  35.6765518
  31.7598572  41.4195671  36.2726746  30.8252106  41.4348526  36.8333054
  32.7817192  41.9089661  37.3084335  32.7793121  41.2681580  38.1901741
  33.7546730  41.8026237  36.8286896  32.7989578  43.3953705  37.7054558
  32.8182678  43.9682159  36.7783203  31.8887272  43.6393242  38.2532501
  33.9380264  43.6634254  38.6886024  33.7076721  44.1198921  39.8161621
  35.1979752  43.3325500  38.3686523  35.8867378  43.3207588  39.1072769
  35.4280090  43.1887436  37.3957672  31.4393654  42.2651711  35.1019211
  32.1819572  42.2591743  34.0901260  30.2573452  42.8984222  35.0919609
  29.6588478  42.7411003  35.8901787  29.6383247  43.5437775  33.9271011
  30.4128952  44.2201233  33.5655823  29.3098698  42.4865913  32.8147202
  30.2936420  42.1274414  32.5125542  28.2298737  41.4374428  33.1745644
  28.1337929  40.7728195  32.3159904  28.6926250  40.8698006  33.9818687
  27.2772675  41.9210052  33.3909378  28.8151112  43.2063866  31.7108994
  29.5276413  43.7032013  31.3021488  28.3851757  44.2796516  34.3587494
  27.5412769  43.8657265  35.1735573  28.2670479  45.5598984  33.8659058
  28.9701958  45.8741837  33.2125244  27.1263771  46.4524345  34.0112267
  26.5478230  46.0816154  34.8573189  27.5691757  47.9214401  34.1564751
  26.6859684  48.5348206  34.3348160  28.2746372  48.0829315  34.9715500
  28.3825035  48.4382896  32.9911194  28.6147060  49.6898041  32.9819298
  28.8812752  47.6576614  32.1391258  26.1086597  46.2944145  32.8203888
  25.3477306  47.2342224  32.4878197  26.1402779  45.1121559  32.1804428
  26.8721657  44.4644356  32.4351921  25.2827663  44.7443504  30.9739056
  25.0098324  45.6411476  30.4176960  26.0670071  43.8957253  29.9739876
  26.3734245  42.9531364  30.4275665  25.3391628  43.5064201  28.7228832
  25.0614605  44.3867378  28.1432114  25.9915733  42.7695694  28.2543621
  24.4634838  42.9199448  29.0009899  27.2502556  44.7165756  29.3517380
  27.8026333  44.0203934  28.7206249  26.7104092  45.5026169  28.8237171
  27.9542732  45.0250015  30.1246109  23.9520588  44.1773338  31.2981071
  23.9125195  43.2354469  32.1060028  22.7972145  44.6138611  30.7272053
  22.5441055  45.8107109  29.9613476  22.7522583  45.5377388  28.9268131
  23.1238861  46.6654701  30.3096943  21.0709915  46.1647911  30.1620235
  20.6764774  46.8739777  29.4343472  20.9645786  46.6094131  31.1515179
  20.3934135  44.7962646  30.2847347  20.2231617  44.3515167  29.3042660
  19.3989391  44.7519760  30.7287636  21.4661121  43.9712753  30.9733829
  21.2675762  44.0044785  32.0446358  21.2941990  42.4727020  30.7009220
  22.0168457  41.9704742  29.8547878  20.5049171  41.6424484  31.3911896
  19.9786282  42.1007957  32.1212845  20.5288563  40.1966743  31.4596462
  21.5784912  40.0753136  31.7273006  19.6313038  39.6399384  32.5207634
  19.6579609  40.2570457  33.4188576  18.6066322  39.6498222  32.1492081
  20.0313549  38.2476006  33.0321007  20.1038208  37.5130997  32.2300034
  20.9965286  38.2636719  33.5383415  19.0998764  37.6965714  34.1566925
  17.8563519  37.9388008  34.1399536  19.6596355  36.9030991  35.0389404
  20.6479435  36.6953239  35.0522079  19.1107292  36.5918770  35.8275719
  20.3485317  39.4089928  30.1753960  20.8900375  38.2919769  29.9735889
  19.5427990  39.9678078  29.2487106  19.2972069  40.9374809  29.3884392
  19.2476807  39.2983513  27.9578533  19.2161732  38.2090187  27.9792480
  17.8709526  39.8823738  27.5662651  17.6317139  39.2981873  26.6776733
  17.1400719  39.5156441  28.2869778  17.6902218  41.3510971  27.3405018
  16.9391823  41.7406693  26.4493732  18.2950039  42.1754913  28.0435028
  20.2343941  39.7218781  26.8756638  20.3945789  39.0322227  25.8656502
  21.0358677  40.7459373  27.0711765  20.9118710  41.3017044  27.9053516
  21.9122028  41.2044029  25.9560852  21.3536282  41.0116463  25.0401497
  22.1337013  42.7300491  26.0331383  22.5772552  43.1365204  26.9420624
  22.8120842  42.9145508  25.2001591  20.9050694  43.5266533  25.6775036
  20.4854660  43.2650032  24.7061291  20.1834316  43.4129753  26.4864655
  21.3426266  45.0186806  25.6938419  22.3313580  45.4885712  25.1468086
  20.5684547  45.8666115  26.3261871  19.7562523  45.5091171  26.8085003
  21.0384560  46.7376289  26.5275097  23.3344917  40.4474716  25.8964977
  24.0406189  40.3632660  24.8410740  23.8094959  39.9942436  27.0795937
  23.1830215  40.0657310  27.8685932  25.0282421  39.1811714  27.1992321
  25.9394608  39.7485580  27.0098782  25.1071510  38.6465492  28.6410084
  24.1937008  38.0658836  28.7696018  26.3544006  37.7168159  28.8712807
  27.3145924  38.2326851  28.8684521  26.3175430  37.1603317  29.8078003
  26.3317375  36.9126511  28.1358166  25.1490574  39.8007698  29.6642666
  26.1423988  40.2473068  29.6198044  24.5481243  40.6683044  29.3915577
  24.8163853  39.4462852  31.1189022  25.5066853  38.6965103  31.5054703
  24.9317703  40.3544197  31.7105789  23.7659664  39.1656952  31.1963024
  25.0203495  38.0851746  26.1676102  23.9249439  37.4255447  26.2232399
  26.0688400  37.9668922  25.3697510  26.8761406  38.5065765  25.6474266
  26.0241032  37.0837326  24.1752815  24.9982376  36.8930016  23.8601170
  26.8072510  37.8291855  23.0600777  27.7133522  38.3138924  23.4235859
  27.0510979  37.1914558  22.2104034  25.8903885  38.9073372  22.3824768
  25.0706997  38.3056374  21.9898262  25.5173702  39.5494919  23.1803455
  26.5527153  39.8305511  21.3759708  27.2227802  40.5763512  21.8036346
  27.1063786  39.1250420  20.7564430  25.6405277  40.5491562  20.5127430
  24.7543793  40.9097366  20.8365116  25.8343296  40.7861366  19.1917229
  26.8941269  40.5709839  18.5247955  26.8146648  40.7084770  17.5273552
  27.6868172  40.2382927  19.0549450  24.8669281  41.1542130  18.4392262
  23.9755268  41.4250946  18.8292694  25.0994282  41.2792664  17.4643383
  26.5900478  35.7141266  24.6219025  27.7076569  35.6484642  25.2331829
  25.9297295  34.5944786  24.3663654  25.0903091  34.7177086  23.8183784
  26.3830738  33.2389565  24.6269627  27.2320938  33.2846375  25.3090038
  25.2918396  32.4907265  25.4523659  24.4652424  32.2677422  24.7777443
  25.6966209  31.5062485  25.6870060  24.8524036  33.2071838  26.6899128
  25.5797577  33.4494286  27.8744507  24.7761707  34.2328529  28.5947266
  25.1704006  34.7448273  29.4600983  23.6173191  34.5372086  27.9824524
  22.8862362  35.1200447  28.3644447  23.6929646  33.8606873  26.7826977
  22.9360428  33.9576340  26.0184517  26.7443295  32.4312325  23.2741451
  25.9888649  32.1487236  22.3406696  28.0186958  32.0732918  23.2058468
  28.6134815  32.4674644  23.9206600  28.6865902  31.6274738  21.9657955
  28.0934868  32.0607452  21.1604328  30.0581703  32.2008514  21.8462067
  30.5696449  31.9683189  22.7802410  30.9600582  31.6932259  20.7197552
  31.8098335  32.3344994  20.4857731  31.3766079  30.7079487  20.9290791
  30.2914085  31.6259708  19.8615665  29.9293289  33.6847496  21.5226593
  30.8697319  34.2338982  21.4759464  29.4509010  33.7115097  20.5436325
  29.2651024  34.1495361  22.2512722  28.6802979  30.0886230  21.8428001
  29.2409801  29.4564266  22.7416267  27.9833317  29.5602856  20.8572655
  27.6124325  30.1408405  20.1186867  28.0610046  28.1567020  20.4872379
  28.7069263  27.5979614  21.1645069  26.6214104  27.5074368  20.6493835
  25.9359322  28.1744747  20.1266212  26.6183510  26.5337124  20.1595383
  26.0846214  27.3931580  22.0816174  26.0500584  26.1766891  22.7411232
  26.4148712  25.3099060  22.2100887  25.7378788  26.1601048  24.1174908
  25.7425346  25.2667484  24.7243633  25.4584236  27.3560963  24.8157196
  25.2465305  27.3376827  26.1750526  24.4615650  26.8624401  26.4571438
  25.4068012  28.5716019  24.1679611  25.0169621  29.4202023  24.7104645
  25.6769352  28.5875912  22.7627468  25.7093678  29.4635086  22.1317787
  28.6584187  27.9068985  19.0656624  28.1740685  28.4868374  18.1000843
  29.5105209  26.9457130  18.9471073  29.6627331  26.3150425  19.7211781
  30.2946815  26.7094727  17.7205029  29.8935318  27.3591270  16.9426022
  31.8068733  27.2767334  17.9730740  32.3683815  26.6339455  18.6510353
  32.3040810  27.2609081  17.0032063  31.9166641  28.8366413  18.3768425
  31.3759899  29.1092033  19.2831993  33.3698959  29.0938244  18.7085476
  34.0451851  28.8437099  17.8903065  33.4550743  30.1476784  18.9735641
  33.6258163  28.4934559  19.5815697  31.5113049  29.7668896  17.2521229
  32.0029144  30.7047977  17.5104828  31.9685879  29.3695316  16.3459778
  30.4400845  29.9274216  17.1304169  30.2281132  25.2385159  17.1312599
  29.7861576  24.3087368  17.8661003  30.6111126  25.0749741  15.8602657
  30.8780594  25.9104099  15.3593798  30.6494331  23.8561039  15.0943890
  30.6589127  24.1426258  14.0427637  31.9336758  23.0611992  15.3606873
  32.0330963  22.7823524  16.4097157  31.8528461  22.1697254  14.7387180
  33.3302803  23.7257462  15.1097736  33.3075104  24.4316082  15.9400425
  34.2136841  23.1067085  15.2662706  33.6162682  24.6402359  13.8730459
  32.8211021  24.5958958  12.9305611  34.6163025  25.4569778  13.8363237
  29.2810497  23.0427265  15.3352385  28.1912975  23.5290337  15.2135010
  29.2882881  21.7128963  15.6525393  30.1636810  21.2163620  15.5674658
  28.0717049  20.9175148  15.8894176  27.3666973  21.0780239  15.0737562
  28.3465004  19.4314308  15.7770205  29.0492210  19.1864700  16.5734348
  27.4228249  18.9148273  16.0378723  28.7601337  18.8040981  14.4539785
  29.6761494  19.2033463  14.0185299  29.0244370  17.7503071  14.5421085
  27.6431904  18.8349266  13.3259363  26.7582397  18.2786007  13.6349096
  27.2929287  19.8599644  13.2046270  28.1764050  18.3094368  11.9934978
  28.8286839  19.0448132  11.5224838  28.7413826  17.3795395  12.0582085
  27.0492725  18.1106186  11.0049200  26.4790878  18.9442368  10.9963837
  27.4184246  17.9075756  10.0869856  26.4870338  17.3396797  11.3360405
  27.3128452  21.2338524  17.2065182  26.1807671  20.8210773  17.3575516
  27.8803272  21.9864311  18.1519585  28.7520981  22.3980942  17.8508778
  27.2821598  22.4299126  19.4433365  26.8833656  21.4938469  19.8342934
  28.4116592  22.9102516  20.3701763  28.6717873  23.8962784  19.9852390
  28.1077080  22.8618603  21.4158211  29.2276993  22.1877766  20.3556652
  26.1072998  23.4117756  19.3514271  25.5800972  23.7627048  20.4675255
  25.6920166  23.8962402  18.1541424  26.1280251  23.4153061  17.3803864
  24.5726643  24.8916321  18.1120911  24.8079967  25.6411057  18.8677425
  24.5569973  25.6746807  16.7198677  24.5304451  24.9714336  15.8874989
  23.3515453  26.5668526  16.5383263  22.4188251  26.0038452  16.5042858
  23.2303333  27.3430748  17.2938976  23.4121113  27.0706215  15.5736256
  25.8781624  26.5511913  16.5137825  26.7918777  25.9572163  16.5341530
  25.8706799  27.0547199  15.5470848  25.8914146  27.2463570  17.3532295
  23.1802349  24.3257408  18.3798275  22.3784904  25.0968266  18.8639812
  23.0400658  23.0242176  18.4539738  23.6618748  22.4691372  17.8835850
  21.9208431  22.3483963  19.1417179  21.0388947  22.7319870  18.6287556
  21.9229202  20.8040466  18.8667240  21.1664810  20.2915363  19.4610596
  21.6093025  20.5113926  17.3691292  22.4006023  20.8956623  16.7254829
  21.6551781  19.4426422  17.1598949  20.6545277  20.9801388  17.1308403
  23.1375084  20.0239182  19.4344139  24.0617504  20.2688980  18.9110832
  23.3261929  20.2903919  20.4743614  22.9506493  18.9563637  19.5506496
  21.7325916  22.6520538  20.6125908  20.6472530  22.4843712  21.1834507
  22.7829323  23.1735744  21.3166790  23.6574574  23.3331394  20.8372593
  22.8791409  23.3406754  22.8018036  22.1303921  22.6679974  23.2201099
  24.2452393  22.9284649  23.3306885  24.9538231  23.6807289  22.9841194
  24.2562485  23.0046501  24.4179668  24.7533855  21.5041599  22.9995861
  24.9750843  21.3221912  21.9479980  26.0479603  21.3507290  23.7229404
  25.9736786  21.1194096  24.7855206  26.5316505  20.4248199  23.4117584
  26.6802406  22.2233791  23.5592384  23.7827759  20.3929539  23.4713268
  23.7898006  20.2647190  24.5537395  22.7572746  20.5964832  23.1630592
  23.9014034  19.4156170  23.0035210  22.5367050  24.7116432  23.2974987
  22.4860344  24.9499645  24.4775772  22.3472614  25.6747456  22.3801823
  22.4410076  25.3663998  21.4229813  22.1751881  27.0941143  22.7916737
  22.9998951  27.5191708  23.3637733  21.9771194  27.9280548  21.4785156
  21.8976879  28.9905167  21.7086620  22.8641701  27.7043896  20.8858852
  20.7718887  27.4575958  20.6533318  20.6996651  26.3705730  20.6177616
  19.8691998  27.7562141  21.1863213  20.6357307  28.1666985  19.2974319
  20.7276058  29.2494526  19.3829098  21.4629688  27.8280602  18.6736526
  19.2803078  27.8588104  18.7308788  18.5555592  28.5508900  18.8568363
  18.8522167  26.7841702  18.1178226  19.6852264  25.8631725  17.7777786
  20.6420212  26.0441303  18.0459156  19.3282013  24.9881382  17.4214802
  17.6537418  26.6495972  17.6852779  16.8965759  27.2873516  17.8854485
  17.3787117  25.8651371  17.1116219  20.9347515  27.1607819  23.7050648
  20.0272541  26.2683754  23.6999168  20.8683529  28.1864204  24.5602341
  21.7729607  29.3565445  24.7887306  22.1272068  29.6664162  23.8055782
  22.6950817  29.0178738  25.2610588  20.9968624  30.3526592  25.6793404
  20.3184490  31.0126324  25.1387024  21.6304722  30.9833908  26.3028965
  20.1452751  29.4342880  26.4950562  19.3138905  30.0250626  26.8796139
  20.7617760  29.0786514  27.3206158  19.7320995  28.3627224  25.4923019
  19.5809097  27.4006157  25.9817905  18.4661789  28.7118359  24.7548409
  17.4114704  28.8700199  25.4650879  18.5084743  28.7560596  23.4123459
  19.4498615  28.9862251  23.1278763  17.4182301  28.9826984  22.4444675
  17.8321114  29.3271313  21.4967499  16.8575764  27.6290417  22.0378456
  17.6937466  26.9446774  21.8944530  16.3589611  27.2957268  22.9480019
  16.0104828  27.7019482  20.7309189  15.7307167  28.7629452  20.1799908
  15.6453218  26.5802326  20.2334919  16.4199219  30.0366859  22.8922977
  15.2837257  29.7116814  23.1501465  16.7833424  31.3381329  23.0510635
  17.7090473  31.7008915  22.8733673  15.9162188  32.3464813  23.6677341
  15.5847540  31.8435955  24.5762157  16.7956009  33.5653038  24.1226158
  17.2631207  34.0449371  23.2626877  16.1411610  34.3011398  24.5898991
  18.0393524  33.3760452  24.9685211  18.7839890  32.7895393  24.4303513
  18.6765232  34.7487183  25.2329788  19.0652714  35.0453224  24.2588100
  17.9347782  35.3857193  25.7147923  19.5889225  34.6793938  25.8252888
  17.7369671  32.6598282  26.3096104  16.8603477  33.1257019  26.7597218
  18.6096897  32.7018776  26.9612923  17.5853081  31.6287136  25.9903793
  14.6485701  32.6494026  22.8838615  14.6385632  32.7273216  21.6702728
  13.5610628  32.8684731  23.6460304  13.7219648  32.6856041  24.6262188
  12.2585430  33.2035255  23.1105690  12.2870684  33.7518425  22.1689548
  11.3913565  31.9764977  22.7876244  11.7726307  31.3664055  21.9687729
  11.4353981  31.3580704  23.6841259  10.1120062  32.3712273  22.5270309
   9.9628630  32.4972458  21.5870972  11.5458803  34.0708466  24.2027340
  11.2015495  33.5421143  25.3101864  11.0964727  35.2789955  23.8007984
  11.3618402  35.5682602  22.8701992  10.2635698  36.2869911  24.5532322
  10.7804193  36.3762436  25.5087414  10.0550308  37.5573349  23.6646500
  10.9870958  37.8225441  23.1656303   9.3639803  37.4147949  22.8338470
   9.4582615  38.6791077  24.5005550   8.5707617  38.3021584  25.0088406
  10.4320831  39.2288055  25.5338192  11.4789486  39.1467896  25.2415009
  10.3038101  38.5494118  26.3764782  10.1547546  40.2398453  25.8321304
   8.9861946  39.9120331  23.7229061   8.2862473  39.6788940  22.9205227
   8.4983759  40.5833397  24.4296417   9.8308296  40.4543304  23.2979317
   8.8983965  35.6459846  24.8479214   8.2021446  35.9453506  25.8526344
   8.5146894  34.6237221  24.0933037   9.0243254  34.4596634  23.2368832
   7.2863259  33.8349648  24.3924961   6.4689474  34.5285301  24.5898781
   6.9559870  33.0843315  23.1313133   7.7005954  32.3531456  22.8166351
   5.6755209  32.3440742  23.1516094   5.6904907  31.2811489  23.3926086
   5.0189505  32.7741127  23.9079723   5.1338429  32.4499969  22.2116814
   6.7749701  34.0640182  22.0440388   7.5938101  34.5230331  21.8430252
   7.3780308  32.8086624  25.6211567   6.3629403  32.4305840  26.2041550
   8.5786552  32.4054451  26.0301056   9.3227892  32.7682953  25.4515686
   8.9497089  31.5393620  27.1892376   8.2442818  30.7138348  27.2840271
  10.2988071  30.8718929  27.0901794  11.0441456  31.6492538  26.9220028
  10.5785189  30.3116264  27.9823456  10.2285891  29.8690262  26.0018044
   9.4285622  29.1426907  26.1449604  10.0727911  30.3559570  25.0391388
  11.5597086  29.1189137  25.9381542  12.3537788  29.8484306  26.0973969
  11.6117706  28.4861355  26.8241463  11.8362684  28.3425770  24.6819572
  10.9434862  27.7215385  24.6088142  11.8945522  28.9988785  23.8136425
  13.0888443  27.5771561  24.7126846  13.8412914  28.1794796  25.0145569
  12.9775867  26.7573185  25.2919922  13.3538895  27.3772602  23.7588005
   8.9150124  32.3520775  28.5349979   9.4236841  31.9306202  29.5843525
   8.2475643  33.5076180  28.5655079   7.8707652  33.8786469  27.7050076
   7.9861126  34.4978600  29.6161709   8.3402185  34.1364326  30.5816154
   8.8716831  35.7748337  29.4644566   8.5532351  36.4151306  28.6418304
   8.6730537  36.3480949  30.3700027  10.4069128  35.6038475  29.4001064
  10.9205017  34.5461578  29.8132420  10.9963942  36.5733032  28.6839504
  10.4964924  37.4052124  28.4044380  12.0041447  36.5351982  28.6283302
   6.5205650  34.8444214  29.6711540   5.7952380  34.8353043  28.6712151
   6.0742540  35.2188683  30.8873005   6.7871413  35.1987877  31.6024837
   4.7015290  35.7213593  31.0256100   4.0652370  35.0932274  30.4021626
   4.1602120  35.8224602  32.5723534   3.3360722  36.5354576  32.5494194
   3.7836220  34.5025826  33.1963654   3.6494393  34.6607971  34.2664413
   2.8033204  34.1403809  32.8866615   4.4872460  33.6723976  33.1346703
   5.1130781  36.3978615  33.3843040   4.7954545  37.2064667  33.7928047
   4.6248379  37.0700188  30.3778877   5.5135856  37.9182663  30.6124477
   3.5363493  37.3005295  29.6309624   2.9765468  36.4722404  29.4872360
   3.3992524  38.4284363  28.6759987   4.3143263  38.4681931  28.0851021
   2.1688526  38.2685356  27.7420425   1.2162516  38.2464447  28.2713470
   2.2169931  39.1413269  27.0908756   2.2911463  37.0231972  26.8412075
   3.1535635  37.0389137  26.1748066   2.4801309  36.1180382  27.4183311
   1.0724794  36.9022560  25.9896202   1.2311015  37.0678902  24.7209587
  -0.0433080  36.6072426  26.4739933   3.4147890  39.8063393  29.4158382
   2.6020701  40.0600548  30.3404198   4.1934237  40.6868553  28.7864532
   4.6161695  40.3533669  27.9319515   4.4757080  42.1105347  29.1161728
   4.8387475  42.2512817  30.1342545   5.6772146  42.6414680  28.2117004
   5.4039507  42.7124710  27.1589012   6.0359311  43.6326523  28.4891548
   6.9414139  41.7859306  28.1776752   6.7040744  40.7776299  27.8384056
   7.9264059  42.3300362  27.1993198   8.9347486  41.9215584  27.2663040
   7.5241575  42.0810738  26.2173252   8.0430765  43.4098778  27.2911396
   7.5058241  41.8819046  29.6249428   6.8033490  41.3797302  30.2901115
   8.4747791  41.3848534  29.6716270   7.6853170  42.9271774  29.8765182
   3.3194895  43.0593872  28.9809647   2.9107244  43.6938591  29.8970261
   2.8009677  43.1245728  27.8355026  32.9529495  45.3565025  47.7340775
  32.6810265  46.0440292  47.0459862  32.2007484  44.6867294  47.8095589
  33.0486374  45.9541092  48.5426598  34.2264557  44.6032104  47.4189644
  34.9463348  45.2547340  46.9235954  34.8643456  44.2761040  48.7567558
  35.0790138  45.1938896  49.3041954  34.0893517  43.7509079  49.3150139
  36.0268707  43.3847198  48.7432060  35.8279457  42.4816666  48.1661224
  36.9665298  43.8619499  48.4650040  36.3751106  42.7053452  50.3734703
  37.0044174  44.2762260  51.0144272  37.6078339  44.7786293  50.2583961
  36.1460114  44.8823090  51.3040886  37.6891708  44.0807152  51.8396530
  33.9732475  43.4186783  46.4617462  33.0249405  42.7030983  46.5447121
  34.9073105  43.2645912  45.4970207  35.5998611  43.9965706  45.4285965
  34.8721390  42.2417221  44.4247131  33.9682159  42.5026970  43.8743362
  35.9966965  42.3988266  43.3753433  36.0120583  43.4167595  42.9858818
  36.9790993  42.4184265  43.8471642  36.0165138  41.2615547  42.2725830
  36.8301544  41.4568329  41.5740433  36.2110176  40.2808418  42.7067184
  34.5771904  41.0905190  41.1486282  35.4482803  40.2069397  39.8188934
  34.7427292  39.8919258  39.0500908  36.2005806  40.9191246  39.4798698
  35.8508530  39.3096085  40.2888298  34.8010979  40.8528328  44.9485359
  35.4863853  40.5956612  45.8876305  34.0706329  39.9819489  44.2923203
  33.6832466  40.3660049  43.4423027  34.1541939  38.4988785  44.5625000
  34.6363411  38.5247917  45.5397224  32.7122192  37.8314667  44.6171303
  32.8397064  36.8128204  44.9834824  31.9472790  38.4911232  45.6406822
  31.0144310  37.9997902  45.9172287  32.6736336  38.5151329  46.4530449
  31.7595615  39.5236206  45.3460503  31.9582443  37.8054962  43.2324562
  31.4818096  38.7698784  43.0561714  32.6596565  37.5260353  42.4463120
  30.8052502  36.7700806  43.1740494  29.9923840  37.0006027  43.8626862
  30.3211708  36.7765083  42.1974602  31.1829681  35.7661171  43.3676605
  35.1205254  37.7410355  43.6303940  35.2164116  37.9903297  42.4439201
  35.8951073  36.9047737  44.2745399  35.6321526  36.6505165  45.2159767
  36.8797264  36.0563889  43.6220055  36.6928864  35.9763412  42.5511246
  38.2654037  36.6572113  43.7924614  38.6184959  36.7853355  44.8156967
  38.9402542  36.0099525  43.2323456  38.3410187  38.0171165  43.2528648
  37.6890411  38.1087151  42.3841667  38.0092926  38.7131004  44.0233574
  39.7542953  38.3584442  42.7369576  40.4281883  38.3477554  43.5936127
  40.0215607  37.7034836  41.9076767  39.8116760  39.6564560  42.1006889
  40.0020676  40.5166283  42.5946083  39.4500465  39.9449081  40.8562965
  39.0863113  39.0195465  39.9659424  39.1062813  38.0316048  40.1749306
  38.6873283  39.4108620  39.1246452  39.4446335  41.2310371  40.5062256
  38.9830666  41.6171112  39.6950493  39.8335648  41.9631462  41.0831566
  36.8278732  34.5998764  44.0372963  36.1384506  34.2693253  44.9776497
  37.3333282  33.7157745  43.1849098  37.6304817  34.1290436  42.3125534
  37.5256081  32.2471352  43.4539375  36.6962280  31.9856014  44.1110764
  37.4972916  31.5838470  42.5894470  38.9012642  32.0245094  44.1024246
  39.8723907  32.5815697  43.6101723  39.0231247  31.2511444  45.1698837
  38.1552010  30.8589039  45.5059738  40.3142433  30.6940880  45.6693649
  41.1886940  31.2233810  45.2908287  40.2853394  30.8198185  47.1944466
  39.3034744  30.6915398  47.6500664  41.2246628  29.8223591  47.9237862
  41.1881561  30.1285324  48.9692688  40.8886604  28.8049583  47.7235451
  42.2318687  29.9810123  47.5384636  40.6575813  32.2228851  47.5369644
  41.7432861  32.2773247  47.4570885  40.1296997  32.9303665  46.8974915
  40.3431320  32.6798553  48.9662132  40.6574783  31.9730263  49.7341194
  40.8377838  33.6299858  49.1678696  39.2660866  32.8232040  49.0529442
  40.3405342  29.2207775  45.1557732  39.2820358  28.5433254  45.1684570
  41.4516640  28.6846905  44.6636543  42.1421318  29.3864498  44.4380684
  41.7791138  27.3002777  44.3956375  40.8706589  26.7396908  44.1752968
  42.6431732  27.2656727  43.2170219  43.3616142  28.0790310  43.3189430
  43.2203712  26.3460865  43.1205254  41.8861504  27.5825176  41.9082108
  41.7173157  28.6589699  41.8790894  42.5934334  27.4435863  41.0905609
  40.5737801  26.8448734  41.5515556  39.8971939  27.2879829  42.2822990
  40.2216949  27.1678123  40.5718346  40.7200089  25.3778839  41.8439178
  39.9977760  24.9132442  42.3755074  41.6616554  24.5580444  41.3583374
  42.4174538  24.9299641  40.3621368  43.1003761  24.2697678  40.0188370
  42.3561325  25.8058414  39.8629532  41.8456841  23.3392239  41.9466629
  42.4560623  22.6580772  41.5182037  41.1867027  23.0414581  42.6517715
  42.4384270  26.5150166  45.5818863  43.0779114  27.0319328  46.4618645
  42.2393074  25.1871529  45.4526787  41.5517769  24.8577099  44.7902069
  43.1876640  24.2893505  46.1019287  44.1648140  24.7372513  45.9212036
  43.1482544  24.2538967  47.1906357  43.1046295  22.8698616  45.5110435
  42.1004372  22.5300407  44.9192238  44.1621552  22.1393013  45.7808113
  44.9483757  22.7698421  45.8469238  44.2799263  20.6790771  45.3748741
  43.2745857  20.2625790  45.3122597  44.8275986  20.5683384  43.9195557
  44.4054642  21.3209248  43.2535858  45.9000473  20.7441559  43.8356361
  44.5917206  19.6321812  43.4135246  45.1565094  19.8031597  46.3528633
  46.1256180  20.2399998  47.0293274  44.7614632  18.5484695  46.4962921
  44.0297470  18.1530457  45.9232903  45.3064270  17.6222057  47.4301605
  46.3771362  17.8259945  47.4177361  44.8638000  17.8648605  48.8496819
  44.7922897  18.9276218  49.0810432  43.4530678  17.2505302  49.0836411
  43.4691620  16.1633854  49.0064774  43.0584679  17.4805984  50.0733147
  42.6914253  17.6472054  48.4123344  45.6448479  17.1213989  49.7715607
  45.6745033  17.6686535  50.5597458  45.0336533  16.1389751  46.9452477
  44.2298508  15.9017267  46.0387268  45.8280258  15.1683912  47.4902000
  46.5073929  15.4741535  48.1721573  45.6404305  13.7057657  47.2537766
  44.6790657  13.6036730  46.7503357  46.7872047  13.1631021  46.3839874
  46.7463570  12.0743599  46.3511353  46.6416435  13.6038084  44.8772545
  47.5564766  13.4370337  44.3086014  45.7892456  13.1492624  44.3723755
  46.5266800  14.6875210  44.8558464  48.0527878  13.4765482  46.8772736
  48.3258934  12.8275805  47.5298500  45.6793861  12.7945805  48.5175743
  46.0964890  13.1926146  49.5701027  45.3408051  11.5209570  48.2959099
  45.1832161  11.3385611  47.3150978  45.2419395  10.3485899  49.2514725
  45.7872429  10.4746056  50.1868134  43.8112602  10.1214066  49.7841415
  43.8091507   9.2880220  50.4866867  43.1893616  11.4572477  50.2884140
  43.0987396  12.1849976  49.4820251  42.1396866  11.2992802  50.5360565
  43.6715927  11.9079714  51.1558266  42.9019547   9.5756693  48.6898346
  42.6689987  10.2453337  47.8619537  43.2614098   8.6219788  48.3033371
  41.9421196   9.4648380  49.1943474  45.7608337   9.1464901  48.4919357
  45.7396126   9.0368996  47.2598877  46.0691109   8.0989256  49.1847801
  45.9771614   8.0992413  50.1905861  46.5675240   6.8001957  48.7725563
  46.8286018   6.8750310  47.7169342  47.8835220   6.4999175  49.4889297
  47.7747192   6.5639281  50.5715981  48.2129707   5.4873376  49.2560234
  48.9917259   7.4870663  49.2195663  48.6221695   8.4560070  49.5552483
  49.8871307   7.2434225  49.7913971  49.4171944   7.6397057  47.7604141
  49.7625732   6.6013837  47.1915932  49.3386955   8.7704601  47.1869507
  45.5497742   5.7413750  48.8644218  45.5749130   4.8132987  48.0914993
  44.5768204   5.8805861  49.7815399  44.4213715   6.8303041  50.0880928
  43.4447403   4.9266615  50.0421371  43.4733162   4.0879321  49.3465614
  43.5193138   4.2874956  51.4185333  43.6730957   5.0481849  52.1839104
  42.5906219   3.7456589  51.5975418  44.7220612   3.3258686  51.5396805
  44.5747681   2.5421145  50.7966232  45.6301880   3.7610216  51.1224899
  44.8128319   2.7979107  53.0092659  43.8709412   2.2854488  53.2050285
  45.6298790   2.0796502  53.0773888  45.0406990   3.8118145  54.0371246
  45.3734627   4.6951227  53.6777649  45.1371002   3.7015066  55.3400688
  44.8050117   2.6298761  55.9892120  44.5924911   1.7872505  55.4745064
  44.9494057   2.6476505  56.9886818  45.4416847   4.7013798  56.0234642
  45.7113724   5.5609412  55.5668221  45.4585762   4.6184292  57.0299110
  42.0617218   5.5931745  49.9277802  41.9136658   6.6689668  50.4510880
  41.1726265   4.8688354  49.2840843  41.4723320   3.9865375  48.8944359
  39.7018585   5.2124462  49.3150330  39.8333015   6.2809148  49.1441612
  38.9745331   4.5930128  48.1283646  39.5883369   4.7189898  47.2364731
  38.9005470   3.5090125  48.2153702  37.5411949   5.0125074  48.0692177
  37.1612129   6.0340133  48.7029610  36.7614403   4.4627213  47.2665825
  39.0621986   4.8015594  50.6529999  38.4974632   3.7201071  50.8494797
  39.1648445   5.6572957  51.6282501  39.7909279   6.4256845  51.4340897
  38.4699898   5.6048064  52.9326820  37.4738007   5.1681800  52.8615456
  39.1115189   4.6029544  53.9392586  38.7584190   3.6125062  53.6521492
  40.6153374   4.5485749  53.9244499  40.7677078   3.9754949  53.0098610
  41.0128174   5.5575395  53.8144455  41.0707779   3.9662113  54.7254028
  38.6793213   4.8714795  55.3491096  37.7289848   4.7490993  55.4081573
  38.3004646   7.0021086  53.5927467  39.1910172   7.8004751  53.4170265
  37.2218094   7.2164383  54.3930855  36.6285248   6.4190621  54.5728264
  36.8790245   8.5169163  54.9934044  36.9351768   9.3287220  54.2681999
  35.4244652   8.3969059  55.5368118  34.6892891   8.0651531  54.8036232
  35.3510017   7.6473184  56.3247375  34.8854523   9.7036762  56.2054367
  35.5812035   9.9033222  57.0204010  34.9784470  10.5128527  55.4810829
  33.4972343   9.6048403  56.7710571  32.8484077   8.5501909  56.6443214
  33.0263100  10.5244942  57.5269547  37.9873199   8.8958559  56.0325890
  38.2417030  10.0817709  56.3086166  38.7848740   7.8991451  56.4896812
  38.5026665   6.9496813  56.2922440  40.0648499   8.1220503  57.2532997
  39.9482880   8.6684008  58.1892548  40.5009880   6.6752133  57.7035294
  39.7237320   6.3156791  58.3778534  40.5444336   6.0059438  56.8442879
  41.8912621   6.5956821  58.3477936  42.0085526   5.5417042  58.5997391
  42.7577705   6.9560213  57.7933426  42.0462570   7.2947469  59.6547737
  43.1944466   7.5566454  60.0939980  41.0750656   7.5563211  60.4372292
  41.2054672   8.8151608  56.4496956  42.0113144   9.5155258  57.0419464
  41.2868195   8.6242361  55.1485367  40.7324448   7.8642635  54.7808304
  42.1298981   9.4076777  54.2860260  42.9328346   9.9488525  54.7865486
  42.7215881   8.4713154  53.2708969  41.9547195   7.9013233  52.7463760
  43.1777000   9.0351791  52.4571915  43.8493080   7.5274243  53.7924500
  43.4332314   6.7823429  54.4705620  44.2986755   6.9169688  53.0091820
  44.9554710   8.2102928  54.6344147  45.2936630   9.3416939  54.2564659
  45.6711464   7.4956403  55.4093018  41.3629150  10.5071630  53.5456772
  41.8436127  11.6172199  53.5851555  40.1506615  10.3658752  52.8761597
  39.7113113   9.4629955  52.9851608  39.5578766  11.4933386  52.0872421
  40.4003639  11.7510185  51.4454346  38.3209496  11.0001040  51.3178825
  37.6526375  10.5650158  52.0609550  37.5141945  12.2064037  50.7804298
  36.6091309  11.8813238  50.2673225  37.0889816  12.8600426  51.5420418
  38.0985184  12.8142538  50.0896454  38.6906738  10.0260124  50.2227783
  39.2068024  10.5653658  49.4285431  39.2870483   9.2361546  50.6794586
  37.5040169   9.3156796  49.5201759  36.9904823   8.6536894  50.2174225
  36.7868996  10.0375843  49.1294174  37.7345924   8.6583500  48.6818123
  39.2302971  12.6853504  53.1044006  39.6412277  13.8319912  52.8557281
  38.5994720  12.4520378  54.2430763  38.4696121  11.4740553  54.4593811
  38.1026421  13.5354147  55.0731773  37.7463036  14.2704353  54.3514671
  36.9203300  13.1001120  55.8992538  36.2605286  12.4487896  55.3260727
  37.3693161  12.4123154  56.6158066  36.2162094  14.1516285  56.7723236
  36.2942123  15.0829210  56.2113266  34.8245354  13.7349243  57.0623055
  34.8970490  12.8190079  57.6487770  34.3804169  14.5463915  57.6388283
  34.3287964  13.4087534  56.1479988  36.7621803  14.4888191  58.1281509
  36.7372589  13.5542345  58.6885338  37.7826996  14.8716364  58.1377144
  36.1364136  15.2536354  58.5881157  39.2104416  14.3088732  55.7972336
  39.1838913  15.5188732  55.8311920  40.2104721  13.5652552  56.2612076
  40.0815964  12.5833988  56.0625916  41.4112701  14.0710392  57.0182114
  40.8733749  14.7347031  57.6952057  42.1545944  12.9515104  57.7489128
  42.5224342  12.2484646  57.0015717  42.9917450  13.3721323  58.3060074
  41.2821236  12.1280069  58.7246361  40.6141090  11.5350304  58.0999489
  41.9117813  11.3941555  59.2277298  40.4660797  12.9654598  59.7378082
  40.9818764  13.9487181  60.3001900  39.2695808  12.4930143  60.0499954
  38.8824348  11.6699619  59.6109009  38.8293343  12.8683243  60.8778992
  42.2376137  14.9576540  56.0724869  42.3723412  16.0956860  56.4026337
  42.5482864  14.5882101  54.8445549  42.2927589  13.6309805  54.6483002
  43.2880783  15.3491707  53.8729744  44.2381401  15.7678328  54.2049446
  43.7056274  14.4554090  52.6773262  42.9171906  13.7072487  52.5953293
  43.6777115  15.0781155  51.7831459  45.1069183  13.8569164  52.8706093
  45.5291443  13.2755175  52.0509796  45.8357201  14.6269913  53.1234589
  45.2432632  12.8485374  54.0539780  44.7231293  13.2101126  54.9410095
  44.6978531  11.9397945  53.7993889  46.6681099  12.2769833  54.1942062
  46.9435005  11.6651917  53.3351517  47.4184341  13.0674648  54.1783028
  46.7569504  11.4079828  55.3751373  46.1096573  10.6616001  55.1653099
  47.6651306  10.9973726  55.5385780  46.4823875  11.8629475  56.2340431
  42.4377174  16.5491848  53.3852310  42.9406738  17.6350365  53.1879349
  41.0856895  16.4031811  53.2410583  40.7184486  15.4630594  53.2035713
  40.2572289  17.5838547  52.7816620  40.6773720  17.9745636  51.8548775
  38.7957420  17.2401466  52.4704971  38.3185234  16.9646435  53.4109535
  38.1497192  18.4040356  51.7027626  38.6691933  18.6976261  50.7905922
  37.1170883  18.2225761  51.4046707  38.0976105  19.3128166  52.3023453
  38.8103600  16.1652241  51.5327606  39.2785110  15.5254030  52.0741119
  40.2176552  18.6032181  53.8944283  40.3178596  19.7789497  53.6247711
  40.0762863  18.1734905  55.1601334  39.9832954  17.1803055  55.3183594
  40.2480659  19.0496349  56.3201027  39.4861565  19.8286953  56.2943840
  39.7988892  18.3492413  57.6125298  38.8646431  17.8177929  57.4312897
  40.4921341  17.5546989  57.8886108  39.5439148  19.3505268  58.7904167
  39.2966156  20.3519421  58.4381218  38.7060623  19.0545444  59.4216881
  40.8280869  19.3769855  59.6895981  41.3489494  18.4194889  59.6887665
  41.5469818  20.1060982  59.3158531  40.3725319  19.8427906  61.1213570
  39.9789391  20.8512344  60.9939613  39.5423431  19.2184563  61.4516563
  41.5240898  19.7949543  62.0383186  42.1500359  19.0025806  62.0591888
  42.0298882  20.6201744  61.7497215  41.1426430  19.8366241  62.9725876
  41.6153870  19.7017307  56.5264816  41.6897812  20.8899879  56.9286346
  42.7230072  19.0122261  56.1051292  42.5312386  18.0450230  55.8864021
  44.0524712  19.5886536  56.0457268  44.3057938  20.0594177  56.9956284
  45.1654129  18.5321751  55.8944511  44.9559898  18.1327572  54.9021263
  46.1562424  18.9861870  55.8794098  45.2621078  17.5283966  57.0936356
  45.2955360  18.1639824  57.9785156  44.4224739  16.8377323  57.1716766
  46.4677162  16.6255131  57.0168495  46.5712204  15.6843033  56.2148476
  47.3733292  16.6739883  57.9542580  48.1421776  16.0216560  57.8956032
  47.3759727  17.4077015  58.6483498  44.2090721  20.7636681  55.0069466
  44.7859154  21.8327484  55.2807045  43.5935555  20.5245991  53.8181152
  42.9740410  19.7301617  53.7462196  43.4896660  21.5698624  52.7346916
  44.5268860  21.8866348  52.6254807  43.0304565  20.9554443  51.3900909
  43.6529274  20.1360245  51.0306702  42.0214157  20.5609283  51.5096703
  42.9164696  21.9104824  50.2347069  42.1117554  22.6246243  50.4094810
  44.2134933  22.6918507  49.9508858  45.0838432  22.0375004  49.9017487
  44.2807655  23.0950985  48.9404564  44.4193420  23.3788471  50.7717171
  42.5283813  21.2952404  48.9021339  43.2771950  20.5096760  48.8007965
  41.5440521  20.8607883  49.0766335  42.3885269  22.1451340  48.2341347
  42.6184998  22.7889748  53.1120224  43.1330185  23.9227829  52.9948387
  41.4247894  22.6208820  53.6248550  41.0777817  21.6736984  53.6751785
  40.5807114  23.6872520  54.2345467  40.2739143  24.4320145  53.5001755
  39.3249130  23.1169395  54.7987747  39.6314697  22.3346939  55.4931908
  38.8093719  23.9275188  55.3138237  38.2865067  22.5924072  53.7596855
  38.7441139  21.6705570  53.4006729  36.8609848  22.3047523  54.1779060
  36.2902527  23.2304688  54.2514534  36.3591537  21.6510525  53.4645042
  36.9535675  21.8196182  55.1495895  38.1585007  23.5100517  52.5108910
  37.3948364  23.1610241  51.8158417  38.0335159  24.5805492  52.6737251
  39.0812759  23.3435955  51.9551239  41.3074188  24.5022850  55.3437271
  41.2475586  25.7420750  55.3175087  41.9014015  23.9136810  56.3194084
  41.9895287  22.9077301  56.2995186  42.6304245  24.6893482  57.4395943
  41.9332809  25.4334564  57.8248100  42.9619827  23.6782341  58.5346870
  43.2486916  22.7075443  58.1301384  43.8302994  24.0943184  59.0455780
  41.7316513  23.4094734  59.5170479  41.0962029  24.2657700  59.7430077
  41.0287247  22.8022957  58.9466705  42.1503639  22.6692123  60.7676620
  42.9192085  21.6875725  60.6522026  41.7242165  23.0945206  61.8023300
  43.8854637  25.4607315  56.9177666  44.2127151  26.5039902  57.4913330
  44.5135117  24.9765892  55.8461914  44.2659340  24.0498199  55.5301132
  45.6499786  25.6857014  55.2853737  46.1542168  26.2621212  56.0609932
  46.5402985  24.6399651  54.5773621  46.7111740  23.8385220  55.2961082
  46.1634560  24.1869659  53.6603661  47.9207497  25.2083111  54.2935791
  48.4528656  24.3463078  53.8912125  47.7875710  25.9932728  53.5491333
  48.8182373  25.6121922  55.5272102  48.2919579  26.2887611  56.2005501
  49.0718994  24.6900463  56.0500908  50.0841331  26.3906708  55.0946579
  50.4621201  25.7920170  54.2658958  49.8414116  27.4397373  54.9254112
  51.1202965  26.3188667  56.1953506  51.7593803  27.0638828  55.9573975
  50.7189064  26.5791340  57.0848770  51.4923782  25.3820133  56.2582703
  45.1495743  26.8010635  54.4094353  45.7747688  27.8305035  54.3576050
  44.0584793  26.5951881  53.6150513  43.4450455  25.8087788  53.7743034
  43.4149628  27.7567844  52.8832855  44.2012367  28.1736984  52.2539520
  42.2307472  27.2313633  52.0179138  41.7014122  26.5030231  52.6322670
  41.1819458  28.3477859  51.6402817  40.3139114  27.8533115  51.2042656
  40.7573891  28.7410583  52.5639687  41.6357040  29.0720177  50.9637527
  42.7251587  26.5336761  50.7558937  43.4211121  27.1544571  50.1916428
  43.4475365  25.7958527  51.1050148  41.6388512  25.9345493  49.8777504
  42.0893021  25.4476414  49.0128136  41.0607986  25.1877975  50.4220963
  40.9119186  26.6919155  49.5843620  42.9715691  28.8310242  53.8405342
  43.2937546  29.9529667  53.6663055  42.2890396  28.4143486  54.9300117
  41.9962769  27.4513779  55.0141411  41.7537880  29.4266911  55.7927208
  41.1704445  30.1388397  55.2090607  40.9036751  28.6598930  56.8280869
  41.3878021  27.7947750  57.2811775  40.5082855  29.6077938  57.9535561
  39.8235054  29.0560493  58.5975685  41.4435539  29.8509865  58.4577713
  40.0564346  30.5443058  57.6266327  39.5119591  28.2999973  56.1997261
  38.8694725  29.1611042  56.0158501  39.6255722  27.9596729  55.1704674
  38.6537628  27.3188992  57.0303192  37.7740593  27.1294918  56.4152222
  39.2768021  26.4254818  57.0718918  38.3075523  27.7933083  57.9485664
  42.8987808  30.1948910  56.4519615  42.7560120  31.4310074  56.6748047
  43.9652328  29.5307121  56.7856255  44.0226593  28.5240364  56.7271767
  45.1066742  30.1786556  57.4542885  44.7468529  30.7408943  58.3159866
  46.0455246  29.0920830  57.9564934  45.5365639  28.3928070  58.6198730
  46.4714813  28.5267353  57.1276131  47.2941360  29.5594177  58.7165337
  47.9365082  28.7185001  58.9779053  47.8317490  30.2501659  58.0669632
  46.8865929  30.2552490  59.9908867  46.3270721  29.6546535  60.9283829
  47.0419006  31.4966564  60.0972939  45.8139610  31.1334286  56.4309883
  46.0097809  32.3139267  56.7392235  46.1651230  30.7409744  55.2098465
  45.7405434  29.8979836  54.8504028  46.8971672  31.6172485  54.2946930
  47.6103897  32.1891327  54.8882980  47.5592537  30.7242165  53.2802277
  46.8314934  30.0016308  52.9109879  47.8806763  31.3303814  52.4332619
  48.8145905  29.9500771  53.7331390  48.5659332  29.0487804  54.2934380
  49.3760414  29.6973572  52.8336906  49.7329369  30.6777630  54.6692810
  50.2168922  29.9579754  55.5863609  49.8924103  31.8977814  54.4663582
  46.1064339  32.7896500  53.6886635  46.6893654  33.7829094  53.2240257
  44.7894325  32.7479210  53.8232346  44.3662376  31.8493404  54.0064430
  43.9088402  33.7354889  53.2214622  44.4715958  34.4816017  52.6604576
  42.9529076  33.0024910  52.3382797  42.5340691  32.2001190  52.9456291
  42.1622963  33.6263084  51.9212761  43.6643448  32.3699379  51.1135750
  43.8918495  33.0522041  50.1651726  43.9393768  31.0694675  51.1291084
  44.5347328  30.6967258  50.4033585  43.4404984  30.5775833  51.8566170
  43.1340370  34.5014458  54.3086662  42.2569847  35.2969856  53.9319687
  43.3812637  34.2489471  55.6204033  44.1477318  33.5998383  55.7266235
  42.6761627  34.7621727  56.8060913  43.1134682  34.2109871  57.6385994
  43.3210068  36.1278572  57.1809006  42.7249298  36.8670921  56.6458054
  43.1734505  36.2642250  58.2522202  44.7721252  36.3478661  56.9733734
  45.7722855  35.4655533  57.2178268  45.7498131  34.5495758  57.6427727
  46.9622116  35.9846992  56.8742142  47.9287834  35.5431709  57.0670662
  46.7224731  37.2509613  56.4060593  47.4001198  37.8609047  55.9714813
  45.3409157  37.4738350  56.4350624  44.7745590  38.3704414  56.2307663
  41.1430473  34.6352539  56.8713913  40.4649658  35.5306396  57.4081688
  40.6485367  33.5795631  56.2312851  41.3202972  32.9583244  55.8036194
  39.2324257  33.4761772  55.7832642  38.9832916  34.2911263  55.1036339
  38.8711739  32.2228127  54.9160423  38.8549118  31.3662148  55.5898933
  37.6039925  32.3391876  54.1467972  37.5955582  31.4456100  53.5226517
  36.8331032  32.3544044  54.9172516  37.6449471  33.2535286  53.5548515
  39.9074249  31.9732800  53.9449921  40.0206718  32.7534256  53.3971329
  38.2811852  33.4284325  56.9425926  38.5439873  32.6049461  57.8846321
  37.2006264  34.2726936  56.9549942  37.2000961  34.8941498  56.1588249
  35.9871902  34.0975990  57.8288269  36.0857201  33.3206787  58.5869789
  35.7052574  35.3674126  58.5514793  34.7718048  35.1149521  59.0545044
  36.3871994  35.4626198  59.3964615  35.4536591  36.6155396  57.5811996
  36.3510094  36.7058868  56.9690704  34.6187897  36.3736992  56.9234734
  35.3690605  37.9082985  58.4306335  34.8583183  37.6771812  59.3654213
  36.3469200  38.2976952  58.7139359  34.7902184  39.1662445  57.7699852
  33.9233513  38.7798233  57.2339592  34.4883423  39.9058762  58.5115471
  35.7750053  39.7738190  56.8294182  35.5268784  40.7476921  56.7288857
  36.7243195  39.7564812  57.1738129  35.8157539  39.3321114  55.9220428
  34.8512001  33.5663910  56.9670753  34.8328362  33.8659554  55.7666855
  33.9851570  32.6812096  57.5147018  33.8763123  32.2970734  58.9084663
  33.9389648  33.1240692  59.6157532  34.6679955  31.5998039  59.1826096
  32.5776215  31.5866127  59.1263885  31.8407459  32.3321838  59.4251213
  32.6793823  30.7986031  59.8725662  32.1730843  31.1426563  57.7325020
  31.0980453  30.9943275  57.6305695  32.6445427  30.1685143  57.6025620
  32.9341888  32.0868416  56.7577820  33.2869568  31.5054111  55.9059639
  32.0006752  33.1160355  56.1701164  31.3400803  32.8759117  55.1261940
  31.8408871  34.2991562  56.7636681  32.3299866  34.4979362  57.6246948
  31.0275040  35.4239998  56.2871017  29.9725285  35.1626930  56.2043190
  31.1683998  36.7278099  57.1211166  32.2164230  36.9601288  57.3102646
  30.8119469  37.6021767  56.5765686  30.6054688  36.7558212  58.5724335
  30.9933090  35.8850098  59.1009865  30.9349594  37.6599922  59.0843124
  29.1234550  36.8902664  58.6036949  28.5184002  35.9631882  58.0723267
  28.4528503  37.8044281  59.1741562  31.1560917  35.8371086  54.8626137
  30.1641655  36.1049957  54.1672478  32.4164810  35.9616089  54.3231125
  33.1484680  35.6802330  54.9596024  32.7343292  36.4310646  53.0151787
  32.1916466  37.3392220  52.7527885  34.2368088  36.8368607  52.9163399
  34.8227386  35.9757500  53.2377052  34.4070473  37.0818367  51.8679581
  34.4011917  38.0696526  53.8315697  35.1403732  37.9567795  54.8767509
  33.8417511  39.1473694  53.4312859  32.4319305  35.4378014  51.9412498
  32.3906288  35.8088303  50.7715797  32.2157097  34.1311073  52.3449669
  32.3149338  33.9136772  53.3262787  32.1931000  33.0059357  51.3636322
  32.9921455  33.2456093  50.6620712  32.4246788  31.6561718  52.0689507
  31.6238270  31.5816383  52.8045998  32.4730606  30.4814968  51.1060905
  32.6284752  29.5722084  51.6867294  31.5488853  30.4267330  50.5307655
  33.2715034  30.7113037  50.4005547  33.6674385  31.5623779  52.9430504
  34.5569153  31.6058712  52.3145256  33.7028847  32.4584427  53.5626564
  33.5523415  30.6970005  53.5957146  30.8544254  33.0554962  50.6406517
  29.8167667  32.6190186  51.1401672  30.8510056  33.4867401  49.3193245
  31.7900372  33.5657806  48.9559021  29.5858994  33.3901749  48.4421272
  28.7841492  33.9781837  48.8888245  29.8768692  33.9256248  47.0112038
  30.7777481  33.4010353  46.6928978  28.7618694  33.6186829  45.9874382
  27.8692379  34.1508484  46.3162537  29.1034966  33.8395271  44.9761925
  28.5703907  32.5461540  45.9539680  30.2170868  35.4321823  46.9880714
  29.2990875  35.9954453  47.1557579  30.9826355  35.7560730  47.6931458
  30.5274849  35.7732811  46.0004425  29.0752563  31.9723415  48.4360237
  27.8997631  31.7627544  48.6701736  30.0465279  31.0165825  48.2669487
  31.0162506  31.2966995  48.3026276  29.7976074  29.6051025  48.1711388
  29.2020741  29.4155579  49.0641747  28.8933716  29.4341145  46.9319801
  28.5156727  28.4146252  46.8539848  27.9259243  29.9262142  47.0319214
  29.4669247  29.7191601  45.5816841  30.1150551  30.5919342  45.6609955
  30.1025429  28.8570824  45.3794098  28.4433231  29.8031826  44.4875870
  27.2353992  29.8787766  44.6862564  28.8991394  29.6101151  43.3322563
  29.8084221  29.2244015  43.1212158  28.1845226  29.1847610  42.7591095
  31.0010815  28.7119522  48.0416451  32.1112213  29.1539001  47.9286766
  30.8960533  27.3687134  48.1346817  30.0254707  26.9569817  48.4390869
  32.0148277  26.3747139  48.0834961  32.8411255  26.9526711  47.6696053
  32.3958092  25.9132633  49.4872932  32.8137665  26.7858944  49.9892120
  31.5651951  25.5639343  50.1006012  33.4462662  24.7455826  49.5249672
  32.8739738  23.9221706  49.0976830  34.2831917  25.0002899  48.8747520
  34.0775986  24.2974625  51.1940308  35.2196312  25.7012634  51.5209732
  35.9813576  25.6469173  50.7432060  34.6203308  26.6079559  51.6037407
  35.7066727  25.5528202  52.4847450  31.5378380  25.1146603  47.2677803
  30.3998623  24.6742802  47.3907814  32.5114098  24.6342869  46.4389114
  33.4687576  24.9558716  46.4516716  32.4589157  23.5443687  45.5875816
  31.6146984  22.9013462  45.8364258  32.3562737  24.1135235  44.1175499
  31.5054417  24.7906704  44.0423546  33.2418671  24.7395916  44.0086441
  32.3627930  23.1569366  42.9558601  33.2817345  22.5712070  42.9319534
  31.0521164  22.2958851  42.8780479  31.0485573  21.5826168  43.7022705
  30.2030888  22.9252701  43.1447525  30.8394413  21.7857666  41.9385529
  32.2646675  24.1076546  41.6912498  31.4075642  24.7544498  41.8786812
  33.1521034  24.7392101  41.6501045  32.1459045  23.4690666  40.8159218
  33.7303429  22.7100964  45.7411652  34.8703651  23.1700459  45.5957642
  33.5641060  21.4051762  46.0966110  32.5911865  21.1940708  46.2667885
  34.4554710  20.3399239  46.0040474  35.4765549  20.7137241  46.0799637
  34.1983604  19.3853626  47.2199783  33.1201248  19.2721252  47.3326569
  34.6496468  18.4219685  46.9826698  34.9056931  19.7159081  48.5155983
  34.6433334  19.0730782  49.3558578  36.4274025  19.6755295  48.3796539
  36.7616081  20.5429173  47.8104019  36.8766365  19.8148594  49.3629494
  36.8502884  18.7633781  47.9586372  34.3987198  21.0907917  48.9262047
  35.0187035  21.7732525  48.3448563  33.3136711  21.1373577  48.8334694
  34.6677361  21.3008881  49.9613838  34.3079643  19.5594997  44.7749367
  33.2556419  19.5381413  44.1655159  35.4614868  19.0559597  44.3203888
  36.2605782  19.1242085  44.9343071  35.5889702  18.1515560  43.0967064
  34.6254921  17.7614002  42.7686996  36.0204315  18.9271431  41.8447685
  35.3813438  19.7886028  41.6509819  37.0592995  19.2480755  41.9213066
  35.8717003  18.0460911  40.7210922  36.5285606  18.3002892  40.0687752
  36.4876480  16.9582767  43.3781586  37.4376221  17.2257881  44.1430664
  36.1590805  15.7281408  42.9320374  35.4048233  15.7243395  42.2603378
  37.0995178  14.5907230  43.0304832  38.1137276  14.9412336  43.2218475
  36.7251816  13.7385511  44.2993240  35.6845970  13.4226770  44.2250977
  37.3600693  12.8640585  44.4417229  36.8411255  14.4034929  45.1551933
  36.9470978  13.6740713  41.7581902  35.8688164  13.4639235  41.1794319
  38.0984383  12.9847965  41.4820023  38.8744087  13.1064968  42.1169510
  38.2231979  11.9553957  40.3395081  37.7766266  12.4379759  39.4701424
  39.6994438  11.6284828  40.1172218  39.6477432  10.9135590  39.2960548
  40.5212898  12.8344994  39.6824989  40.4495697  13.6435547  40.4093971
  41.5730133  12.7023478  39.4284973  40.1688728  13.2521973  38.7394028
  40.3067703  11.0296755  41.2036362  40.8369484  10.2870083  40.9053726
  37.4716682  10.6343222  40.5398064  37.2471313  10.2943439  41.7440529
  37.0472755   9.7754269  39.5461617  37.0236053  10.1282396  38.0490036
  38.0078316   9.9731665  37.6070251  36.6509895  11.1278591  37.8253517
  35.9732513   9.1381502  37.5266037  36.1745872   8.8967533  36.4829102
  34.9742775   9.5740204  37.5135765  36.1265526   7.9270129  38.3282318
  36.8920898   7.2239871  37.9998894  35.1599503   7.4404459  38.4587364
  36.4421921   8.4342289  39.7123833  35.5582390   8.5972729  40.3289528
  37.2290001   7.3793221  40.4697990  36.9322853   6.2235680  40.4107475
  38.3701248   7.7274380  41.1322670  38.6160622   8.7018213  41.0313110
  39.2360992   6.8344803  41.9021721  39.2514000   5.8841281  41.3686028
  40.6342735   7.4848604  41.9541931  40.6038513   8.4538631  42.4524002
  41.2410927   6.8657026  42.6148872  41.3326302   7.7107444  40.6527138
  41.6122284   6.7558761  39.9440041  41.6231346   8.8942766  40.3482971
  38.7339554   6.6696725  43.3413391  39.2673645   5.8452244  44.0694351
  37.8204422   7.4718003  43.8715210  37.4512024   8.1966410  43.2728806
  37.4229355   7.6795230  45.2064171  37.8900337   6.9408622  45.8578033
  37.8707581   9.1195164  45.6125069  37.4672432   9.8123894  44.8741264
  37.4480896   9.3275709  46.5954437  39.3646011   9.3838272  45.6149712
  39.6663170   9.5163803  44.5759811  39.8006248  10.7129250  46.2210388
  39.2688637  11.5425119  45.7550812  39.5821457  10.8267174  47.2828369
  40.8577080  10.8591394  45.9989967  40.2478027   8.3183193  46.2257767
  40.0096092   7.3400793  45.8081589  41.3112183   8.5543251  46.1864014
  40.0283089   8.2037859  47.2872887  35.8683281   7.5899382  45.3720741
  35.1556816   8.2545061  44.6805229  35.3881187   6.7936378  46.3493614
  36.0123405   6.2668471  46.9434471  33.9230118   6.5019650  46.7015724
  33.3480682   7.2195792  46.1162720  33.6696014   5.1373940  46.0769386
  34.1607246   4.4515347  46.7672272  32.5954971   4.9800544  46.1751480
  34.0936050   5.0649319  44.6447868  35.3547249   4.7792468  44.2032204
  36.1710167   4.5578370  44.7552567  35.4031601   5.0271397  42.8953018
  36.2921143   4.8471074  42.3089981  34.2149963   5.3855219  42.4486847
  33.9617500   5.6788287  41.5159798  33.3721275   5.2968864  43.5374451
  32.3770828   5.7106180  43.6089668  33.5176392   6.5882654  48.1708069
  32.3324814   6.6662331  48.4570351  34.4690018   6.6396928  49.0834694
  35.4147682   6.3988090  48.8234634  34.1452866   6.3616853  50.4656410
  33.4174881   5.5620418  50.6034012  35.3318291   5.6794124  51.0614090
  36.1939621   6.3105450  50.8457565  35.3177261   5.6632638  52.1511993
  35.4637299   4.6434832  50.7490730  33.5770569   7.5101275  51.3583717
  32.9712486   7.2621994  52.3596992  33.5537605   8.7603226  50.8143539
  34.0930443   8.9193773  49.9753227  32.7677612   9.8751364  51.3452644
  31.7413101   9.5286865  51.4655647  33.2867126  10.4842806  52.6935806
  33.1168022   9.7267237  53.4586563  34.7596893  10.8401423  52.6368103
  35.1247978  11.2233286  53.5896759  35.3071060   9.9317369  52.3853416
  34.8211517  11.6133785  51.8710213  32.4906502  11.6588020  53.3105545
  32.8006516  12.6548891  52.9946327  31.4171009  11.5120440  53.1920090
  32.7160530  11.6233988  54.3764076  32.6701736  11.0144291  50.3372307
  33.6533165  11.1824846  49.6180191  31.7187061  11.9490280  50.3234291
  30.9382706  11.7415409  50.9300308  31.7720890  13.2355785  49.6528625
  32.0695801  13.1327105  48.6093025  30.3523540  13.9143057  49.5660324
  29.9535885  13.9746389  50.5786743  30.4766140  14.9149981  49.1521797
  29.3437462  13.1839371  48.6532745  28.3404179  12.3288851  49.1610374
  28.2186642  12.1192865  50.2134857  27.4264698  11.7157383  48.3037033
  26.8063774  10.9232883  48.6960144  27.4895821  11.9572554  46.9619102
  26.6998863  11.5332346  46.3594246  28.4891148  12.7894878  46.3953743
  28.4194641  12.9911280  45.3366508  29.4198742  13.3447313  47.3005371
  30.0374775  14.1309156  46.8920250  32.8106461  14.1956377  50.3737793
  32.5844612  14.5423975  51.5723343  33.8338585  14.7108240  49.7061195
  34.3464966  14.2282190  48.4869423  33.8493195  14.6276703  47.6029968
  34.3522377  13.1388283  48.5229301  35.8046379  14.6778440  48.3675690
  36.0530930  14.8573103  47.3215446  36.5209846  14.0282564  48.8705406
  35.7917824  16.0485477  49.1692657  35.3675461  16.8103657  48.5152321
  36.7550087  16.2895241  49.6189537  34.7848129  15.6492043  50.2726059
  35.3043938  15.0924482  51.0524521  34.2222481  16.9277039  50.9281693
  34.7931061  17.4495468  51.8942337  33.0526657  17.4274139  50.4872894
  32.6505585  16.9567432  49.6892433  32.2790604  18.4952927  51.0830650
  32.8308830  19.4159679  50.8934631  30.9377651  18.5892582  50.3025436
  30.1835747  19.0518742  50.9391632  31.1912384  19.0513992  49.3484573
  30.5250626  17.6156178  50.0383339  31.9565945  18.3110619  52.5948029
  31.7851639  19.2964077  53.3264160  31.8277073  17.0883904  53.0750122
  31.9578514  16.3462543  52.4024086  31.6830177  16.7736683  54.4951439
  30.6898880  17.0933285  54.8107529  31.7203159  15.2444973  54.6471481
  30.9556484  14.7639999  54.0368156  32.7209206  14.9335394  54.3468208
  31.3667927  14.7951469  56.1048660  32.1757622  15.1228848  56.7577515
  30.3848763  15.1660967  56.3986931  31.1909218  13.2622252  56.2344704
  30.4476471  12.9823799  55.4879265  32.1081009  12.7028809  56.0500298
  30.6886921  12.8246117  57.6333542  31.4076653  13.2276564  58.3466072
  29.7087383  13.2442017  57.8608017  30.4920502  11.3825426  57.7036438
  31.3570881  10.8737545  57.8174400  29.9578209  11.1248169  58.5211258
  30.0709152  10.8804951  56.9350777  32.6743622  17.5115509  55.3883781
  32.3482208  17.8615685  56.5237541  33.8257637  17.8660526  54.9661980
  34.0933647  17.6388397  54.0191689  34.8977890  18.3501186  55.8342972
  34.8179817  17.6639404  56.6774368  36.2118301  18.2413578  54.9892044
  37.0438156  18.8291435  55.3770370  36.6206284  17.2317963  54.9471397
  36.0843658  18.6946754  54.0061684  34.6953163  19.8021908  56.2457504
  35.4395676  20.3556290  57.0607948  33.6616173  20.4082508  55.7284966
  33.1051559  19.7481499  55.2043571  33.1335373  21.7124157  56.1993065
  34.0160942  22.3354416  56.3443642  32.3540535  22.4220028  55.0883827
  31.4709740  21.8018417  54.9345360  32.0448418  23.8316765  55.5938110
  31.5491219  23.8934937  56.5625954  32.9427605  24.4477425  55.6418304
  31.3809738  24.3400841  54.8945961  33.1254807  22.7330761  53.8404503
  33.9949188  23.3833275  53.9371681  33.3907928  21.7459927  53.4617996
  32.4354935  23.1216259  53.0914230  32.4716568  21.6555901  57.5768318
  32.5528183  22.5404987  58.3633690  32.0561752  20.4449692  58.0266647
  32.0085449  19.7214794  57.3235321  31.4742374  20.2015228  59.4052162
  30.7522640  20.9427757  59.7478561  30.7412796  18.8677979  59.4160957
  29.8772335  19.0172749  60.0635376  30.4472904  18.6092491  58.3988266
  31.5909767  17.6757469  59.9243889  32.4864044  17.6360035  59.3041229
  31.8718910  17.8666191  60.9601288  30.7541256  16.3873234  59.6640434
  29.7934837  16.5392647  60.1561661  30.5140800  16.2689075  58.6074181
  31.5524578  15.2364540  60.1390305  32.5192909  15.4251080  60.3620567
  31.1439095  14.1624966  60.8233643  29.8801956  13.9900665  60.9700356
  29.2671700  14.6941433  60.5845680  29.5764408  13.2804880  61.6214485
  31.9405479  13.3897400  61.3963356  31.6183205  12.4966116  61.7407112
  32.9194756  13.3524828  61.1505432  32.5435944  20.3228340  60.4698143
  32.1742859  20.4377289  61.6228600  33.8030243  20.4235630  60.1432419
  34.0093689  20.4011402  59.1548004  34.9135437  20.3038330  61.0912514
  34.5184746  19.7175694  61.9208984  36.0337944  19.5431442  60.3655090
  36.3791389  20.0911350  59.4888420  36.8495827  19.4470062  61.0819931
  35.8039360  18.0943279  59.8474541  35.0001183  18.1822052  59.1165276
  36.7074928  17.6580925  59.4215660  35.2902679  17.0828419  60.9121361
  35.5868759  17.2736187  62.0851898  34.4845734  16.1609249  60.6164856
  35.4713936  21.6445007  61.6302032  36.6217995  21.7257175  62.1593933
  34.7335930  22.7300625  61.4108276  33.7958298  22.4794083  61.1317635
  35.0545044  24.1372681  61.6955833  35.9209023  24.1296139  62.3569450
  35.4584427  24.8414803  60.3666611  34.5285606  24.9736977  59.8135414
  35.6747322  25.8706551  60.6532249  36.6019592  24.2084618  59.5720520
  36.4341316  23.1315136  59.5829391  36.6253586  24.5825253  58.1170311
  37.5755348  24.2791195  57.6774673  35.7233353  24.1353703  57.6992836
  36.6483154  25.6716080  58.1553879  37.9534492  24.4287148  60.2085991
  38.0363083  23.6741581  60.9908257  38.8120537  24.3634090  59.5402946
  37.9763069  25.4239101  60.6526299  33.8886337  24.8489685  62.4681358
  32.7709885  24.8314342  62.0240326  34.1369667  25.5716782  63.5273018
  35.0711136  25.4936466  63.9033051  33.1900291  26.4103260  64.2387695
  32.2495537  25.8656254  64.3218918  33.8628082  26.8007832  65.5974274
  33.9800110  25.9487476  66.2670517  34.7913589  27.3448715  65.4246140
  32.8858261  27.6144161  66.2755432  32.4547882  27.1259289  66.9806595
  32.9082336  27.6942482  63.4593506  33.7921524  28.4191151  63.0036583
  31.6483154  28.0715752  63.4023819  31.0212708  27.5136318  63.9641762
  31.1315269  29.1957874  62.6043282  30.2917252  29.7222481  63.0578423
  31.8688679  29.9978600  62.5709534  30.6895885  28.8916130  61.1899071
  29.9305878  29.6849957  60.6308556  31.0010357  27.7988758  60.5686760
  31.6401939  27.1892090  61.0584526  30.7637577  27.5536060  59.1211090
  30.8486118  28.4072475  58.4486542  31.9340668  26.7194633  58.5632935
  32.1243896  25.8507633  59.1935654  31.6914482  26.3919582  57.5523682
  33.3022690  27.4011841  58.3802986  34.0507889  27.9230595  59.4109840
  33.8137550  27.9686356  60.4636650  35.1101418  28.5848942  58.8920822
  35.8416595  28.9350758  59.4940376  35.1189613  28.5737152  57.4975204
  35.9974098  29.2076530  56.6240273  36.6972351  29.8999081  57.0683632
  35.8125153  29.0494099  55.2561150  36.3979874  29.6028061  54.5368271
  34.7419434  28.2237759  54.8300133  34.5183868  28.0930634  53.7815170
  33.8398170  27.5808678  55.7723274  32.9457130  27.0585804  55.4654236
  34.0416641  27.7518978  57.1984024  29.4393291  26.8779831  58.8120461
  29.1571846  26.6095161  57.6242294  28.4879570  26.7912502  59.7555084
  28.7780762  26.9866562  60.7030067  27.1363506  26.1372719  59.5497322
  27.2650566  25.0827408  59.3057938  26.3969574  26.1555691  60.8474541
  26.8635349  25.5414391  61.6176796  26.2891121  27.1892185  61.1761398
  24.9627380  25.6412067  60.8751907  24.4221134  26.2103004  60.1189117
  24.9364243  24.5770817  60.6405487  24.1903820  25.9131336  62.1541367
  24.7154484  26.4192657  63.1222878  22.8769741  25.8926678  62.1398544
  22.4475155  25.4907990  61.3187790  22.3829899  26.0176487  63.0118980
  26.4088326  26.7211628  58.3927116  25.7155437  26.0131187  57.7166595
  26.3858204  28.0348282  58.1439018  27.1161385  28.6002579  58.5525894
  25.4584942  28.5915775  57.1862259  24.6036434  27.9381618  57.0119362
  24.7976036  29.9165573  57.7486191  25.5031815  30.7319279  57.5891418
  23.8234348  30.0296078  57.2728958  24.4097652  29.8095055  59.2395210
  23.2467976  29.1223602  59.6375122  22.5394897  28.7840214  58.8947792
  22.9229393  29.0573120  60.9836197  22.0095177  28.5319386  61.2203636
  23.8225517  29.5380573  61.9749107  23.4455776  29.3294373  63.3082161
  22.7581444  28.6605263  63.3481483  24.9726830  30.2004414  61.5634956
  25.6234035  30.5237579  62.3625145  25.2212429  30.3990784  60.1857567
  26.0890808  30.9385853  59.8361893  26.1685200  28.8060722  55.8386383
  25.4692402  28.9807987  54.8456116  27.4902573  28.7311325  55.6966438
  27.9689369  28.4420547  56.5377121  28.1658955  28.5568466  54.3937683
  28.0461884  29.5353699  53.9287300  29.6433201  28.3467216  54.5001373
  29.8398380  27.4658909  55.1113815  30.4455624  27.9599590  53.2203979
  29.8116512  28.3067322  52.4043083  31.4796257  28.2914238  53.3149872
  30.4794216  26.8731728  53.1439209  30.3952961  29.5764732  55.0040894
  31.4210396  29.3209648  55.2699013  30.1964493  30.3772469  54.2918243
  29.9347401  29.8602009  55.9503937  27.6360855  27.3659859  53.5339813
  27.4262428  26.2796173  54.1411552  27.3399372  27.5529728  52.2137642
  27.2798424  28.8470745  51.4989128  28.3113213  29.1023140  51.2560043
  26.7390633  29.6294575  52.0313911  26.5392017  28.5125637  50.2105064
  27.3132420  28.4615192  49.4447670  25.8200741  29.2498112  49.8535347
  25.8515778  27.1478176  50.4588699  25.8195915  26.6245155  49.5032387
  24.8959942  27.2614288  50.9707832  26.8563805  26.4934864  51.3439751
  26.3472919  25.7986279  52.0118828  28.0404911  25.8266335  50.6626129
  28.9341507  26.4627991  50.0364265  27.9367504  24.5316639  50.6896591
  27.0925159  24.2412643  51.1619263  28.9017181  23.6589813  50.1173973
  29.7163639  24.2232361  49.6634407  29.4914761  22.7919006  51.2879295
  28.7329960  22.0185242  51.4091759  30.7727242  22.2118206  50.7400398
  31.5644970  22.9512901  50.6200981  31.0463371  21.4396534  51.4590607
  30.5446377  21.6323624  49.8454399  29.7001057  23.5625744  52.5975418
  30.5018444  24.2993126  52.5472527  28.8182640  24.1309891  52.8931122
  30.0444736  22.8157921  53.3129654  28.2663822  22.7777252  49.0396652
  27.1596184  22.2381687  49.2009850  28.9530239  22.3589611  48.0654984
  29.9227104  22.6391449  48.1016197  28.5080833  21.3589497  47.0377502
  27.7458782  20.7551727  47.5302963  27.9922047  21.9750614  45.7689972
  28.0168171  21.1924191  45.0107346  26.6282291  22.5402184  46.0803757
  26.6805859  23.2759228  46.8829308  26.2212734  23.0480576  45.2059708
  25.9955196  21.7118073  46.3989868  28.6495075  23.1644306  45.2788239
  28.9145241  23.6459122  46.0659332  29.7354221  20.4276352  46.6799660
  30.8890762  20.7473297  46.7639465  29.3885422  19.2044220  46.1922874
  28.4119301  18.9540482  46.1319237  30.3475208  18.3321476  45.5836143
  31.3301163  18.8027344  45.5496674  30.3100262  17.0172348  46.3352242
  30.2955399  17.2043476  47.4089432  29.4174252  16.4219589  46.1428375
  31.8187904  16.0804520  45.9017448  31.2435150  15.5284815  44.8296890
  29.9747658  18.1544552  44.0643845  28.8699627  18.2143974  43.6458015
  30.9503231  17.7158070  43.2562103  31.8495903  17.5855541  43.6971817
  30.6729794  17.1911259  41.8595047  29.7440071  16.6221352  41.8225861
  30.6018028  18.3572063  40.8598557  30.3905964  17.8617344  39.9122276
  29.7827892  19.0096436  41.1625786  31.8938160  19.2388496  40.9548111
  32.0479622  19.6342812  41.9587898  32.7504463  18.5842762  40.7941322
  31.9126263  20.5088615  39.6458817  33.5798836  20.9592762  39.9677124
  33.5734444  21.4174957  40.9566956  34.1613121  20.0401230  40.0398140
  33.9643021  21.6459904  39.2135582  31.8568020  16.2379665  41.4644547
  32.8556252  16.2087345  42.1492004  31.9021130  15.5381346  40.3496590
  31.0785503  15.4940615  39.7666473  33.0816727  14.6860495  39.9301071
  33.4994507  14.4769039  40.9149017  32.5238647  13.4721279  39.0706673
  31.6287136  13.1001368  39.5690918  32.1753693  13.6572876  38.0546150
  33.4261436  12.2493496  38.9118538  33.1953087  11.7649822  37.9630623
  34.4750519  12.5450630  38.8906403  33.2165031  11.2024221  39.9913635
  32.2611580  10.4431000  39.9500542  33.9821854  11.1786356  41.0184708
  34.7156410  11.8712940  41.0671158  33.8316383  10.4595976  41.7115936
  34.0857582  15.5020399  39.0282898  33.6240349  16.3389988  38.2468758
  35.3531609  15.1861601  39.0115356  35.6582794  14.4209995  39.5959435
  36.3121185  15.6452084  37.9460182  36.1081009  16.7061977  37.8018684
  37.6894722  15.6774673  38.4641342  37.7330017  15.7814093  39.5482903
  38.1878014  14.7272806  38.2720070  38.6316795  16.7538185  37.7060280
  39.6496887  16.3829823  37.5866585  38.2568321  16.7903214  36.6831589
  38.7470627  18.1066093  38.4088020  39.4920540  18.9462795  37.9085655
  38.1888885  18.1662178  39.5493088  36.3459435  14.9091949  36.5767670
  36.3738289  13.6627102  36.6351242  36.3097839  15.5674686  35.4148598
  36.0816460  16.5506554  35.4522400  36.6323586  15.0634756  34.0848427
  35.8627129  14.3591423  33.7691536  36.6542320  16.2871246  33.1576195
  35.6912575  16.7846737  33.2726364  37.4426689  16.9504700  33.5132027
  36.9355278  15.8077192  31.7595577  37.9079895  15.3168802  31.7982368
  36.1286392  15.1664619  31.4048500  37.1324081  17.2087593  30.6437092
  38.1149864  16.5000420  29.2934914  37.3752670  16.0743790  28.6154537
  38.4326744  17.3674603  28.7149086  38.9050255  15.8380013  29.6479530
  37.9142342  14.2621107  34.0341415  38.9752197  14.7446814  34.4452629
  37.8444710  13.0190248  33.6082115  36.9044418  12.6854506  33.4495506
  38.9448547  12.1826410  33.2205162  39.7148743  12.0550299  33.9813576
  38.5349884  10.7630310  32.9086685  38.0722351  10.6835003  31.9249859
  39.4103279  10.1147499  32.9488754  37.6093140  10.0502129  33.9040756
  37.6397438  10.3918381  35.1144867  36.9768257   9.0271358  33.4997025
  39.7435265  12.8270788  32.1121635  39.2050667  13.0799608  31.0119343
  41.0574722  12.7062693  32.2884865  41.3505440  12.3697844  33.1945686
  42.0515556  13.0026875  31.2806740  41.5671501  13.1655827  30.3179054
  42.7963333  14.3025055  31.6275921  43.2511024  14.2966337  32.6181755
  43.9613533  14.5604982  30.6315937  44.7838974  13.8501415  30.7147636
  43.4768105  14.3191357  29.6855145  44.4152222  15.5449324  30.7455769
  41.8530197  15.4915390  31.5808659  42.4192352  16.4104939  31.7326202
  41.4135704  15.5870304  30.5879574  41.1235695  15.3203182  32.3725014
  42.9356232  11.7393866  31.1892967  43.1412735  10.9672184  32.1345940
  43.4136848  11.5088453  30.0318527  43.2202415  12.1654491  29.2891865
  44.4213142  10.4929695  29.7005367  44.1489525   9.5662098  30.2055454
  44.4302444  10.0921211  28.2227707  45.0102959  10.8379269  27.6792526
  45.1564713   8.7589521  27.9902096  45.2987213   8.5049086  26.9398098
  46.1757698   8.7842817  28.3755627  44.4841042   7.9972773  28.3850136
  43.1635895  10.0166941  27.5984554  43.3178291  10.1288967  26.6575928
  45.7085037  10.9341211  30.2765484  46.3281403  11.8029203  29.6907005
  46.1527863  10.3365040  31.3493900  45.6441040   9.5008240  31.6003532
  47.2431526  10.7400923  32.2855225  47.7814255   9.8557215  32.6264801
  47.9371414  11.2675648  31.6311092  46.7774239  11.6219053  33.4545593
  47.6981621  11.9479799  34.2006226  45.4966812  12.0097265  33.7172585
  44.7809105  11.6405354  33.1077766  45.0543900  12.8936510  34.7766151
  45.4572067  13.8985109  34.6497154  43.9670563  12.9604893  34.7400055
  45.4850464  12.3215008  36.1511307  45.6222267  11.1250095  36.3224068
  45.7989845  13.2202196  37.0656700  45.6187096  14.1976023  36.8858757
  46.3498230  12.8016663  38.3659744  47.1233597  12.0388060  38.2777367
  46.8265762  14.0414419  39.1429787  47.6252365  14.5305080  38.5852509
  45.9624062  14.7052698  39.1175957  47.2315979  13.8546734  40.6579666
  46.4019623  13.3538141  41.1569099  48.4902573  12.9750204  40.7645493
  49.1923676  13.4968081  40.1142616  48.8176460  12.9736481  41.8042183
  48.3564758  11.9861994  40.3258743  47.5497055  15.2353687  41.2264595
  48.2892914  15.7187262  40.5881157  46.6682205  15.8764238  41.2147713
  47.9152184  15.1832209  42.2520218  45.2237091  12.1144629  39.1674881
  44.1958809  12.7542706  39.5501785  45.5774841  10.8497391  39.4895744
  46.4593010  10.4748459  39.1702652  44.7069817   9.8486681  40.2417221
  43.6741257   9.9342928  39.9041176  45.2024765   8.3869963  39.9294434
  46.2922859   8.4074039  39.9312973  44.8430405   7.6935010  40.6896858
  44.6343842   7.9793649  38.5594292  43.5485229   8.0084982  38.6497383
  45.0530014   8.5920954  37.7610435  45.1607437   6.5283194  38.3651466
  46.2462273   6.6114526  38.3111000  44.9497643   5.9145741  39.2408752
  44.6400299   6.1217818  36.9628410  43.5618515   6.1050849  36.8036232
  45.0776901   6.6740026  36.1312141  45.0538788   4.7247767  36.6537895
  44.4055824   4.1472435  37.1697960  44.9896278   4.5634193  35.6588287
  45.9804535   4.5576134  37.0193253  44.6181831  10.1751585  41.7795029
  45.4788933  10.8507557  42.3202209  43.5248108   9.7307196  42.4427376
  42.8134880   9.4429913  41.7859802  43.2419777   9.7954512  43.9155006
  42.1984825   9.5151815  44.0592537  44.0287094   8.8034163  44.7234612
  45.0485268   9.1844664  44.6698837  43.8122520   8.8712921  45.7895966
  44.0322723   7.3143616  44.3262978  43.0458527   6.8506136  44.3224602
  44.3832626   7.1778550  43.3034248  44.8659630   6.5463090  45.3721352
  45.9048195   6.8597183  45.4753647  44.3999519   6.7363868  46.3389893
  44.6928673   5.0659685  45.1377983  45.3400421   4.5763178  45.8654671
  43.6575012   4.9006104  45.4357567  45.0197830   4.5090756  43.8537064
  45.9686813   4.7440939  43.5998192  44.9559135   3.5033553  43.9211617
  44.3229446   4.8194890  43.1917725  43.2682343  11.2922678  44.4168854
  43.7083359  11.6221762  45.5443993  42.7582626  12.2296000  43.5903969
  42.3819199  11.8605671  42.7288399  42.8413277  13.6319456  43.8783455
  43.4878998  13.8417883  44.7304039  43.4842949  14.1851168  42.5939941
  44.4615631  13.7591743  42.3667984  42.7566261  13.9916258  41.8058548
  43.4578743  15.9633808  42.6033325  42.9242477  16.2814713  41.4205551
  41.3931007  14.2040043  44.1832962  40.2874794  13.7081089  43.8231316
  41.4893875  15.2893047  44.9620590  42.4346008  15.5046730  45.2454071
  40.4490967  16.1107521  45.5324631  39.4736977  15.9065847  45.0908508
  40.3710785  15.9324627  47.0972023  41.3916016  16.1248665  47.4282951
  39.3855400  16.8739147  47.8328819  38.3513908  16.7635670  47.5066032
  39.3452187  16.6671658  48.9023361  39.6473312  17.9257488  47.7179642
  40.0941353  14.5081139  47.5824127  39.0266418  14.3093224  47.4873505
  40.7413139  13.8737707  46.9767113  40.3073044  14.2443962  49.0664978
  39.6169701  14.8047380  49.6970100  40.2346230  13.1577110  49.1104584
  41.3324547  14.5332975  49.2982483  40.9020157  17.5599117  45.2224541
  42.0508423  18.0188255  45.2644997  39.8516922  18.3596497  44.8910294
  38.9340553  17.9435577  44.9611206  39.9339867  19.7880249  44.5194817
  40.8411598  20.1572399  44.9978333  39.8998680  19.9854259  42.9523811
  39.1554298  19.2830696  42.5774040  39.6774483  21.0446129  42.8229103
  41.2101669  19.6592522  42.2810135  41.9660568  20.3061619  42.7262535
  41.4716339  18.6231899  42.4962234  41.1408424  19.8228035  40.7304039
  40.2264328  19.4821072  40.2447243  41.3100090  20.8825436  40.5395241
  42.2361183  19.1230030  40.1041756  42.9853668  19.7789116  39.9353218
  42.4190369  17.8742466  39.7081337  41.3746376  17.0457726  39.7182503
  40.4761505  17.4655933  39.9095039  41.4695091  16.1470966  39.2671585
  43.6101685  17.4710884  39.1965866  44.3604813  18.1469879  39.1795158
  43.5712395  16.5872097  38.7094040  38.8592415  20.7756176  45.1081276
  37.6860619  20.4879322  45.0647087  39.3739281  21.9032879  45.5379562
  40.3040352  22.1068687  45.2009811  38.6204109  23.0332756  46.0836105
  37.6210709  22.6577377  46.3036003  39.2681084  23.6182613  47.3349419
  40.3266106  23.8478928  47.2126389  38.5900536  24.8486252  47.8869247
  38.6309471  25.6868935  47.1914139  37.5517349  24.6757927  48.1699867
  39.2054787  25.0104961  48.7718811  38.9509468  22.5611687  48.4156227
  39.4397850  22.7640934  49.3684883  37.8727989  22.5843391  48.5742455
  39.3271713  21.5872650  48.1024666  38.3495522  24.0960007  45.0392227
  39.3004913  24.3889694  44.2858734  37.1762161  24.6413422  45.0027733
  36.4288788  24.0843334  45.3917809  36.8672180  25.9494514  44.4418831
  37.7906761  26.5056210  44.2806206  36.1428452  25.7740765  43.0595207
  36.6654892  25.1811447  42.3089371  35.2800522  25.1405201  43.2651749
  35.8664131  27.1200924  42.3697205  35.0892639  26.9135418  41.6338615
  35.3590660  27.8027706  43.0513763  37.1867485  27.9604950  41.4424858
  36.7943459  27.2671127  39.7956772  35.8250694  27.6761360  39.5105362
  37.4899368  27.5688477  39.0125961  36.6822166  26.1962261  39.9651756
  35.9217262  26.6642075  45.4517479  34.7355156  26.4075890  45.6164093
  36.4953232  27.5871811  46.1916580  37.4975548  27.6280365  46.0734940
  35.8295135  28.4801579  47.1171341  34.8538666  28.0768452  47.3883667
  36.6620445  28.4123249  48.3771400  36.8050423  27.3572140  48.6103630
  37.6283989  28.8635464  48.1520462  35.8682175  29.1226273  49.4559555
  35.7261658  30.1660423  49.1745148  34.9491692  28.5483761  49.5730057
  36.6728973  29.0081635  51.0691490  38.0862999  30.0943890  50.8591309
  37.7374649  31.1268692  50.8392143  38.7611694  29.9337273  51.6998672
  38.6227760  29.8039722  49.9558334  35.5640678  29.8645802  46.5936432
  36.4985390  30.4235535  45.9989204  34.4092903  30.4692364  46.7078133
  33.6609039  30.0061436  47.2033539  34.2041054  31.8425941  46.1980743
  35.1127968  32.1800537  45.6995773  33.0036736  31.8727741  45.1430054
  32.0601730  31.5847015  45.6066017  32.8650093  33.2738686  44.4987717
  32.5215492  34.0530090  45.1792679  33.8371735  33.6580696  44.1899261
  32.2161751  33.3054771  43.6234894  33.1463165  31.0589561  44.0093346
  33.0582695  30.1509838  44.3083878  34.0142899  32.7278595  47.3915215
  33.2463455  32.3593102  48.2762642  34.6446762  33.8699760  47.4480286
  35.2230492  34.0882416  46.6493149  34.7190208  34.8612518  48.4967880
  33.8785362  34.7654915  49.1841812  35.9697304  34.8192101  49.3502235
  35.8471222  35.4074364  50.2596550  36.3613625  33.3925896  49.7278328
  37.2886734  33.4470444  50.2981224  35.5321350  32.9749908  50.2988777
  36.6131287  32.7224197  48.9058876  37.1938095  35.3867950  48.5548134
  38.0664520  35.3428955  49.2064743  37.2507477  34.8043709  47.6352234
  37.0319328  36.4465904  48.3579750  34.5795670  36.3331490  47.9772911
  34.8783379  36.5374489  46.8177681  34.2777138  37.3347015  48.8585663
  33.9062729  37.1322708  49.7757111  34.6711273  38.7336006  48.5514488
  34.6508369  38.8410873  47.4669533  33.6386070  39.6848221  49.0579872
  33.8906517  40.6520691  48.6232414  32.6900787  39.5299339  48.5437851
  33.4328842  39.9035301  50.5185394  32.9712143  38.9820137  50.8731728
  34.4219398  40.1016655  50.9315987  32.4421234  40.9866905  50.9966698
  32.2382088  42.0287514  50.4174919  31.8059559  40.7795181  52.0669365
  32.1385422  39.9741936  52.5777550  31.1712570  41.4487114  52.4785728
  36.0696144  39.0499573  49.0637054  36.4955101  38.7125206  50.1618195
  36.8722649  39.6747169  48.2306061  36.5463753  39.9731445  47.3223991
  38.3147354  40.0841980  48.5869865  38.1504822  40.4385948  49.6045952
  39.3340988  38.9324074  48.6491585  38.9939117  38.1984634  49.3797073
  39.6571198  38.2557793  47.2993965  40.3159485  37.4112091  47.5012436
  38.7083702  37.9050903  46.8931999  40.2037277  38.8999634  46.6106682
  40.5088463  39.5412331  49.0098495  40.4733582  39.5593452  49.9690208
  38.8229713  41.2500572  47.7627640  38.5673294  41.3289642  46.5911293
  39.6935883  42.1665268  48.3169022  40.0692329  42.0062866  49.2406578
  40.5001907  43.1682968  47.5952950  40.0428314  43.3053818  46.6154327
  40.3522873  44.5014420  48.3075638  41.0473099  45.1646881  47.7926331
  39.3468857  44.9147110  48.2270470  40.8798790  44.5205650  49.7444534
  41.1438980  43.4553413  50.2991905  41.0726357  45.6358070  50.2641640
  41.9367294  42.7940483  47.3732033  42.8398094  43.6233597  47.0302124
  42.2323837  41.5117645  47.5335236  41.5258369  40.8145790  47.7201309
  43.5905418  40.9118423  47.1005783  44.3014374  41.6398621  47.4913597
  43.9862709  39.6092262  47.8722038  43.2262726  38.8338127  47.7760925
  45.3353920  39.0741310  47.3429909  45.9768944  39.9478226  47.2278748
  45.8019562  38.4001541  48.0614433  45.1350899  38.7061615  46.3367195
  44.2474709  39.8637581  49.3445015  43.3315697  40.2189789  49.8167725
  44.3859596  38.8612709  49.7493973  44.9707108  40.6688995  49.4740181
  43.7364044  40.7247314  45.5473747  42.8013954  40.1043472  45.0239792
  44.6600189  41.3689423  44.7916260  45.6120529  42.3551826  45.1509933
  46.5665359  41.9323921  45.4645348  45.1957550  42.9261246  45.9809456
  45.7360382  43.2357864  43.9986267  46.7449875  43.6456108  44.0451508
  45.0982971  44.1189804  44.0354195  45.4439659  42.4391365  42.7545547
  46.2625923  41.8476982  42.3444939  44.9165688  43.0063667  41.9876099
  44.4628792  41.4115906  43.3631630  43.4378128  41.6805153  43.1081505
  44.6414642  39.9510498  42.7736473  45.1959000  39.0955582  43.4761963
  44.1421585  39.7026596  41.5586739  43.7028427  40.4475746  41.0369453
  43.9276009  38.3393555  41.0525970  43.1640053  37.8433571  41.6517677
  43.3312836  38.4764977  39.6488037  42.5419121  39.2277870  39.6252174
  44.1661110  38.6537209  38.9707527  42.6572571  37.2301521  39.1184387
  43.3999023  36.4679451  38.8825912  41.9210854  36.8826370  39.8432693
  41.9864540  37.3563042  37.7398376  42.6708107  37.7264557  36.8262825
  40.7482147  36.9928818  37.4864044  40.1156044  36.7221718  38.2257462
  40.3578186  37.1621246  36.5704117  45.1144943  37.3892784  41.0480881
  44.9561157  36.1868896  41.3989525  46.2800827  37.9887199  40.7642021
  46.3011780  38.9936371  40.6652145  47.5621071  37.2114830  40.5098495
  47.2123184  36.2461472  40.1439629  48.3899193  37.9565392  39.3661842
  49.1087036  37.2381134  38.9720802  47.6693535  38.3034706  38.6255608
  49.1433029  39.1957207  39.8619041  50.2298012  39.5528107  39.3064346
  48.5677986  39.9419823  40.6178360  48.4617157  37.0273170  41.7722435
  49.5455437  36.4312477  41.7197647  47.9282875  37.4419250  42.8804817
  46.9926529  37.8221779  42.8707657  48.6407394  37.2833748  44.1809807
  49.3983192  36.5174217  44.0151825  49.3097153  38.6315575  44.5139389
  49.8739319  38.5082855  45.4383659  49.9757233  38.8579330  43.6813011
  48.3347397  39.8324852  44.6450996  47.4527550  39.6631546  44.0274200
  47.9131927  39.8402176  45.6502533  48.8822060  41.2138672  44.3048363
  49.3034897  42.0096779  45.1550407  49.0774460  41.5184288  43.0118599
  48.7463036  40.9426498  42.2509918  49.4158287  42.4519196  42.8269424
  47.8341141  36.6271973  45.2765083  48.1593857  36.7375031  46.4565353
  46.8797760  35.7994385  44.9179535  46.8050842  35.6679497  43.9193306
  46.0266228  34.9856911  45.7830429  45.8274040  35.5435181  46.6980515
  44.6690102  34.7602234  45.1282845  44.7627449  34.2194672  44.1865311
  43.6714859  33.8513298  45.9640694  42.8170586  33.6553421  45.3162689
  44.1727409  32.8910294  46.0851974  43.3682785  34.3072548  46.9065666
  43.9855652  36.1634674  44.7896614  43.7773590  36.7505684  45.6841240
  44.6313858  36.6146011  44.0363350  42.6108246  36.0004387  44.1636009
  41.9185638  35.7196198  44.9573326  42.2536201  36.9484940  43.7614861
  42.7439232  35.2140274  43.4206734  46.7831802  33.7399559  46.2810211
  47.5716515  33.1090240  45.6212006  46.6384087  33.4329414  47.6214180
  46.0416451  34.0366821  48.1686554  47.2156525  32.2120056  48.2782135
  48.1790047  31.9745255  47.8269310  47.6414032  32.4473686  49.7636490
  46.8871346  33.1103249  50.1875191  47.7163773  31.4909267  50.2810402
  49.0073891  33.2037392  49.5463600  49.7382050  32.6136475  48.9933586
  48.8685493  34.2320709  49.2126656  49.6141434  33.3845139  50.9030571
  48.9233398  34.0058708  51.4729729  49.7884254  32.3907700  51.3156052
  50.8907814  34.1224022  50.8541527  51.1924820  34.6404572  50.0413208
  51.6966019  34.3743057  51.8815308  51.5047379  33.8164673  53.0557976
  52.2167168  34.0799179  53.7219696  50.9022255  33.0184631  53.1981697
  52.6328430  35.1816635  51.7783203  53.2695084  35.2901497  52.5548515
  52.8283920  35.4967766  50.8388710  46.2513390  31.0476646  48.0227127
  45.5725746  30.5231934  48.8703918  46.2788353  30.6267948  46.7740631
  46.9908180  31.0411186  46.1896706  45.7789421  29.2812901  46.3968773
  44.7501106  29.2861786  46.7568512  45.8072090  29.1909943  44.8603134
  46.7893639  28.9993858  44.4281578  45.1367149  28.3610554  44.6372910
  45.1313515  30.3535633  44.2619438  43.7020264  30.5178928  44.1441994
  43.5400848  31.4959602  43.2389641  42.5963173  31.7644196  42.7877045
  44.7177696  31.9828796  42.8778114  44.7735405  32.7793083  42.2591934
  45.7644234  31.2881699  43.4416962  46.8138962  31.3998547  43.2124977
  46.7188950  28.2019939  47.0383072  47.9122620  28.3517551  47.0741310
  46.1957741  27.0991688  47.6379700  45.1899300  27.0128727  47.6074448
  47.0095825  26.1612129  48.3980598  48.0276642  26.5262051  48.2624550
  46.6511421  26.2360592  49.8781548  45.5682373  26.2153950  50.0005913
  47.2409973  25.1162415  50.7219849  46.9369965  24.1716595  50.2709465
  48.3297348  25.1491108  50.6811104  46.9212265  25.1590633  51.7631454
  47.1448669  27.5230408  50.4784813  46.5598030  28.3472614  50.0704880
  46.9384727  27.5623550  51.5480423  48.1776505  27.7549000  50.2182884
  47.0451393  24.7822609  47.7862129  46.0921745  24.3386784  47.2644386
  48.2475281  24.1596088  47.6569443  49.0507240  24.7129555  47.9192085
  48.4902115  22.9102192  46.9267960  47.5470123  22.3718796  46.8336983
  49.2220573  23.2564182  45.6287155  50.0859756  23.8914928  45.8247452
  49.7089577  22.3607922  45.2428627  48.2949944  23.6806507  44.4836540
  47.6860123  24.9776630  44.4789963  48.0336647  25.6992664  45.2034454
  46.7348785  25.3388481  43.5414848  46.1660423  26.2569027  43.5414352
  46.2904091  24.4064255  42.5832176  45.3239365  24.7658577  41.6983185
  45.0549889  24.2551193  40.9312363  46.8891068  23.1286469  42.5193253
  46.4108620  22.4329090  41.8458023  47.9227524  22.7676353  43.4205742
  48.3889465  21.7946377  43.3721886  49.3924637  22.0197506  47.8192940
  50.4926758  22.4276600  48.1225891  48.9578400  20.8076286  48.1577454
  48.0593681  20.4908524  47.8223343  49.5465279  19.9196472  49.1749573
  50.6134186  20.0740452  49.3362198  48.6375923  19.9818478  50.4037590
  47.7062988  19.4541950  50.1979141  49.1147118  19.5350666  51.2760239
  48.2881241  21.3878613  51.0291100  47.8805199  22.0777969  50.2902260
  47.2547455  21.2633514  52.1982422  47.1178131  22.1977615  52.7425194
  46.3225594  21.1352291  51.6480446  47.4565468  20.4359760  52.8785553
  49.5141029  22.1114979  51.5265656  50.3376808  22.1597061  50.8141823
  49.1837883  23.0975132  51.8533134  49.9509354  21.5049610  52.3199120
  49.5368233  18.4585075  48.6029510  49.2298851  18.1775150  47.4925804
  50.0089455  17.5561352  49.5376740  50.2954407  18.0087910  50.3939018
  50.3300514  16.1331596  49.2973022  51.0000954  15.7199669  50.0512352
  49.0123100  15.2860699  49.4973793  48.2363243  15.7448368  48.8846092
  49.1625443  14.2314587  49.2664604  48.5043335  15.3292542  50.9151421
  47.7886429  16.1092453  51.1749496  48.0434914  14.3503342  51.0471992
  49.6272926  15.3344040  51.9659729  50.4452019  14.3929529  52.0702019
  49.5931244  16.2859211  52.7076836  51.1498985  15.8450022  48.0222549
  52.2680588  16.3644333  47.8963814  50.6904755  14.9319553  47.1449776
  49.8873558  14.3344374  47.2794113  51.3308792  14.8171234  45.8030357
  52.3947411  14.9307766  46.0113220  51.0567055  13.4356623  45.0963745
  50.0141220  13.1663857  45.2655029  51.2377472  13.5220833  44.0249939
  51.9708519  12.3356676  45.6439209  53.0215149  12.6111765  45.5527954
  51.7717628  12.0832272  46.6854286  51.7023354  11.0683308  44.7885704
  50.6386871  10.8317204  44.7608337  51.9838867  11.3044834  43.7623825
  52.5179405   9.8505516  45.2785225  52.6317101   9.1608133  44.4422112
  53.5067291  10.2443218  45.5137749  51.9606590   9.3634834  46.5415039
  52.3833199   8.4794846  46.7864609  52.2454376  10.0276327  47.2471313
  50.9697266   9.1723709  46.5011024  50.7693138  15.8564043  44.7668419
  51.3934402  16.0050278  43.7110252  49.6928368  16.5362568  45.0458450
  49.2620125  16.4295139  45.9530907  49.0932159  17.4755802  44.1458511
  48.9845734  17.0741291  43.1383133  47.6540451  17.7994404  44.6195221
  46.9682465  16.9721336  44.8021317  47.6596375  18.3462620  45.5624199
  47.2106781  18.3614311  43.7975159  49.8594704  18.7955742  43.9725342
  49.6611938  19.5731087  43.0910797  50.8983231  18.9914799  44.7839737
  51.2154655  18.3360157  45.4838943  51.8722076  20.0590858  44.5503731
  51.3311768  21.0033035  44.6123390  53.0418358  19.9568672  45.5621758
  53.7365685  20.7752209  45.3731308  52.6519432  20.0568428  47.0538673
  52.1112022  20.9993706  47.1396065  51.9283257  19.2957211  47.3457108
  53.5699081  19.9465828  47.6311722  53.8243370  18.5899677  45.4703140
  54.4979515  18.5497971  46.3263092  53.0798492  17.8130302  45.6441116
  54.2908363  18.4896584  44.4903069  52.4152565  20.0379791  43.0815239
  52.6618729  21.0851498  42.5854721  52.4305153  18.8883820  42.4173126
  52.0489044  18.1109753  42.9370384  52.8214951  18.6826591  41.0650787
  53.8651237  18.9916821  41.0063705  52.7076645  17.2251873  40.7015915
  53.3346672  16.6984730  41.4209976  51.2903290  16.6255093  40.6899223
  50.6151886  17.0690079  39.9580879  51.3176308  15.5889015  40.3540611
  50.8312340  16.8058128  41.6619415  53.3353462  16.9482918  39.3192520
  52.5880432  17.1051464  38.5414124  54.2002716  17.5699501  39.0878410
  53.5365410  15.8835602  39.4374390  51.9461327  19.6194763  40.0987778
  52.4324226  19.8911304  39.0201416  50.7223091  19.9783821  40.4716759
  50.3533020  19.5745449  41.3207054  49.9392624  20.7168674  39.5281258
  50.0946388  20.3171177  38.5260506  48.5043716  20.4535904  40.0547485
  48.4382057  20.8349590  41.0737076  47.7924309  21.0412922  39.4752159
  48.0002785  19.0001850  40.1015358  48.6526794  18.3774090  40.7136002
  46.5732956  19.0704231  40.7259026  46.6130829  19.6052170  41.6748543
  46.0169449  19.6579742  39.9955902  46.1427078  18.0751114  40.8356590
  47.6569672  18.3347836  38.7234268  48.5566559  18.0580387  38.1738129
  47.0470619  17.4467602  38.8893547  47.0282516  18.9764385  38.1061020
  50.2493515  22.2368698  39.4233437  50.0080299  22.8479500  38.3846893
  50.8706779  22.8142891  40.4508171  51.0252037  22.1640739  41.2080765
  51.3546371  24.2061291  40.5217056  51.3749123  24.5922890  39.5026016
  50.3575592  25.0080299  41.3429108  50.3612976  24.5667725  42.3395958
  50.8396378  25.9806767  41.4412041  48.9915352  25.1491871  40.5973167
  48.5726891  24.1804504  40.3248901  48.3626633  25.5893745  41.3711739
  48.9541626  26.0901699  39.3914337  49.4307899  25.5803165  38.5541916
  47.9565964  26.2438507  38.9799194  49.6341438  27.3981514  39.5682373
  50.6118202  27.2579250  39.3570900  49.1798058  28.6369076  39.7818794
  48.1235352  28.9601097  40.4129715  47.8460121  29.9299049  40.4637909
  47.3292770  28.3734035  40.6251717  50.0178032  29.6091671  39.4036407
  49.8764458  30.4861336  39.8843155  50.8865051  29.4447479  38.9153557
  52.7387390  24.2350597  41.1400948  52.9027138  24.7555027  42.2568398
  53.7831154  23.8107052  40.4153824  53.7516708  23.3613110  39.0531845
  53.2723541  24.1598148  38.4868393  53.1622124  22.4477215  38.9757576
  55.2232361  23.1775150  38.5575638  55.5886116  24.0549793  38.0240288
  55.4177322  22.2683983  37.9885483  56.0466843  23.1911564  39.8549843
  57.0584030  23.5612392  39.6889381  55.8658676  22.1756763  40.2074089
  55.1739998  24.1094456  40.8086853  55.3525734  23.8045635  41.8398285
  55.6110344  25.5731049  40.7855263  56.7306137  25.9248924  41.1298561
  54.7459373  26.4660530  40.3898849  53.8247566  26.1872787  40.0836105
  54.9408455  27.9375763  40.5780602  56.0072823  28.1601143  40.6139679
  54.3659134  28.6920757  39.3242569  54.3978462  29.7685280  39.4925804
  55.0341873  28.5220432  38.4800987  52.8969765  28.3677311  38.9408646
  52.3749809  27.3499699  39.4030571  52.2545547  29.0757332  38.2099152
  54.3742561  28.4752731  41.8786354  54.7234726  29.6227016  42.1961746
  53.6983299  27.5864124  42.6642876  53.6788559  26.6532688  42.2783241
  53.3195343  27.8335381  44.0732002  53.5895004  28.8422718  44.3857269
  51.7881241  27.6302376  44.4277992  51.5836830  26.5804462  44.2174568
  51.7106628  27.8226337  45.4978867  50.8180466  28.4712276  43.5644646
  50.9723930  28.2677193  42.5048141  49.3789253  28.1928749  43.8723907
  48.8134689  28.6510849  43.0609741  49.2159004  27.1196442  43.7738991
  49.1943741  28.5451565  44.8872528  51.0156288  29.9892921  43.7635155
  50.0792542  30.4995480  43.5377960  51.3215942  30.1304626  44.8001251
  51.8362770  30.3809757  43.1625023  54.2439461  27.0414124  45.0254021
  55.0049858  27.6821251  45.6815414  54.1041679  25.7191982  45.1494255
  53.4460335  25.2869434  44.5168800  54.8745804  24.7467079  45.9663086
  54.6713753  24.8407726  47.0330620  54.4062996  23.3389969  45.6674957
  53.3397064  23.2300034  45.8639526  54.7531624  23.0105991  44.6877289
  55.0271568  22.5484638  46.6684418  55.7071457  21.9986629  46.2722931
  56.3812332  24.8789291  45.6916618  56.9355888  24.7303505  44.5776558
  57.1455116  25.1625366  46.7660904  56.6241493  25.3074036  47.6189079
  58.5969505  25.2810764  46.8886642  58.7658577  25.8957214  47.7728539
  59.3884468  23.9301128  46.9001846  59.1992264  23.2471066  46.0720520
  60.4671669  24.0646515  46.8204308  59.2513924  23.1034679  48.2478294
  58.1873169  23.0487766  48.4777260  59.7068291  21.6803474  48.0107231
  59.1332550  21.2981644  47.1662979  60.7486038  21.5186749  47.7338257
  59.4610329  21.0110893  48.8352089  60.0458794  23.7066936  49.4095154
  61.1067581  23.6672783  49.1623764  59.6905746  24.7140484  49.6265335
  59.9858093  23.2160301  50.3809776  59.0660591  26.3246498  45.8142853
  60.1630058  26.0969105  45.2569046  58.2148094  27.3050194  45.4555244
  57.3352737  27.4279690  45.9365654  58.5454521  28.1785221  44.3104477
  58.7903862  27.5675640  43.4416351  57.2863922  29.0516281  43.9219627
  56.4948158  28.3050442  43.8577690  56.8471031  30.0217323  44.9890213
  57.3349190  30.9963665  44.9737244  55.8091965  30.2743759  44.7721710
  56.8930893  29.6162796  45.9997597  57.3125000  29.6687298  42.6006660
  56.4093781  29.8505764  42.3306580  59.7193718  29.1461887  44.5462112
  60.0423737  29.5268669  45.6625862  60.3244171  29.5186691  43.4458466
  60.0777283  29.0196075  42.6031227  61.3619156  30.5267868  43.3341522
  62.1137009  30.3357754  44.0999413  62.0560265  30.4773598  41.9639702
  61.4188995  30.7130089  41.1115417  62.6648178  31.3802280  41.9160194
  63.0388222  29.2885876  41.7410851  62.3917542  28.4413071  41.5141106
  63.6838570  29.4807167  40.8836975  64.0023041  29.0158424  42.9226151
  64.6140137  29.9131413  43.0162735  63.3692970  28.8698101  43.7978706
  64.8899765  27.7776165  42.6755142  65.4104691  27.8344402  41.7194977
  65.6151276  27.6837730  43.4838676  64.0481567  26.5412674  42.6177368
  64.6938553  25.7659664  42.5721054  63.4733009  26.5076866  43.4475060
  63.4237366  26.4619198  41.8278656  60.9298744  31.9804802  43.5818825
  61.6953735  32.8078270  44.0473633  59.6005135  32.2934570  43.3137169
  58.9368744  31.5546093  43.1299019  59.0258026  33.6088638  43.5659904
  59.5761642  34.2803497  42.9069710  57.6437302  33.6132507  43.1274223
  57.6720352  33.5504951  42.0396004  57.1211586  32.7941475  43.6214790
  56.7767181  34.8593979  43.2742462  57.2123337  35.9256172  43.7277298
  55.6544151  34.8938446  42.5994415  55.2190933  34.0754013  42.1985092
  55.1205406  35.7510834  42.6145134  59.2254715  33.9686546  45.0178490
  58.5937157  33.3880043  45.8774910  60.0402298  34.9647789  45.3281746
  60.4225769  35.4505692  44.5294762  60.2262115  35.4062653  46.7831497
  60.2261238  34.5567513  47.4661064  61.5491943  36.2340317  46.9697189
  61.7932243  36.4001350  48.0189896  62.7399979  35.4359512  46.3820000
  63.6078110  36.0954971  46.3846054  62.9397125  34.5532227  46.9894524
  62.5959015  35.1591568  45.3376236  61.4727135  37.4888725  46.3171005
  61.1081200  38.1306190  46.9309654  59.1190453  36.2535095  47.3573189
  59.1248283  36.5861855  48.5294495  58.1059761  36.6415405  46.5341148
  58.2079430  36.5470238  45.5337296  57.1034393  37.6974602  46.8738594
  57.1835251  38.1344490  47.8692131  57.2534676  38.9530678  45.9288025
  57.0042152  38.7419891  44.8888893  56.6030273  39.7321815  46.3263092
  58.6144714  39.6812477  45.9235077  59.3391266  39.0895004  45.3642082
  58.4601669  40.6479912  45.4442368  59.1970596  40.0456810  47.2825432
  58.4315186  40.7018967  48.1096458  60.3395882  39.6806946  47.5052567
  55.6517067  37.1021347  46.9388809  54.6342087  37.7817459  46.6628151
  55.5468483  35.7954292  47.0921822  56.4422150  35.3338890  47.1657143
  54.3175430  35.0734024  47.4624443  53.5625801  35.2448273  46.6951447
  54.5478058  33.5708809  47.2693176  55.5043221  33.4293480  46.7661858
  54.7299805  33.0956955  48.2332230  53.5753937  32.5607948  46.5359383
  52.5313148  32.7303505  46.7990952  53.6327400  32.7499542  44.9975891
  54.6474991  32.4147186  44.7831535  52.8707924  32.1256180  44.5309601
  53.5245667  33.7846069  44.6721535  53.9405785  31.1238022  46.9470825
  53.2748871  30.4393940  46.4212036  54.9787064  30.9182796  46.6860275
  53.8455772  31.0659657  48.0313911  53.7062187  35.5417175  48.8160591
  52.4787064  35.6347809  48.9510994  54.5471077  35.7600060  49.7399483
  25.8930149  45.5883179  46.5911407  26.7310581  45.7484055  47.1316566
  26.2866478  45.4548645  45.6706276  25.2812729  46.3918381  46.5760841
  25.1392918  44.4371567  47.1057129  25.1570110  44.6214104  48.1798820
  23.7105236  44.3239136  46.5529671  23.1087379  45.1843910  46.8454285
  23.6966381  44.2087898  45.4691505  22.9077644  43.0716896  46.9225273
  23.1945190  42.2474785  46.2694244  23.2016201  42.7829857  47.9316826
  21.1643124  43.4247131  46.8878288  20.8714771  43.5727310  45.0410690
  19.7939320  43.6529922  44.8976860  21.2743549  44.4932365  44.6186256
  21.2356243  42.7256813  44.4596863  26.0114841  43.2159195  46.9716644
  26.6788540  43.1059799  45.9379005  25.9753246  42.3071747  47.9753075
  25.3750229  42.4900589  48.7666969  26.8110409  41.1387558  47.9858856
  27.7104321  41.4519882  47.4557152  27.2316093  40.9751129  49.4693451
  27.8551178  41.8151054  49.7755241  26.3058510  41.0213814  50.0428810
  28.0714893  39.7310371  49.8903542  28.3263264  39.8572807  50.9426003
  27.4009190  38.8727837  49.8474503  29.4575596  39.3332596  48.8286247
  30.0382366  37.8627472  49.8187485  30.3484840  38.1804085  50.8142128
  29.3143139  37.0478630  49.8209457  30.9375095  37.4839897  49.3330002
  26.0741272  39.8707619  47.4293900  24.9491978  40.0486794  46.9035912
  26.6801853  38.7096939  47.4504356  27.5654430  38.7026787  47.9366188
  26.2659664  37.5093956  46.6378670  25.2338886  37.6523056  46.3177223
  27.2220249  37.3265877  45.4017258  28.2481289  37.1384964  45.7176895
  26.8272419  36.1861649  44.5754738  25.9169006  36.2806129  43.9834785
  27.6428280  35.9155540  43.9048767  26.6185646  35.3216324  45.2056618
  26.9326572  38.5592079  44.5040321  26.8889809  38.2652664  43.4553223
  26.0188580  39.0800438  44.7900505  28.0261688  39.6478500  44.3129311
  27.6901875  40.4031258  43.6024513  28.1195869  40.2066078  45.2441483
  28.9913616  39.2048721  44.0674210  26.2333126  36.2199287  47.5041847
  27.2044163  35.9181557  48.2473793  25.1382465  35.4501534  47.3746834
  24.3638573  35.7403793  46.7948647  25.0558987  34.1961212  48.1064491
  26.0366516  33.9730721  48.5265388  24.0950336  34.4898758  49.2347145
  23.1313114  34.8142967  48.8421707  23.9945679  33.5897636  49.8411865
  24.5617809  35.5813751  50.2166481  24.8883286  36.5316162  49.7941475
  23.6786880  35.7381058  50.8360710  25.7319050  35.0653496  51.0885773
  25.3116283  34.2850838  51.7231255  26.4591808  34.7061005  50.3604927
  26.1729679  36.1680756  51.9345703  25.6959686  37.0453682  51.7831497
  27.2505779  36.2118912  52.7272530  27.9047794  35.0810890  52.9842873
  28.7235718  35.1509399  53.5714874  27.7558098  34.2796974  52.3878937
  27.7306080  37.3132820  53.1687546  27.2697945  38.2085342  53.0895500
  28.5988750  37.1885719  53.6694107  24.6324940  33.0051537  47.2698860
  23.8130836  33.1462135  46.3688240  25.0745029  31.7914276  47.4913826
  25.8747559  31.7286625  48.1043739  24.5259590  30.5245495  46.8602066
  24.2459259  30.8423576  45.8558731  25.3663731  29.8569355  46.6702080
  23.3601589  29.8804684  47.5634575  23.5465603  29.5816441  48.7476349
  22.2406006  29.6396770  46.9610138  22.2283783  29.9725780  46.0075340
  21.0278797  28.9503117  47.5355415  21.1935635  28.9296246  48.6126785
  19.8092060  29.7866764  47.2810097  19.5349770  29.7517395  46.2266464
  18.5668926  29.2075176  47.9711037  18.8848743  29.2680759  49.0119324
  17.7250023  29.8683109  47.7645149  18.3078461  28.2013073  47.6416588
  20.0617943  31.2756863  47.7239723  20.4585304  31.2763748  48.7392082
  20.8154430  31.7897987  47.1274834  18.8547764  32.2376404  47.6452522
  18.4034081  32.2934380  46.6546707  18.0374222  31.8566570  48.2575340
  19.2046661  33.2264404  47.9418144  21.0103893  27.5659637  46.8496094
  20.9087353  27.4764385  45.6261902  21.0060635  26.5546017  47.7229271
  20.7657833  26.7309837  48.6879425  20.9281387  25.1593895  47.3649254
  21.2885780  25.0601807  46.3410378  21.8545456  24.3944988  48.3276405
  21.3640976  24.4927959  49.2960930  21.7936821  23.3395023  48.0604706
  23.3165970  24.8920631  48.3965645  23.6427193  25.1047325  47.3784714
  23.3067284  25.8640690  48.8897285  24.2796955  23.9371414  49.1554909
  25.2816124  24.3521481  49.2651863  23.8312931  23.9182568  50.1488075
  24.3239117  22.6787643  48.4127235  24.4629440  22.6098747  47.4147110
  24.0602207  21.4643536  48.9105377  24.0832596  21.2661610  50.1510811
  24.2796555  22.0615406  50.7417641  23.8392715  20.3913631  50.5930099
  23.6417103  20.4119720  48.2251396  23.6764145  20.4793358  47.2179871
  23.5840759  19.4706459  48.5866432  19.5566216  24.4175682  47.3539124
  18.6048927  24.8704243  47.9932327  19.4976387  23.2200508  46.7415962
  20.2367363  22.9337711  46.1155930  18.5358410  22.2559662  47.1999016
  18.7032681  21.9608097  48.2357330  17.5037422  22.5902252  47.0943146
  18.6893597  20.9183578  46.4779816  19.5226879  20.8015347  45.5209579
  17.8209438  19.9420929  46.7728119  17.0782795  20.1347122  47.4296608
  17.8844566  18.5444450  46.3949585  18.4189758  18.4774303  45.4473839
  18.6878109  17.7894726  47.4679260  18.1179371  17.4318924  48.3255310
  19.2325592  16.9085884  47.1282349  19.3855743  18.5607071  47.7941551
  16.5202675  17.7907391  46.2531815  15.5632887  18.3134022  46.8074226
  16.4948063  16.7091446  45.5194244  17.4016819  16.4498901  45.1582260
  15.3393450  15.8683605  45.1710281  14.7573795  15.5737286  46.0443039
  14.4484043  16.7684479  44.3264046  14.3080225  17.7660503  44.7425652
  14.9793186  17.0925255  42.8921318  14.9740601  16.2730484  42.1734352
  14.3983545  17.9108372  42.4667549  15.9958677  17.4846172  42.9237404
  13.3329840  16.0726910  44.0812531  12.7055016  16.7597466  43.8449898
  15.7097445  14.5660906  44.4206657  16.8892231  14.2460651  44.3031006
  14.6963472  13.7525196  44.2392540  13.7364521  14.0666008  44.2466202
  14.8996811  12.3647299  43.7471733  15.8654184  12.3213053  43.2436218
  15.0039396  11.3301821  44.8833122  15.1784744  10.3536215  44.4316864
  16.1249523  11.6549883  45.9283409  15.8797054  12.4682617  46.6113739
  16.3712177  10.7632170  46.5047073  17.0320396  11.9032106  45.3772697
  13.7530384  11.3757076  45.5590401  13.2867718  10.6809559  45.0883865
  13.7813120  11.9671173  42.7699623  12.6941061  12.4931211  42.9003944
  14.0697737  10.9971952  41.8594170  14.9201002  10.4622946  41.9639587
  13.0483332  10.4390974  41.0199966  12.0363607  10.8230324  41.1488571
  13.2832460  10.7096558  39.5179939  12.4294653  10.2627878  39.0086060
  13.4051437  12.1801577  39.1463013  14.3547935  12.5904570  39.4897041
  13.3630495  12.3417768  38.0691719  12.5706024  12.7565174  39.5456123
  14.4885607   9.9405451  39.0248909  14.6355896  10.1162720  37.9592438
  15.3925934  10.1119480  39.6092262  14.4005222   8.8583546  39.1209145
  12.8722258   8.9398575  41.3702316  13.8598394   8.2205906  41.7009811
  11.6890430   8.2927055  41.1764793  10.8958492   8.8416348  40.8771133
  11.4972134   6.8629341  41.4772263  12.1127129   6.5023427  42.3013802
   9.9950924   6.5054798  41.7466927   9.4119558   6.7013540  40.8468666
   9.8514862   5.4340138  41.8861504   9.4857540   7.2485285  42.9250374
   9.6149044   8.3286219  42.8556213   8.4039392   7.1165419  42.9440231
  10.0132999   6.7331920  44.2785339  10.0479078   5.4910593  44.5287743
  10.6523380   7.4942141  44.9980431  12.0581188   6.0572376  40.2903862
  12.4594984   4.9166360  40.4816513  12.1540365   6.6111264  39.0637054
  11.8561049   7.5754242  39.1020088  12.4377508   6.0110788  37.7767487
  13.0811281   5.1734924  38.0462379  11.1678972   5.4543314  37.0186348
  11.4308577   5.2522674  35.9803085  10.8572712   4.4835587  37.4049149
   9.9236231   6.3329835  37.0973663   9.6586761   6.4189057  38.1511765
  10.1899748   7.1945820  36.4851532   8.7769270   5.6162491  36.4440155
   9.0994835   5.1249919  35.5260162   8.5175972   4.8396459  37.1635551
   7.7293458   6.6427259  36.2788887   7.3966684   7.1039538  37.1135712
   7.0847898   6.9195862  35.1800270   7.1483936   6.2464757  34.0582161
   7.8125319   5.4855394  34.0580025   6.3418903   6.2343550  33.4503479
   6.2552052   7.9052982  35.2204094   6.1774192   8.3827372  36.1070366
   5.7432213   8.1162653  34.3757401  13.1548023   7.0728912  36.8652534
  12.8321056   8.2754974  36.7820625  14.1582785   6.5727987  36.1234894
  14.2406578   5.5694070  36.2042274  14.8177891   7.3138843  35.0488625
  15.0120249   8.2869596  35.4999695  16.1450653   6.6969604  34.7423019
  16.7337933   6.5109720  35.6405830  15.7899561   5.7731681  34.2855682
  16.9984245   7.5118008  33.7803688  16.9758625   8.7925196  33.7970772
  17.5277615   6.9333968  32.8353958  13.9271116   7.3679142  33.7777672
  13.9489193   6.5162878  32.8586769  13.1433611   8.4718866  33.5851440
  13.0097847   9.1234512  34.3452225  12.2634497   8.8303299  32.4727554
  12.8580284   8.6674051  31.5738487  11.0058403   7.9025970  32.4388428
  11.2636204   6.9235191  32.0350380  10.3412714   7.7115846  33.7542877
   9.6151848   6.9027286  33.6727028  11.0749578   7.4291034  34.5092773
  10.0030289   8.6945419  34.0821533  10.1038303   8.5050583  31.5396709
  10.4783669   8.5455208  30.6566715  11.9015455  10.3136454  32.5887451
  11.8248281  10.7754145  33.7468109  11.8298235  11.1257401  31.4888744
  11.9370527  10.7135544  30.5730667  11.9647913  12.5897322  31.5803547
  12.9055395  12.8133554  32.0834312  12.1296797  13.3547773  30.2049465
  12.5977535  14.3167896  30.4136047  12.8306704  12.7378082  29.6427517
  10.8681297  13.5850306  29.3817062  10.1339712  12.7826185  29.4541245
  10.2532454  14.4230070  29.7100639  11.1746492  13.7828512  27.9185562
  12.0540295  14.5727758  27.5535774  10.3748960  13.2309799  27.1017609
  10.7862129  13.3018150  32.3235703  10.9242582  14.2923975  33.0310898
   9.6125774  12.6331558  32.2859306   9.6841297  11.7327442  31.8339977
   8.3701944  13.0177183  32.9581947   8.1327896  13.9978333  32.5445366
   7.2149692  12.1946297  32.4650536   6.3282266  12.5713863  32.9748001
   7.2325335  12.3815556  31.3913403   7.3146553  10.6988649  32.6887627
   8.1792307  10.3159237  32.1465759   7.3590913  10.4998121  33.7595139
   5.9996648  10.0216169  32.2361412   5.7923465   9.8795156  30.9991417
   5.2063646   9.5579205  33.0484581   8.4482193  13.1395044  34.4862366
   7.9201446  14.0432062  35.0429649   9.3721151  12.4265547  35.0982170
   9.8778095  11.8225231  34.4661407   9.8601942  12.4793186  36.5239716
   9.0337219  12.8077631  37.1541824  10.1873407  11.0694456  37.0018387
  10.9827890  10.6606808  36.3787231  10.5877962  11.2902575  37.9912720
   9.0094547  10.0835838  37.0550270   8.7020378   9.7477589  36.0646667
   9.1688223   9.2387877  37.7251205   7.7732048  10.8641338  37.5308228
   7.8253493  11.5032997  38.6170120   6.6720543  10.7276640  36.9108963
  10.9830971  13.4910269  36.6097221  10.9317617  14.3172121  37.5087166
  11.9761314  13.4450817  35.6812477  11.8172922  12.8307209  34.8954811
  13.2203465  14.2382479  35.9133759  13.4512644  14.1043959  36.9701920
  14.4155636  13.7143450  35.0752754  14.1154289  13.6456032  34.0296669
  15.5874062  14.6849327  35.1307487  15.7219248  14.8933973  36.1921387
  16.4902325  14.3331966  34.6314621  15.3310652  15.5994368  34.5958939
  14.8348885  12.3743725  35.4722824  15.2935343  12.3391256  36.4604645
  13.9453745  11.7444029  35.4692612  15.8496161  11.6285610  34.5122223
  16.8595200  12.0377140  34.4841309  15.9295177  10.6150198  34.9052238
  15.4388847  11.7485571  33.5097275  12.8926125  15.7248468  35.7411575
  13.3002300  16.5467339  36.5630417  12.1777601  16.0802288  34.7059708
  11.7900486  15.3042660  34.1886101  11.9103508  17.4319534  34.4481926
  12.8372030  18.0022507  34.3864326  11.2852306  17.5777130  33.0289230
  10.4608650  16.8646812  33.0185318  10.8659468  18.5746403  32.8931427
  12.1321611  17.1402512  31.8211765  12.2747250  16.0614548  31.7581139
  11.5015879  17.4858322  30.4710522  10.4816313  17.1013966  30.4717999
  11.4740210  18.5536327  30.2539330  12.1007700  17.0693207  29.6613598
  13.4767599  17.8265438  31.9247246  13.4300165  18.8904934  32.1569290
  14.0904036  17.3560810  32.6929741  14.0023699  17.7368927  30.9740391
  10.9732294  18.0734825  35.5386314  11.3121099  19.1466904  36.0517464
   9.8843546  17.4198074  36.0165405   9.6709747  16.5013313  35.6546440
   8.8533564  17.9183483  36.8897285   8.6730738  18.9511776  36.5916252
   7.5953245  17.0564404  36.6781197   7.7914519  15.9848862  36.6406212
   6.8404927  17.2403145  37.4426575   7.0111308  17.4479122  35.3108139
   7.6420474  17.1610355  34.4695358   6.1578913  16.7741032  35.2329521
   6.5672464  18.9459019  35.1520805   5.8691573  19.5432339  35.9444504
   7.1177335  19.6125526  34.1522789   7.7204618  19.1414261  33.4928436
   6.8263679  20.5590038  33.9536896   9.4295359  17.9993954  38.2839279
   9.1720686  19.0221958  38.9410553  10.2373829  17.0359344  38.7266579
  10.4836683  16.2212734  38.1828079  10.9376602  17.2624512  40.0060005
  10.2194719  17.5279274  40.7817764  11.5750265  16.0338917  40.5596619
  12.2395210  15.4964933  39.8830872  12.1659927  16.3855419  41.4053574
  10.6699686  15.1262655  41.3924866  11.2744493  14.3608961  41.8792229
  10.2957792  15.7635469  42.1937065   9.5676584  14.4505777  40.6072540
   8.9920454  15.2701206  40.1770020   9.9525404  13.7894344  39.8308144
   8.7771893  13.6273375  41.6148605   9.3805895  12.7591953  41.8800735
   8.5695620  14.2623243  42.4761276   7.4993758  13.2937355  40.9028015
   6.7303710  12.9757423  41.4751740   7.1177807  14.0655260  40.3747559
   7.7045622  12.5512533  40.2495613  11.8187189  18.4343052  39.9630585
  11.8041563  19.2870197  40.8769608  12.6367426  18.5349712  38.9197769
  12.5749903  17.8137836  38.2153816  13.5942612  19.6573277  38.8307991
  14.2661333  19.5977707  39.6870346  14.4314423  19.4144573  37.5094261
  13.7053804  19.6665058  36.7365074  15.6193695  20.4320087  37.3589287
  15.8536692  20.5296745  36.2989006  15.4699039  21.4403439  37.7449570
  16.5926533  20.0791588  37.6999779  15.0887213  18.1983604  37.4963951
  14.3697157  17.6700878  37.1420517  12.8554783  20.9670563  38.8457947
  13.3279791  21.9003677  39.5123062  11.6948423  21.0648899  38.1548157
  11.4758158  20.2085762  37.6660881  10.8469343  22.3177910  38.0415688
  11.5045109  23.1772938  37.9113960   9.7886791  22.1403503  36.8893356
  10.3206320  21.8718491  35.9766312   9.1929159  21.3112698  37.2711754
   8.8774939  23.3626785  36.6434631   8.5991011  24.0024700  37.4808807
   9.4614096  23.9675732  35.9497452   7.6073995  22.8778477  35.9061394
   7.8680434  22.1405544  35.1468201   6.9405766  22.4842300  36.6732864
   6.9776268  24.1660671  35.3549042   6.8047390  24.7344322  36.2687798
   7.6349559  24.6220055  34.6145363   5.6844172  23.7450981  34.7056236
   4.9262786  23.3913326  35.2714653   5.3850403  24.6269703  34.3147583
   5.7615447  23.1501980  33.8930702  10.1619425  22.7438755  39.3544960
  10.0679550  23.8863373  39.7017899   9.5419559  21.7105541  40.0134888
   9.7323895  20.8060913  39.6063232   9.0460091  21.9034653  41.3387756
   8.2147512  22.6050434  41.2687454   8.5446777  20.4914627  41.7893829
   9.3103094  19.7313080  41.6342163   8.1569443  20.6609383  42.7938919
   7.3882484  19.9600201  41.0900002   6.4449878  20.4199848  41.3846092
   7.3970580  20.2381611  40.0361214   7.0714374  18.4252930  41.0966797
   7.6180444  17.6458511  41.8460541   6.1798692  17.9962578  40.3145676
   5.6139960  18.5468655  39.6847076   6.0595684  16.9948673  40.2611809
  10.0918941  22.3094788  42.3601570   9.7148638  23.0654202  43.2878914
  11.3457117  21.8397522  42.1914635  11.5399675  21.1617279  41.4685173
  12.3708763  22.1496391  43.2626953  11.9645100  22.0758591  44.2714157
  13.5071287  21.2074833  42.9366951  13.2460880  20.1736603  43.1628952
  13.9008141  21.3136272  41.9258308  14.6526937  21.4890919  43.8647537
  15.0180645  22.4943981  43.6550789  14.4368877  21.4852581  45.3660469
  13.5862112  20.8642330  45.6467171  15.3101625  21.0122433  45.8152122
  14.3515902  22.5139828  45.7161255  15.8921289  20.5672665  43.5592499
  15.7915363  19.5924969  44.0365410  16.0094261  20.5159054  42.4767952
  16.8496246  21.0844841  43.6208076  12.8428459  23.5865841  43.1634483
  12.9257221  24.1539135  44.2125092  13.0584326  24.1472855  41.9899979
  12.8081121  23.5340424  41.2275200  13.2744761  25.5309238  41.6353836
  14.1460333  25.8572102  42.2028580  13.6192274  25.5091381  40.1704216
  14.4410419  24.8290176  39.9464645  12.7809067  25.0035267  39.6911774
  13.7965794  26.9328651  39.4848251  12.8673134  27.4732876  39.6651382
  14.8971033  27.7118702  40.2367668  14.8893213  28.7012749  39.7794724
  14.5632038  27.8478031  41.2654228  15.8479691  27.2178211  40.0370903
  14.0643187  26.8426876  37.9630890  14.8955736  26.1475544  37.8451729
  13.2050629  26.3661995  37.4911270  14.3034210  27.8400116  37.5939331
  12.1491127  26.4416866  42.0283051  12.3863544  27.4632015  42.6840820
  10.9194012  25.9958668  41.7353210  10.7753696  25.1924191  41.1404877
   9.7132044  26.8012180  42.0617523   9.8612127  27.8148041  41.6891441
   8.4168291  26.2348557  41.3968010   8.3896160  26.3133392  40.3099709
   8.4629974  25.1681843  41.6163025   7.1342459  26.8838081  42.0475502
   6.9627752  26.4961224  43.0517387   7.2476039  27.9658985  42.1133423
   5.9037318  26.5270805  41.2200165   5.5632076  25.3529053  41.1022415
   5.2231317  27.4602718  40.6913567   9.5839186  26.8845234  43.5902405
   9.2575979  27.9637680  44.0379295   9.9632921  25.8783493  44.4204712
  10.2261429  25.0687389  43.8768349  10.0105038  25.8986664  45.8277359
   9.1646042  26.5182743  46.1254654   9.8200512  24.5266705  46.3981285
  10.4545107  23.7630692  45.9481583   9.8484554  24.5003796  47.4874420
   8.4269648  24.0237560  46.0693474   8.3616438  24.0634193  44.9820290
   8.4650650  22.9633904  46.3189049   7.2198582  24.8695354  46.5600700
   7.2967544  25.0623112  47.6301308   7.1672945  25.7841339  45.9694366
   5.8142548  24.1352482  46.4039574   5.5824909  23.9404240  45.3568459
   5.6768565  23.2986927  47.0890808   4.6822295  25.0165825  46.8582649
   4.8883157  25.4119034  47.7645454   4.5631804  25.7838230  46.2122917
   3.8054442  24.5333519  46.9918175  11.2478485  26.6669273  46.3934898
  11.1398830  27.0958061  47.5642014  12.3471022  26.8683624  45.6850739
  12.3456736  26.4422569  44.7693596  13.4246035  27.7991085  46.1862068
  13.6685047  27.5285492  47.2135391  14.7800951  27.7347965  45.3629074
  14.4594784  27.8132229  44.3240852  15.7151031  28.8580894  45.6318321
  16.5629730  28.6552315  44.9775658  15.3881578  29.8369198  45.2809753
  16.0441551  28.9659996  46.6653633  15.5306635  26.3971939  45.6015472
  15.9674168  26.2857494  46.5939827  14.8011837  25.5908489  45.5256081
  16.6797276  25.9950695  44.6457405  17.5790157  25.9522038  45.2601814
  16.5440731  25.0265865  44.1643486  16.8338337  26.6430626  43.7829170
  12.8268623  29.2465858  46.1574936  12.9300766  30.0401115  47.1102715
  12.1862955  29.5342999  45.0284271  12.0079136  28.8318596  44.3249664
  11.4829292  30.8142452  44.7620888  12.2256546  31.5926132  44.9370117
  11.0674505  30.8094387  43.2820015  10.6993856  29.8131943  43.0367966
   9.9022770  31.7422924  42.9832191   9.0384970  31.6164074  43.6360054
  10.2373848  32.7770233  43.0548592   9.5543747  31.6405487  41.9552536
  12.2888699  30.9530010  42.4273911  12.4273224  32.0334778  42.3886414
  13.1146784  30.4132996  42.8909264  11.9636002  30.3387127  41.0411415
  12.8938427  30.3804321  40.4745636  11.7917948  29.2648888  41.1152229
  11.1377220  30.7950478  40.4954376  10.3512173  31.0231018  45.7942352
  10.2744656  32.0706253  46.4169121   9.5538969  29.9595413  46.0364342
   9.5551662  29.1791954  45.3952179   8.5677719  30.0435143  47.1558113
   7.9088135  30.9067001  47.0620995   7.7159066  28.7581673  47.2156487
   7.3392882  28.5472260  46.2147675   8.3503866  27.9325848  47.5380554
   6.6711078  28.7524242  48.3491974   6.2432666  27.7803593  48.5944252
   7.3077631  29.0325642  49.1884193   5.4716415  29.7407436  48.1181793
   5.1103573  29.9537468  46.9309959   4.9195557  30.2781696  49.1272888
   9.1830997  30.3934860  48.5157700   8.6367054  31.1823559  49.3073349
  10.3433342  29.7421875  48.8187408  10.7862701  29.0982819  48.1789780
  11.0272112  29.9353714  50.0921097  10.3552847  29.8150692  50.9419022
  12.1056414  28.8079948  50.2145844  11.6734610  27.8688679  49.8690948
  12.9611826  29.0427914  49.5813217  12.7409277  28.6931877  51.6284332
  13.6637478  28.1240253  51.5163727  13.1594057  29.6116543  52.0400124
  11.8225002  28.0643501  52.7238464  12.2582788  27.1193333  53.4254303
  10.7266731  28.5997639  52.9935150  11.7237768  31.3251629  50.2233696
  11.6693239  31.9606361  51.2760010  12.4135981  31.7899055  49.1866913
  12.5506535  31.1837158  48.3905449  13.3009157  33.0334473  49.2490387
  13.2706585  33.3831787  50.2809677  14.7220173  32.6237297  48.8801498
  14.7317495  32.1474190  47.8997726  15.2576513  33.5579834  48.7117195
  15.4606457  31.8607273  49.9170036  15.6783638  32.3756981  51.0522385
  15.7181253  30.6321049  49.6507111  16.0361462  30.0627403  50.4219322
  15.5187798  30.3217258  48.7104797  12.8103056  34.1855583  48.3676338
  13.5451288  35.2143288  48.3253288  11.6319704  33.9691963  47.7609978
  11.2043581  33.0756378  47.9579735  10.9433775  34.8591805  46.8834076
  10.1498995  34.2902756  46.3987999  10.2841473  36.0229225  47.6909981
  11.0089216  36.4332542  48.3941536   9.9495602  36.7981758  47.0016937
   9.2422485  35.4194641  48.5349541   7.9370570  35.0177612  48.1357346
   7.4080429  35.1149216  47.2808647   7.3790545  34.5495644  49.2619629
   6.3903475  34.1181831  49.3146439   8.2196083  34.5102768  50.2886581
   8.1754789  33.9572487  51.1326447   9.4750624  35.0260506  49.8328972
  10.3893547  35.1706085  50.3892860  11.8743334  35.3600197  45.7336311
  11.9416780  36.5230827  45.3187828  12.7486992  34.4865036  45.2672348
  12.7631912  33.5712738  45.6941452  13.8486586  34.8279877  44.2968674
  14.3482752  35.7108421  44.6956825  14.8130360  33.6151581  44.0867043
  14.2507334  32.7079430  43.8656311  15.9623632  33.9493904  43.1839790
  15.7785702  33.7519112  42.1278915  16.2112370  34.9825211  43.4264717
  16.9107170  33.4160919  43.2497520  15.4218225  33.2266350  45.3467445
  16.0960960  33.8951874  45.4881401  13.3418980  35.3091049  42.9159241
  12.3872957  34.7253494  42.3856544  13.8461494  36.4338036  42.3118515
  14.4530602  37.0849419  42.7891121  13.5338945  36.8196220  40.8728752
  12.7704582  36.1336403  40.5058670  13.0337601  38.2491417  40.8700485
  12.4821415  38.4038963  39.9427605  12.3327408  38.3574028  41.6976700
  14.0195894  39.4032288  41.0040779  14.5180874  39.1407661  41.9371986
  14.7042770  39.3445435  40.1579933  13.3369932  40.6989326  41.2491226
  12.6327972  40.8644829  40.4337692  12.6157999  40.7559586  42.0644302
  14.3641024  41.8073807  41.3135948  15.1048365  41.6762238  40.5247917
  13.8084641  42.7322960  41.1590004  14.9580860  41.8386536  42.6213417
  15.6252298  42.5921326  42.7067184  14.1810017  41.8944321  43.2640991
  15.4710865  40.9929733  42.8256798  14.7699347  36.6334076  40.0193748
  15.8499718  36.8579826  40.5373650  14.7922316  36.1155472  38.7901192
  13.5942802  35.6137161  38.1371460  12.7416668  36.2840996  38.2454643
  13.3815002  34.6244507  38.5423431  13.9605360  35.3775024  36.6656265
  13.8048630  36.2710838  36.0611610  13.4021292  34.5391579  36.2491341
  15.5155439  35.1007156  36.7313080  16.0966568  35.4520416  35.8786774
  15.6889219  34.0331268  36.8665924  15.9708509  35.8732491  37.9776878
  16.6228256  35.2350235  38.5740967  16.6863556  37.2035866  37.6429291
  17.9055939  37.0860825  37.3986435  16.0683842  38.3778572  37.6475372
  15.0695248  38.5150795  37.7071152  16.8927307  39.5644073  37.3765411
  17.2611237  39.4847603  36.3537788  15.8701200  40.6875191  37.3878403
  15.1447468  40.6121445  36.5777435  15.3388643  40.7104721  38.3393364
  16.4389687  42.0904465  37.1323662  15.5968161  42.7824554  37.1310349
  17.0927753  42.2771530  37.9842911  17.2771244  42.3684006  35.8618431
  17.0093575  41.7705803  34.7835541  18.1649380  43.2358284  35.9770241
  18.0292873  39.7984695  38.4587631  18.9349689  40.5397568  38.0963554
  18.0405006  39.1371651  39.6460152  17.1395588  38.7278099  39.8480911
  19.1436558  39.0856552  40.6712456  19.8382988  39.8776627  40.3914299
  18.6471329  39.2047920  42.1037674  18.2770176  38.2656593  42.5150375
  19.4738464  39.4413300  42.7736168  17.6060448  40.1860771  42.3101425
  17.6898212  41.3404465  41.7933197  16.8241043  40.0209312  43.2760315
  20.0936413  37.9316788  40.5768890  21.2584648  38.0092583  41.0550919
  19.7491112  36.8951874  39.8557625  18.9591026  37.0175247  39.2384949
  20.6016350  35.7142944  39.7282791  21.1831970  35.4013710  40.5954361
  19.7341976  34.4922485  39.2546349  19.2481041  34.8048515  38.3304634
  20.5386009  33.2334328  38.8713799  21.0886173  33.4500008  37.9555893
  21.1060085  32.8821869  39.7332268  19.8563709  32.4232292  38.6140251
  18.6348724  34.1479645  40.3333244  18.1111336  33.2483025  40.0102119
  19.0397377  33.9772148  41.3308296  17.8620148  34.9066582  40.4565163
  21.7522717  35.9951248  38.7440224  21.6261349  36.5470390  37.6784172
  22.9523716  35.5465736  39.1723480  22.9919147  35.1494293  40.1001511
  24.1699600  35.4369736  38.4056206  24.2848835  36.4128380  37.9338341
  25.4313545  35.2107086  39.3517990  25.5907478  34.1941605  39.7114182
  26.7020550  35.5519524  38.6074486  27.5833282  35.2476387  39.1721153
  26.5921936  35.0270348  37.6585045  26.7115593  36.6194077  38.3870964
  25.4862289  36.0271034  40.6037025  25.2815285  37.0954781  40.5346298
  24.7996960  35.5922508  41.3301163  26.4498158  35.9633713  41.1092033
  24.2103119  34.2334824  37.3956795  24.4032192  34.4152451  36.2141876
  23.8840027  33.0853767  37.9541817  23.6240044  33.0578651  38.9297562
  23.9957008  31.7849922  37.2216301  23.5820408  31.8019657  36.2133179
  25.5347366  31.4742985  37.0352364  25.6967010  30.6457520  36.3457603
  26.0597324  32.2889595  36.5364227  26.1965389  31.1736012  38.4050102
  25.6945801  31.7005463  39.2164688  26.0801945  30.0907040  38.4486046
  27.6689606  31.4850750  38.5229797  28.3947163  31.9312401  37.6489220
  28.2828979  31.2220058  39.6623001  29.2104568  31.5869923  39.8251495
  27.7317924  31.0608215  40.4932022  23.3759937  30.6810074  38.0608521
  23.0530415  30.8776073  39.2320251  23.3415489  29.4534836  37.5571518
  23.7152996  29.2670765  36.6375504  22.8726273  28.2656727  38.3656654
  23.1624508  28.4102974  39.4064331  21.3553925  28.1704788  38.4150162
  20.9973354  29.0525093  38.9459724  21.0487022  28.1959896  37.3693619
  20.7967682  26.8201656  39.0110855  21.2078190  26.0415363  38.3685226
  21.3443127  26.6519279  39.9384422  19.0756416  26.6476288  39.3472633
  18.1897011  27.4745007  37.9673767  17.1366882  27.6543598  38.1839638
  18.5013275  28.4456806  37.5829277  18.3166847  26.7925549  37.1265869
  23.5302811  26.9289379  37.8879204  23.6281300  26.6658478  36.7256622
  24.0070934  26.1336727  38.7926521  23.8335991  26.4288788  39.7428360
  24.5850639  24.8291245  38.6379776  24.9591141  24.8214874  37.6141968
  25.7910023  24.7748375  39.5446243  25.4216537  24.7582836  40.5700073
  26.2168045  23.7818069  39.4008026  26.8498936  25.9085865  39.6491356
  26.3800144  26.8885059  39.7332878  27.8283005  25.7275429  40.8049812
  28.4065952  24.8234291  40.6145592  28.4137974  26.6321526  40.9692268
  27.1315117  25.6858864  41.6421471  27.6369915  25.8884220  38.3628731
  26.9433517  25.9356556  37.5233841  28.3102169  26.7441444  38.3118210
  28.2339821  24.9765987  38.3795929  23.6353073  23.6733170  38.9896812
  22.8988342  23.8521786  39.9639702  23.5079174  22.6380787  38.1467514
  24.1078014  22.5925426  37.3354759  22.6204319  21.4887142  38.2662849
  22.1774216  21.4611149  39.2618141  21.4614620  21.4629707  37.2693710
  21.9142418  21.1870975  36.3170128  20.8680973  20.5999527  37.5713959
  20.6363869  22.7379875  37.1469498  20.6283607  23.1766644  38.1447487
  21.1295433  23.5945511  36.0195885  20.9418926  23.0509872  35.0936165
  20.5970325  24.5456047  36.0250435  22.1699104  23.8726444  36.1881142
  19.1898003  22.4367599  36.6908760  18.6254921  23.3612957  36.8129005
  19.1467838  22.2128029  35.6249962  18.6579952  21.6049557  37.1528091
  23.4000607  20.1436024  38.2999725  24.4177589  19.9534435  37.6404152
  22.9446259  19.1136169  39.0219154  22.0896225  19.1890678  39.5542488
  23.6183491  17.7415447  39.1331482  24.1331940  17.5624485  38.1892433
  24.6270065  17.8446598  40.2881165  25.1282005  18.8107719  40.3475380
  24.0199871  17.6744976  41.1773148  25.4885559  16.7847576  40.1791573
  26.0737019  16.9779835  39.4430389  22.6365166  16.6302376  39.2719421
  21.4527588  16.7915821  39.7064323  23.1083241  15.4466085  38.9296608
  24.0816193  15.4336958  38.6601601  22.4582520  14.1572371  39.1615334
  22.1092110  14.2051487  40.1930237  21.3360252  14.0034342  38.1601295
  21.1173916  12.9537058  37.9642372  20.4137173  14.3820066  38.6007347
  21.6477661  14.4611073  37.2212677  23.4613628  12.9979973  39.0979462
  24.5686283  13.1501703  38.6208801  22.9718323  11.8936329  39.5877762
  22.0443630  11.9974518  39.9739456  23.7366695  10.6820145  39.9503021
  24.7595425  10.9020205  40.2559586  22.9198818   9.8562469  41.0280190
  23.2778625   8.8415146  41.2020111  23.0591011  10.5711565  42.3842163
  23.9604378  10.2146034  42.8827667  23.1154289  11.6506033  42.2437859
  22.2365360  10.3589792  43.0671997  21.5485687   9.7067413  40.8186836
  21.4510479   8.8875637  40.3277245  23.8361149   9.7785902  38.7343941
  23.2174492  10.0567760  37.7123222  24.6845779   8.7255573  38.7485542
  25.6168747   8.2442989  39.8494644  25.0916195   7.8351097  40.7124634
  26.2993870   9.0675526  40.0604897  26.5066814   7.1955566  39.3066101
  26.0477886   6.2120304  39.4075775  27.5011501   7.3062115  39.7389183
  26.5261536   7.4502025  37.7853928  26.7457256   6.5038366  37.2911453
  27.2642097   8.2188635  37.5561905  25.1071777   8.0182314  37.4518547
  25.2930031   8.7657166  36.6805992  24.1164322   6.9120278  37.0111427
  24.3529625   6.1356783  36.1119194  22.9386902   6.8109746  37.6711121
  22.7734623   7.5515122  38.3377495  21.8858509   5.8795867  37.2932243
  22.2377815   5.0213161  36.7208481  21.1870594   5.2506690  38.5242081
  20.1984024   4.9166923  38.2093773  21.6684837   4.3232450  38.8343925
  21.2927265   6.1618996  39.7976723  21.3617477   7.4144540  39.7613983
  21.1678333   5.6429591  40.9078407  20.7644844   6.5705609  36.4148178
  19.8480663   6.0459962  35.7515755  20.7593460   7.9414825  36.4385262
  21.4398232   8.4078627  37.0212288  19.9075947   8.8649330  35.5805931
  19.0085850   8.3396711  35.2581291  19.5934658  10.0782204  36.4879608
  20.5860405  10.4281025  36.7716522  19.1360588  10.8605013  35.8822250
  18.8694668   9.6607409  37.7727165  19.4670925   9.0033493  38.4042091
  18.5886536  11.0149345  38.5513496  19.5112934  11.5500555  38.7760353
  18.0353737  11.7642050  37.9851608  18.0611267  10.7195091  39.4582901
  17.5218201   9.1026707  37.4729271  16.9133892   8.8656225  38.3456879
  17.0293903   9.7834740  36.7785797  17.6793633   8.1944666  36.8911629
  20.5220490   9.3184433  34.2229958  21.5265617   9.9232359  34.1160660
  19.7317657   9.0009947  33.1689110  18.8156090   8.6111050  33.3384361
  20.1838169   9.0496502  31.6989384  20.9771748   9.7962942  31.6642113
  20.7577457   7.6985536  31.2476635  19.9655113   6.9566970  31.3482304
  21.2189484   7.7152886  30.2601814  21.8533859   7.2037978  32.0951118
  23.0507889   7.8188686  32.3646660  23.3422756   8.7042551  31.9757881
  23.7068462   7.0869894  33.2333374  24.7332478   7.2572789  33.5229988
  22.9365826   6.0109563  33.6019135  23.2454529   5.2894382  34.2376099
  21.7690430   6.1178093  32.8927383  20.8900661   5.4992294  32.9983749
  19.1328564   9.5799036  30.6838112  19.4119034   9.8250113  29.4759140
  17.9052677   9.7528782  31.1287193  17.7308464   9.5097322  32.0933723
  16.8050900  10.0345106  30.1667728  16.7983284   9.2908926  29.3698483
  15.4977798   9.7945900  30.9405842  15.3715792  10.5999250  31.6641922
  14.6341982   9.8729925  30.2801418  15.5267820   8.7897291  31.3619099
  16.8099480  11.4483223  29.5117111  16.1878548  11.6464300  28.4753799
  17.4242859  12.4589834  30.1730156  17.9872494  12.2947569  30.9953308
  17.5407963  13.8653135  29.7460861  17.9350796  13.9294243  28.7319221
  16.1556320  14.4162016  29.8377132  15.4541979  13.8726196  29.2047749
  15.5544739  14.3945713  31.2838612  15.7211046  13.3884668  31.6686726
  16.0015793  15.1893177  31.8810024  14.4905300  14.6314707  31.2852764
  16.0359058  15.9025669  29.4022312  15.0001488  16.2396317  29.3609753
  16.5053768  16.5909653  30.1049423  16.4765415  16.0673122  28.4189720
  18.4452076  14.7248106  30.7005749  18.4832916  14.5319920  31.9009266
  19.1156521  15.7777920  30.1701221  18.9848709  16.0219917  29.1988544
  19.8544064  16.7314224  30.9958572  20.5145187  16.1433468  31.6334476
  20.7975063  17.5336742  30.0471249  20.1785889  17.8994808  29.2278385
  21.2094975  18.3630829  30.6219673  22.0266342  16.8433037  29.4311886
  23.1747913  16.8164711  30.2308636  23.0810909  17.1529579  31.2528210
  24.3583565  16.3842869  29.7190647  25.1744003  16.2504444  30.4137287
  24.4763412  16.0175247  28.4079418  25.4131603  15.6931419  27.9795170
  23.3504963  16.1035862  27.5660343  23.3006268  15.9211035  26.5027313
  22.1440773  16.4703999  28.1145935  21.3122749  16.6262035  27.4436035
  18.9179115  17.7231655  31.7841816  18.0745144  18.3634624  31.1354408
  19.0468597  17.9998550  33.1737213  19.8428993  17.0952721  33.9955521
  20.9018078  17.3518009  34.0272942  19.7925262  16.0959396  33.5632210
  19.1525841  17.1358414  35.4280281  19.8830891  17.0169926  36.2282410
  18.3155174  16.4389706  35.4703712  18.6047573  18.5694160  35.4454613
  19.3846588  19.2961750  35.6727791  17.8118649  18.8105240  36.1534805
  18.1629238  18.7672787  33.9760818  17.1660156  18.3291721  33.9276657
  18.0447235  20.2635117  33.6101875  17.0125828  20.8524246  33.9568520
  18.9986897  20.8836212  32.8050499  19.9456882  20.5560989  32.6784554
  18.8212280  22.3641224  32.5368042  18.8491135  22.9177170  33.4753456
  20.0809288  22.8062344  31.7440891  20.0905991  22.1869583  30.8471394
  20.0339870  23.8444576  31.4154720  20.9252644  22.7055950  32.4260483
  17.5417519  22.7177048  31.7392731  17.1030674  23.8400764  31.6492577
  16.8983631  21.7396736  31.0866089  17.1848202  20.7739048  31.1596661
  15.7446012  21.9503288  30.1785297  16.1071415  22.6887722  29.4634304
  15.3865128  20.6534061  29.3613453  15.0044165  19.8550453  29.9975243
  14.5260830  20.9998856  28.7888813  16.5334263  20.2120667  28.4269791
  16.8081455  21.0080109  27.7348061  17.3776512  20.0255451  29.0907555
  16.2542629  18.9684753  27.5886860  17.1799126  18.4194317  27.4159927
  15.6510706  18.2196445  28.1020203  15.4352369  19.2328777  26.3546543
  14.4520626  19.6548691  26.5629578  16.0561390  20.0177784  25.9227772
  15.4149399  18.0203438  25.5516853  14.9984694  17.2840881  26.1035728
  14.8511105  18.2243805  24.7389278  16.3409615  17.8005524  25.2136383
  14.5827522  22.4242020  31.0003262  13.8105564  23.3280773  30.6897430
  14.3638945  21.8307590  32.2254143  15.1672201  21.2934341  32.5187531
  13.2920208  22.1582870  33.1811447  12.3265696  22.0230732  32.6935768
  13.4356298  21.1825790  34.3788948  12.5526867  21.0821400  35.0101013
  13.7028008  20.1695442  34.0780983  14.1920328  21.6245594  35.0274353
  13.3766117  23.6637554  33.6836739  12.4085455  24.3035564  33.9898109
  14.5764189  24.2110004  33.7070198  15.3327293  23.6267242  33.3803406
  14.8052206  25.5716171  34.1475449  14.4579964  25.6388149  35.1785736
  16.2986851  25.8597717  34.2311172  16.6809502  25.6594276  33.2301979
  16.7283440  27.2922173  34.6524734  16.4953098  27.4481506  35.7057915
  17.8173046  27.3311901  34.6251221  16.3420620  27.9915199  33.9109459
  17.0299244  24.8198948  35.1539001  16.7915268  23.7775803  34.9420967
  18.0984592  25.0331516  35.1247063  16.7553253  24.9423027  36.2016182
  14.0906448  26.6282845  33.1871758  13.5257931  27.5970612  33.6629791
  14.1084232  26.5142727  31.8958015  14.5370169  25.6730595  31.5369473
  13.5673437  27.4192963  30.8538303  13.6791134  28.4328957  31.2388287
  14.3322058  27.3676739  29.5218430  13.9001703  26.6613388  28.8129463
  14.1480761  28.3441238  29.0737991  15.7991638  27.2453880  29.6792622
  16.1052570  27.9126263  30.4849911  16.0915737  26.2071705  29.8364334
  16.5764656  27.6910439  28.4590874  16.3098831  27.1887226  27.5291901
  16.3927670  28.7536507  28.3002701  18.0010815  27.5832748  28.5995407
  18.3889751  28.5002193  28.7693977  18.8294239  26.5848026  28.4064465
  18.4895630  25.3932724  28.0270786  17.5102100  25.1581402  28.1024742
  19.2396240  24.7455692  27.8321686  20.1074333  26.7724094  28.4821014
  20.6691303  25.9408817  28.3673878  20.4282246  27.6473999  28.8714409
  11.9903202  27.2296009  30.6979523  11.3721695  27.7360287  29.7782078
  11.2529116  26.5567436  31.6308498  11.7787180  26.1931343  32.4127846
   9.8374367  26.6064796  31.7853374   9.3115444  26.6288185  30.8308544
   9.4505377  25.3436775  32.6130524  10.1382971  25.2060452  33.4474068
   8.4261370  25.3947525  32.9819603   9.6142607  24.0224247  31.8436146
  10.6755419  23.7738628  31.8438435   8.9940662  23.3524494  32.4390907
   9.0935373  24.0129623  30.4126987   7.8411674  24.1999378  30.2445850
   9.8952904  23.6653290  29.4881802   9.2446814  27.8729610  32.4773865
   8.0815487  28.1599751  32.2795715  10.0442066  28.5609512  33.3091927
  11.0133724  28.2837620  33.2460747   9.5460186  29.5469074  34.2664299
   8.4587593  29.4903545  34.3190422  10.0943060  29.1451817  35.6621933
  11.1746073  29.2859535  35.6972961   9.8028860  29.9310150  36.3590775
   9.7337761  27.8087730  36.2849541  10.5370970  27.1766968  35.9064522
   9.9613552  27.9613132  37.7824898   9.2223806  28.7195644  38.0414696
   9.6530237  27.0339680  38.2652550  10.9541636  28.2846279  38.0953903
   8.3677921  27.2461414  35.9828186   7.6626735  28.0722923  36.0743828
   8.2539349  26.8422947  34.9768143   8.0479956  26.5443764  36.7531166
   9.8330059  30.9723625  33.8047676  10.8098011  31.3050442  33.0942726
   9.0441933  31.9995556  34.2374229   8.2814350  31.9407578  34.8968468
   9.1041174  33.3362274  33.5757561   9.0189219  33.2905731  32.4900513
   7.8993540  34.2262344  33.9989891   6.9374042  33.7540741  33.7994461
   8.0117521  34.4726906  35.0547943   7.8023381  35.3749390  33.2860832
   7.1895342  35.9740105  33.7187347  10.4480648  34.0627441  33.8042717
  10.9911366  34.1051254  34.9164352  11.0960340  34.5799866  32.7240562
  10.6743994  34.5236206  31.8080063  12.3161392  35.3929520  32.7602959
  12.4681358  35.8108139  31.7651100  12.2034998  36.2637100  33.4062042
  13.6027718  34.5699692  32.9627838  14.6883211  35.0827980  32.7518845
  13.5188971  33.3286629  33.5223579  12.5928392  32.9514084  33.6644707
  14.6569529  32.4571571  33.9658928  15.3090019  32.9777336  34.6672707
  14.1043692  31.2223358  34.6426697  13.1525402  30.8393707  34.2746201
  14.7127323  30.3224659  34.7333908  13.8497772  31.5976696  36.0885849
  12.6750841  31.9461498  36.6198730  11.7601204  32.0371552  36.0533333
  12.8889751  32.3924370  37.8930206  12.2128143  32.9229507  38.4235497
  14.0668421  31.9916954  38.3573952  14.7201395  31.9446564  39.5889816
  14.0584068  32.2845001  40.3719368  16.1163177  31.6680107  39.7097740
  16.4619389  31.7468090  40.7299385  16.7848148  31.2519550  38.5642586
  17.8207741  30.9673805  38.6747437  16.1409702  31.3044453  37.3446922
  16.7583885  30.8897648  36.5615997  14.7489719  31.5907669  37.1690636
  15.6124039  32.0536270  32.7894821  16.7421494  31.6288357  32.9754982
  15.1119680  32.0376358  31.5590458  14.1710720  32.3647575  31.3922997
  15.8910971  31.5856743  30.3998909  16.1766090  30.5488071  30.5773716
  15.1146097  31.5418549  29.1087818  15.8618116  31.1255360  28.4331551
  14.2843008  30.8365173  29.1432152  14.6754255  32.9210243  28.5991955
  14.1199226  33.3908348  29.4108562  15.4519043  33.6548080  28.3829918
  13.6833992  32.8954468  27.4429436  13.8270178  32.1251373  26.5106125
  12.6291847  33.6787033  27.6144009  12.4209366  34.1438141  28.4864120
  11.9688444  33.6734543  26.8501797  17.0845203  32.5658531  30.2097988
  18.0920219  32.2455521  29.5787125  17.0992489  33.8223457  30.7830410
  16.3099079  34.2225533  31.2697372  18.2431393  34.6767464  30.6568165
  18.6077061  34.7253914  29.6307430  17.7049732  36.1116295  30.9214039
  17.3775902  36.0511932  31.9593182  18.4573231  36.8877296  30.7808895
  16.5844440  36.6372795  30.0476246  16.5749531  36.4063225  28.6887608
  17.4102325  35.8722839  28.2603779  15.5473804  36.9652405  27.9271603
  15.5431681  36.9152336  26.8483276  14.4381075  37.6083450  28.5430794
  13.4674168  38.0538254  27.6794033  13.7587194  38.7496719  27.0856514
  14.4441137  37.7482262  29.9298897  13.5566673  38.0564766  30.4626369
  15.5062876  37.2534523  30.6390190  15.6043167  37.4550133  31.6955070
  19.4452629  34.3997650  31.5962982  20.4631710  34.9928131  31.4124260
  19.2366161  33.5663528  32.6004868  18.3181896  33.1479073  32.6391563
  20.3428535  32.9823570  33.4700317  20.8834114  33.8744926  33.7862473
  19.7125473  32.3566399  34.6666527  19.0556335  31.5443439  34.3556213
  20.7749691  31.7472019  35.5635147  21.3563881  31.0066662  35.0142784
  21.5251942  32.4616241  35.9024239  20.2740936  31.2907829  36.4172745
  18.9932480  33.3561745  35.5561447  18.7161350  32.9084282  36.5105209
  19.5794697  34.2483673  35.7762222  18.0582676  33.6367912  35.0712013
  21.1770611  31.9237423  32.7363243  20.6499920  30.9150181  32.2593765
  22.5038376  32.0673752  32.6879883  23.3033504  33.2060547  33.0622902
  23.1892624  33.4156532  34.1258469  22.9410858  34.0629730  32.4943504
  24.7815456  32.9271545  32.8742104  25.1583099  32.8267517  33.8920860
  25.1677704  33.6388054  32.1444893  24.7978745  31.5706959  32.1802635
  25.5446053  30.8655052  32.5452271  24.8893814  31.6632462  31.0980587
  23.3737259  31.0116005  32.3243103  23.1214790  30.6585865  31.3243828
  23.4552116  29.7804375  33.2291641  23.6456318  29.9237347  34.4525414
  23.2167759  28.6130581  32.6674805  23.0413132  28.5936852  31.6730251
  23.0643387  27.3217869  33.3616714  23.4028034  27.4994431  34.3824463
  21.6523228  26.8537922  33.3489952  21.6703548  25.7916145  33.5930290
  20.8226471  27.5991249  34.4491272  21.3282604  27.2877731  35.3631897
  20.8349743  28.6880589  34.4025269  19.8521976  27.1244354  34.5940361
  20.9497929  26.9513245  32.0117302  21.4566593  26.2336044  31.3666992
  19.9219799  26.6335354  32.1869888  21.0202961  27.9551125  31.5927582
  24.1137619  26.2843075  32.9698257  24.6338463  26.2445316  31.8943214
  24.3002739  25.3140297  33.8293304  23.8077011  25.3236656  34.7110214
  25.0956917  24.1137791  33.4972038  24.7976513  23.8474522  32.4831276
  26.6389351  24.5025482  33.4348526  26.7201767  25.2952328  32.6911125
  27.1382885  24.9845238  34.8339958  28.1870995  25.2799339  34.8052063
  26.4850693  25.7439384  35.2637596  27.0565376  24.1335831  35.5102463
  27.4518795  23.4040451  33.0397606  27.6617184  22.9338646  33.8500061
  24.7934132  22.7982597  34.3254890  24.6890240  22.8016930  35.5148125
  24.7439899  21.6414089  33.6552963  24.5522900  21.8034420  32.6769829
  24.8089676  20.3182697  34.3022804  24.3875217  20.3955498  35.3045311
  23.8894119  19.3522511  33.5087128  24.3418961  19.2331676  32.5242462
  23.8069534  18.4278793  34.0804100  22.2962189  20.1584301  33.2379265
  22.7205181  21.1312695  32.4264793  26.1909962  19.7635670  34.5508614
  26.9911671  19.9104862  33.6837959  26.5000076  19.0584908  35.6538849
  25.7619915  19.1361980  36.3390083  27.8204536  18.4833107  36.0332603
  28.4069843  18.3164768  35.1297951  28.5649033  19.3672466  37.0149460
  28.3449421  19.1359177  38.0571556  29.6012955  19.0875721  36.8258018
  28.4245682  20.9096241  36.7484512  28.6302757  21.1332359  35.7016525
  27.3916702  21.2341995  36.8744202  29.3257294  22.0736179  37.8190498
  28.6569824  21.5904255  39.4992104  27.5675259  21.5970306  39.5330238
  28.8803520  20.5328693  39.6398621  29.0296097  22.2117119  40.3136177
  27.5332241  17.1173611  36.8349915  26.8132763  17.2273979  37.8434067
  28.0637398  15.9223766  36.3859215  28.6846123  15.8696194  35.5910416
  27.8359089  14.6790838  37.1334496  26.7752457  14.4392014  37.0589371
  28.5449429  13.5113735  36.4677315  28.3860073  13.6166763  35.3945351
  29.5771999  13.5121317  36.8177910  27.9359760  12.1167240  36.7740822
  28.6921082  11.3430195  36.6408768  27.5667114  12.0258665  37.7955971
  26.8528690  11.5961952  35.8878746  27.0312805  11.0432711  34.8137512
  25.5995255  11.7320499  36.2302628  24.9057446  11.3993025  35.5760078
  25.2859344  12.2851696  37.0150032  28.3734913  14.6845608  38.5862999
  29.3832588  15.2951813  38.9500809  27.6553040  14.0693521  39.4786377
  26.8143139  13.6506853  39.1077499  27.8139076  13.9041700  40.8995361
  28.1207581  14.8590555  41.3263168  26.4110794  13.6259365  41.4444771
  25.8982735  14.5876045  41.4624825  25.8064156  12.9910269  40.7968864
  26.4528999  13.1805582  42.8594933  26.8467960  12.1692591  42.9605904
  27.2115765  13.7544231  43.3916473  25.1962013  13.2784166  43.6340790
  24.9677868  12.3091822  44.4024925  24.3599854  14.2028751  43.5238647
  28.9064484  12.8599796  41.1953392  28.9093266  11.7667046  40.6060524
  29.8050365  13.2145338  42.1619377  29.7703934  14.1001806  42.6462212
  30.7488117  12.2258148  42.7250977  31.4885712  12.0003977  41.9569511
  31.5179005  12.8271179  43.9318314  32.0487976  13.7287817  43.6264610
  30.8444672  13.1168909  44.7384491  32.5649452  11.8480387  44.3769989
  32.1416550  10.8916492  44.6839905  33.0885506  11.7243757  43.4290314
  33.7067757  12.5108147  45.6108170  34.9444542  11.1623077  45.9105835
  35.8046379  11.5919447  46.4240112  34.5747681  10.3572397  46.5456390
  35.3716125  10.8992529  44.9428864  29.8978901  11.0009413  43.1140175
  29.0645618  11.0135632  44.0096474  30.2490940   9.8004856  42.5431252
  30.9848175   9.9410830  41.8656006  29.8282566   8.4217710  42.8801765
  28.7401619   8.3804588  42.9296722  30.1421356   7.3833208  41.8210068
  29.8168850   7.8375854  40.8850822  31.2214870   7.2600565  41.9099159
  29.4015312   5.9542651  42.0145226  29.5570679   4.9934740  41.1965904
  28.6609440   5.8505564  43.0106583  30.3783913   8.0183535  44.2517166
  31.5826206   7.9010143  44.4080124  29.4760857   7.8629208  45.2543144
  28.5095844   7.6893868  45.0179558  29.7374363   7.6101050  46.6591949
  30.8093300   7.4349217  46.7511368  29.5722179   8.9636221  47.4375458
  28.5939846   9.3142147  47.1085358  29.5667362   8.6846371  49.0080070
  30.4132938   8.0701065  49.3142624  29.5478420   9.5937767  49.6090164
  28.6941872   8.0567055  49.1881790  30.7733974   9.9377041  47.1146164
  30.7422314  10.8455210  47.7171059  31.7406139   9.5017881  47.3647575
  30.7567272  10.1699934  46.0497818  29.0003872   6.4194770  47.2555542
  27.7926521   6.2158146  46.9646301  29.7477932   5.5284553  47.9359703
  30.7247562   5.7699285  48.0216026  29.2016468   4.2444835  48.4771538
  28.9696751   3.6292362  47.6078110  30.3406429   3.4659197  49.1660881
  30.0084972   2.7805829  49.9458923  31.2104950   2.8084059  48.1450691
  31.2450371   3.3926048  47.2254982  32.1985970   2.5729208  48.5404282
  30.7908344   1.8353108  47.8899803  31.2097492   4.3226600  49.7891045
  30.9228764   4.4270711  50.6992683  27.9054585   4.3948784  49.3696671
  27.1603260   3.4216721  49.3666801  27.8123207   5.4876089  50.0821533
  28.5266666   6.1753321  49.8902016  26.7355461   5.8541155  51.0464134
  25.9220104   5.1311107  51.1058006  27.1400280   6.0646605  52.0364456
  25.9625263   7.0572572  50.5707283  25.1182518   7.5627861  51.3114090
  26.2619305   7.5018535  49.3583870  26.7515697   6.9294829  48.6855202
  25.4532757   8.5018816  48.7490501  25.2441998   9.2925806  49.4695930
  25.9756107   8.9080753  47.8828659  24.0701218   7.9342599  48.3057594
  23.9027729   6.7301726  48.2209473  23.1146450   8.7752609  47.9707451
  23.3609447   9.7452602  47.8345566  21.7899570   8.3966551  47.3800735
  21.4071808   7.5325055  47.9230537  20.7512970   9.4513836  47.6696129
  20.9160728  10.3766403  47.1174812  19.7552109   9.0874119  47.4177437
  20.5461388   9.8809452  49.1522026  21.4429588  10.4068031  49.4797516
  19.3121529  10.8870697  49.2468033  18.4028606  10.3249207  49.0340233
  19.2524605  11.1094666  50.3122063  19.3556271  11.8362713  48.7127380
  20.3858318   8.6711464  50.1603279  21.1392899   7.8837256  50.1411476
  20.2700863   8.9331112  51.2120285  19.4216900   8.2157679  49.9341316
  21.9242496   8.0498829  45.8847237  22.6739693   8.6997089  45.0929756
  21.1749268   7.0362382  45.4985237  20.5345764   6.6314917  46.1665306
  20.8686066   6.7144260  44.0493011  21.8021202   6.8447604  43.5018806
  20.3327179   5.2545018  44.1031570  19.4845486   5.1674747  44.7822266
  20.0866451   4.8718047  43.1126556  21.3167458   4.2894635  44.7639656
  21.4737568   4.7151456  45.7550468  21.0166321   3.2416503  44.7530670
  22.7283039   4.2134490  44.0740585  22.5886707   3.8710999  43.0486794
  23.2566376   5.1654844  44.1249924  23.5521240   3.2664673  45.0250168
  23.5180759   3.7134893  46.0185509  22.9713821   2.3539803  45.1599541
  24.9727898   3.1415067  44.6368752  25.0210724   2.6533728  43.7539864
  25.4917927   3.9999812  44.5195618  25.4790478   2.6973257  45.3895416
  19.7235279   7.5979896  43.6364326  19.0200253   8.1049185  44.4824371
  19.5119991   7.7592053  42.3104134  20.2073536   7.2995381  41.7400742
  18.4887962   8.6533766  41.6669350  18.8404102   8.7982349  40.6454201
  17.1466694   7.9857659  41.5981255  16.6238861   7.8514304  42.5450974
  16.5674019   8.7159481  41.0329742  17.1694374   6.6500325  40.7051010
  17.4738636   6.8438406  39.6765785  17.8996086   5.9958191  41.1814995
  15.8770924   5.8740554  40.7870636  15.0342836   6.5076122  40.5106926
  15.9569149   4.9918146  40.1519432  15.5004292   5.3435740  42.2133942
  16.3506470   4.9544520  42.7735825  15.0603666   6.1830382  42.7516785
  14.4930315   4.2924452  42.0780220  14.1239462   4.0324264  42.9814949
  13.7269325   4.7755795  41.6310577  14.8380747   3.4793301  41.5882378
  18.2851944  10.0384445  42.2670364  17.1783104  10.5295706  42.2554359
  19.4055843  10.6801453  42.6097031  20.3390236  10.3489695  42.4119339
  19.4228630  11.9556170  43.2923965  18.4358444  12.1174212  43.7256584
  20.4290085  11.9440069  44.4245567  20.4321861  10.9563560  44.8856850
  21.4399300  12.3044167  44.2341805  19.8964176  13.2353792  45.6458130
  20.1584072  14.2947674  44.8751297  19.7203903  13.1273136  42.3231964
  20.6521740  12.9296818  41.5404739  19.0591908  14.2339258  42.4578018
  18.3279724  14.1664476  43.1512451  19.2143936  15.5478048  41.7675247
  20.0605602  15.3943081  41.0977936  17.9577198  15.8700142  40.9528961
  17.0504799  15.7306709  41.5407715  17.8899250  17.3029194  40.4498787
  17.6952038  18.0928802  41.1752396  18.9243069  17.4509487  40.1396523
  17.3128014  17.2716312  39.5257301  17.7808437  14.8763943  39.8135071
  18.4773140  15.1798573  39.0318794  17.9844933  13.8755226  40.1941490
  16.3270206  14.7199717  39.2678604  15.7276726  14.5663681  40.1652412
  15.9231253  15.6081800  38.7820015  16.3818836  13.9583302  38.4900475
  19.5277424  16.6620350  42.8117409  18.8275738  16.6626282  43.8362350
  20.4629841  17.5755119  42.4828720  20.9536686  17.4518547  41.6087799
  20.6954842  18.7905960  43.3193932  19.7039719  19.1467628  43.5989456
  21.4560947  18.3364792  44.5730705  21.3186264  19.1286201  45.3090820
  21.0721416  17.3754864  44.9153709  22.9792290  18.0407734  44.4552422
  23.1022282  17.3814220  43.5960426  23.4364605  18.9959888  44.1971550
  23.5790119  17.2975883  45.6432877  24.6623039  17.4160366  45.6198921
  23.1689377  17.7491798  46.5466232  23.2879391  15.8754120  45.5011635
  23.3173981  15.4155931  44.6023865  23.1983871  14.9350948  46.3962021
  23.1175556  15.0914021  47.7040634  23.1909027  14.3659058  48.4029045
  23.1704597  16.0489197  48.0210190  23.1931648  13.6524706  46.1313972
  23.1905212  13.0671692  46.9545135  23.6371307  13.3817806  45.2655334
  21.1951351  19.9473705  42.5246849  21.8952370  19.7070312  41.4894066
  20.7669258  21.2086143  42.8441162  20.4142036  21.3258801  43.7832298
  21.0755749  22.4823475  42.1597900  21.7477837  22.3940086  41.3063087
  19.9058304  22.9937267  41.3446655  20.2164898  23.8069267  40.6886940
  19.2203159  21.9361458  40.4296684  19.9372368  21.1895275  40.0880661
  18.5142403  21.3102818  40.9754257  18.6750679  22.3610725  39.5869102
  18.8559418  23.6370773  42.3404808  19.2929764  24.6034660  42.5918732
  17.8834114  23.7218857  41.8556175  18.7547588  23.0670605  43.2640305
  21.6473541  23.4903908  43.1150818  21.4916000  23.3257008  44.3098869
  22.2442245  24.5982971  42.6694527  22.4247913  24.6233311  41.6760406
  22.7049160  25.8125267  43.3364487  21.9976768  25.9087925  44.1602478
  24.0139427  25.5577908  44.0372581  23.9034042  24.7600803  44.7717896
  24.7229424  25.2912655  43.2534256  24.4260731  26.7768497  44.9113960
  24.7224007  27.5237389  44.1748848  23.6704750  27.3667641  45.4302139
  25.8441162  26.4593105  46.0726357  27.1831570  26.3122330  44.8899956
  28.1257553  26.0152645  45.3497925  26.7262211  25.7508640  44.0750237
  27.2721081  27.3237610  44.4937630  22.6495934  27.0906677  42.3985901
  23.5281925  27.2122326  41.5618782  21.6224823  27.9845104  42.6142883
  21.0633392  27.8967419  43.4508018  21.5999966  29.3262730  41.9869461
  22.0203876  29.3913307  40.9833794  20.1081905  29.7810478  41.7857399
  20.1857090  30.8220577  41.4720726  19.5464611  29.1414642  41.1049385
  19.3800621  29.8924885  43.1026573  19.2043228  28.9225616  43.5679054
  19.8496113  30.4979973  43.8778877  17.7136459  30.5981045  42.9398460
  16.9484291  29.1620216  42.1387634  17.2103653  29.3420143  41.0961304
  17.3010921  28.1910515  42.4865379  15.8629036  29.2580414  42.1616707
  22.4968281  30.3722572  42.7561684  22.3921490  30.3808823  44.0158195
  23.2707863  31.2600288  42.1149063  23.1386909  31.4013424  41.1236038
  24.1456776  32.2264175  42.7901459  24.1997433  32.0611610  43.8661880
  25.5762920  32.2679482  42.2209473  25.3973331  32.6581497  41.2190437
  26.5104122  33.0951614  43.0542564  26.3534489  32.9695702  44.1255608
  27.5356007  32.7249985  43.0461349  26.5440350  34.1279831  42.7074890
  26.2749081  31.1031017  42.0001907  26.4627361  30.7391071  42.8684235
  23.4530678  33.5824318  42.6576958  23.0841064  33.9512711  41.5739670
  23.2147751  34.3708115  43.6869164  23.4409389  34.0092316  44.6024551
  22.2208481  35.4772491  43.6622734  22.1787205  35.7144508  42.5992317
  20.8295116  35.0185051  44.1250305  20.4746723  34.2521439  43.4359131
  20.8370476  34.2732925  45.4641037  19.8652782  33.8583488  45.7316628
  21.5409546  33.4421883  45.5074997  20.9647713  34.9779091  46.2858696
  19.7567883  36.0942688  44.0967522  19.9762554  36.8363571  44.8643761
  19.7350807  36.5474777  43.1056786  18.7444649  35.6991577  44.1815376
  22.6792717  36.7122421  44.4106789  23.2408466  36.6058731  45.4821281
  22.4008617  37.9245529  43.8603745  21.7413578  37.8367157  43.1004791
  22.8461552  39.2313652  44.4153366  23.8161545  39.0443649  44.8760223
  23.1180382  40.1284485  43.2361031  22.1929417  40.2626648  42.6754951
  23.3825493  41.1144295  43.6181641  24.2450352  39.6818733  42.2947731
  25.2275295  39.7644653  42.7595139  24.0821667  38.6198959  42.1109848
  24.2434673  40.4001045  40.9636230  24.8221397  41.4957352  40.8196831
  23.5918217  39.8230019  39.9599838  23.7118587  40.2913361  39.0732193
  22.9148979  39.0814781  40.0695992  21.8714600  39.6769333  45.5214386
  20.7858295  40.2234764  45.2040596  22.2300453  39.5291786  46.7950439
  23.1761703  39.2486610  47.0101166  21.3749714  39.8927574  47.9416962
  20.8623791  40.8133774  47.6627502  20.3215656  38.8107414  48.2462387
  19.6912117  38.5633430  47.3920975  20.9172783  37.3907661  48.5237885
  21.2715893  37.2044716  49.5376244  20.0722637  36.7122650  48.4067917
  21.7679443  37.1318321  47.8933716  19.5645714  39.0877647  49.4179420
  19.2478447  38.2318573  49.7157822  22.2185078  40.0338020  49.1641731
  23.1776524  39.2116737  49.4074364  21.8216248  41.1336708  49.9077034
  21.0209255  41.6951332  49.6552353  22.4288101  41.5129967  51.1602249
  23.4885674  41.2652893  51.0996971  22.4842453  42.9960594  51.3917923
  21.5029907  43.4183311  51.1751671  22.6421566  43.1723900  52.4557800
  23.4802437  43.8070641  50.5730515  23.2474861  44.9426079  50.0731468
  24.6343040  43.2868805  50.4275208  21.8899536  40.7266388  52.3956718
  22.5055771  40.8673973  53.4597092  20.8909531  39.8295860  52.2524071
  20.4444218  39.7585030  51.3492699  20.3274632  39.1296005  53.3775978
  19.9196014  39.8534241  54.0831718  19.0991898  38.3202477  52.8691216
  19.4421253  37.6632919  52.0698051  18.5977974  37.3731956  53.9493675
  19.4037189  36.7143745  54.2727051  18.1356087  37.9339790  54.7617760
  17.7640667  36.8504257  53.4806519  18.0332355  39.2375603  52.4215508
  17.5122261  39.6904678  53.2650719  18.3046455  39.9924660  51.6836090
  17.3400211  38.5099716  51.9994507  21.3953571  38.2100296  54.0254211
  22.0906887  37.5576935  53.2421722  21.5640507  38.1789894  55.3674126
  21.1245308  39.2318687  56.2678261  20.1236191  38.9313507  56.5776100
  21.1697865  40.1855850  55.7420158  22.0141850  39.2048340  57.4477310
  21.4783936  39.5373344  58.3368149  22.9569302  39.7159767  57.2526360
  22.1693993  37.6814270  57.6019936  21.2691517  37.1280289  57.8692131
  23.0313625  37.5133858  58.2476616  22.5895710  37.4588890  56.0952835
  23.5744877  37.8850021  55.9043236  22.6480637  35.9229431  55.6698380
  21.6198673  35.2534637  55.3940239  23.8324585  35.2383423  55.7092781
  24.6328716  35.8281097  55.8870659  24.0908127  33.7980576  55.3742065
  23.8406677  33.7047348  54.3174095  25.6106453  33.5477219  55.5843735
  26.2053909  34.3238754  55.1027451  25.8235397  33.5905952  56.6525230
  26.0742664  32.1834793  54.9979744  25.6507587  31.3550911  55.5658836
  25.6912441  32.1510696  53.9780006  27.6010685  32.1225853  55.0854073
  28.1754608  32.0158081  56.1619225  28.3509274  32.2450981  54.0520401
  29.3510666  32.1662216  54.1686554  27.9735069  32.2276917  53.1153717
  23.2115746  32.8411942  56.1897125  22.8510170  31.8101406  55.6904831
  22.9542007  33.2560005  57.4105568  23.2820072  34.1436653  57.7636833
  22.1102543  32.4224319  58.2663651  22.2386074  31.3537903  58.0942192
  22.5089626  32.7519798  59.7245255  21.9242783  32.0422745  60.3098145
  23.5634212  32.5037041  59.8452606  22.1824741  34.1808434  60.2441864
  22.5183983  35.2313995  59.5545235  21.7686520  34.2544479  61.4415321
  20.6191711  32.7785912  58.2136192  19.8318863  32.1648712  58.9324989
  20.2123871  33.7576370  57.3961258  20.9324932  34.3494606  57.0071640
  18.8200550  34.0969772  57.1987572  18.2418804  33.5195084  57.9201126
  18.6034412  35.5992317  57.3704567  19.3490181  36.2673187  56.9393234
  17.6069298  35.8982315  57.0453987  18.6785431  35.9925728  58.9185982
  17.8529472  35.5779228  59.4970093  19.6170273  35.5650063  59.2714920
  18.5017300  37.4834633  59.0698547  17.8749409  38.1136665  58.2532196
  19.0089970  38.1111870  60.0973473  19.3685684  37.6011887  60.8915215
  18.8569279  39.1096001  60.1095161  18.3579922  33.5143433  55.8530617
  17.1324387  33.4787064  55.6824112  19.2277012  33.1804504  54.9066772
  20.1291008  33.6326561  54.9622345  18.8877888  32.3747520  53.6875229
  17.9901924  32.7569122  53.2013397  20.0306225  32.4656639  52.6801376
  21.0032368  32.4217033  53.1702271  20.1324062  31.3740902  51.6160355
  21.1496868  31.2760868  51.2370491  19.9233303  30.4070301  52.0733986
  19.4331322  31.5041542  50.7900772  19.8840122  33.7935677  51.7832222
  19.0275745  33.7852211  51.1090202  19.5708408  34.5932999  52.4543800
  21.1384716  34.1686897  51.0589676  21.4490337  33.5290565  50.2328186
  20.9536877  35.1555252  50.6345787  21.9755707  34.2925110  51.7460175
  18.6231995  30.9224052  54.0667381  19.1624527  30.4566593  55.0951042
  17.6861935  30.2632771  53.3897133  17.2777100  30.8379059  52.6665001
  17.2335472  28.9025269  53.5690727  17.8099442  28.3838902  54.3351555
  15.7298012  28.8781796  53.8663712  15.1887245  29.3679771  53.0567818
  15.4424171  27.8294582  53.9418259  15.3099737  29.4430332  55.2052422
  15.6141357  30.4893684  55.2329483  14.2292213  29.4208126  55.3452110
  15.8791780  28.8845844  56.4784546  16.9579353  28.7616844  56.3821297
  15.5804472  29.4473114  57.3628731  15.3837614  27.4746284  56.5263634
  15.0131865  27.0537167  55.6863594  15.5456495  26.6417618  57.5386734
  15.8144169  27.0313454  58.8003006  15.8194551  26.3471489  59.5432434
  15.6914816  28.0210915  58.9596443  15.3747568  25.3764229  57.3535957
  15.4984083  24.8429432  58.2022476  15.3095284  25.0074539  56.4156685
  17.4118729  28.1949959  52.2220726  17.3213196  28.8207169  51.1711731
  17.6515121  26.8999310  52.2752533  17.9447575  26.6428490  53.2069283
  17.9154263  25.8673782  51.3061409  17.8911572  26.3668118  50.3375969
  19.2306843  25.1626663  51.6474075  19.1707401  24.6392555  52.6016350
  19.5838394  24.5403461  50.8251572  20.2687054  26.1517544  51.8978577
  20.8567104  26.8906021  50.8825493  21.5986900  27.8515491  51.5088959
  22.0022984  28.6861382  50.9548531  21.5517979  27.7265034  52.8651505
  21.9814663  28.3164024  53.5633659  20.7165489  26.6256618  53.1182060
  20.4225502  26.2697811  54.0945816  16.7452049  24.7924652  51.2744827
  16.0639992  24.5683098  52.2736359  16.4821243  24.2082996  50.0748177
  17.0882359  24.4058666  49.2914276  15.2687635  23.3474045  49.8892975
  14.7175217  23.3972626  50.8283119  14.4259548  24.0001640  48.7536087
  15.1123629  24.1980305  47.9303284  13.1850157  23.2024651  48.3727455
  13.4369488  22.3186054  47.7867241  12.5042801  23.0198784  49.2042274
  12.6316109  23.7695961  47.6242752  14.0453691  25.3824215  49.1319122
  14.9099884  26.0417652  49.0556908  13.3787432  25.7459812  48.3499031
  13.7395573  25.4210892  50.1774178  15.6641436  21.8624954  49.6944656
  16.3227730  21.5682220  48.8069153  15.0114193  20.9416275  50.4736900
  14.3975048  21.1739559  51.2413063  15.1445045  19.5124722  50.2792130
  15.6362247  19.2978172  49.3304062  16.0519390  18.8441315  51.3895302
  15.5867767  19.1125717  52.3380394  16.0063248  17.7609367  51.2767944
  17.4490299  19.3751984  51.2462006  17.7614803  20.7862053  51.4522476
  16.9783955  21.4500618  51.7876205  19.1075916  21.2760124  51.2131004
  19.3761272  22.3209419  51.2622032  20.0926456  20.3369808  50.7720718
  21.2678528  20.8367653  50.2661972  21.8987904  20.1462097  50.0502052
  19.8433590  19.0075550  50.6832809  20.5634747  18.3372765  50.2376785
  18.5095882  18.5141144  50.9210205  18.2895756  17.4819832  50.6914520
  13.7848635  18.9027996  50.1773376  12.9463291  19.1372643  51.0750389
  13.5812931  18.1626949  49.1125526  14.3528080  18.0128021  48.4782066
  12.2393818  17.6322575  48.7221680  11.5255795  17.7426395  49.5385056
  11.5971127  18.3853111  47.4500504  12.3515396  18.3979301  46.6634254
  10.7351322  17.8145008  47.1046944  11.1298180  19.8604660  47.6529465
  11.9606533  20.5053864  47.9391098  10.5188465  20.4712048  46.4327393
   9.6237459  19.9297905  46.1265373  10.3257694  21.5355644  46.5667610
  11.2863359  20.4408741  45.6593475  10.0718136  20.0161686  48.6781883
  10.4437857  20.0013409  49.7026520   9.6948547  21.0374184  48.6229324
   9.2498827  19.3200340  48.5110779  12.3670912  16.1218891  48.4681396
  13.4983273  15.6256866  48.4559937  11.2234974  15.4209042  48.3600960
  10.3233576  15.8628130  48.2394104  11.1729736  13.9706717  48.0736847
  10.1224432  13.6850595  48.1277542  11.5775728  13.6946974  46.6170921
  12.6236639  13.9486980  46.4459801  11.3469801  12.6647549  46.3447952
  10.7589493  14.7275181  45.7111130  11.0192604  15.7816000  45.8072853
  11.0099058  14.4253578  44.6943436   9.2143517  14.6380119  45.7339249
   8.6654329  13.6241360  46.2435265   8.4994593  15.5497131  45.2307205
  11.8970585  13.1696911  49.0981331  11.8505392  13.3729362  50.3106194
  12.6646385  12.1271811  48.6938553  12.5553932  11.8873901  47.7188339
  13.4287424  11.1448278  49.4407196  12.7576361  10.9180040  50.2691345
  13.7592840   9.9008570  48.6577682  14.4220572  10.1274786  47.8226166
  14.2829905   9.2033558  49.3114662  12.5885048   9.0863047  48.0543861
  12.0788965   9.7488365  47.3547783  12.8927898   8.1868734  47.5190964
  11.6576118   8.6472540  49.1679840  12.1935282   8.1688995  49.9877815
  11.2326651   9.5485840  49.6097145  10.5281448   7.7500496  48.6457443
  10.9584942   6.8066545  48.3097229   9.8806028   7.7216735  49.5220909
   9.8421164   8.3780603  47.5158920  10.3116360   8.3928165  46.6217804
   8.9318066   7.9446149  47.4562149   9.6457882   9.3500872  47.7075157
  14.7213631  11.8582649  50.0008659  15.3689451  11.2694502  50.8236694
  15.1180353  12.9690390  49.4228477  14.4975300  13.3300695  48.7124062
  16.2363758  13.7997904  49.7959976  16.9795666  13.0680323  50.1127014
  16.8317928  14.5331421  48.6289482  17.7586765  14.9993486  48.9630699
  16.8438721  13.9717722  47.6946983  16.1492462  15.3219948  48.3128014
  16.0383472  14.7659845  51.0607567  16.9389725  15.4496775  51.4974747
  14.8307276  14.7622461  51.6720657  14.0956879  14.3045578  51.1521263
  14.5288219  15.4423189  52.9237480  14.6811047  16.4860191  52.6487923
  13.0283661  15.2138767  53.2356224  12.4009724  15.4583139  52.3784599
  12.7870407  13.8343115  53.8553772  13.1461201  13.6585255  54.8694115
  11.7152443  13.6428576  53.9073219  13.2153025  13.0730877  53.2032776
  12.4500589  16.0188980  54.3760986  11.3709517  15.9081001  54.4826393
  12.8332071  15.8207703  55.3771172  12.7448626  17.0407333  54.1372490
  15.5356531  15.1812792  54.0671310  15.8825598  16.1069126  54.8335838
  16.0105915  13.9278307  54.1465607  15.5601072  13.3211260  53.4764252
  17.0470085  13.5039415  55.1076164  16.6083469  13.7460670  56.0756378
  17.3599815  11.9972496  54.8660507  18.0685558  11.7063131  55.6415329
  16.0719528  11.2385521  55.0610771  15.2768774  11.5771370  54.3967628
  16.3157234  10.2006092  54.8344688  15.6428461  11.1821566  56.0614700
  17.9608345  11.6068373  53.5284233  18.8909302  12.0940714  53.2358017
  18.2924004  10.5793419  53.6781502  17.1770420  11.7404356  52.7828217
  18.3549366  14.2510204  55.0155716  19.1363773  14.2351570  55.9612122
  18.6261082  14.9113159  53.8729858  17.9505768  14.8867445  53.1225510
  19.8104439  15.8025970  53.7410393  20.5608063  15.3534575  54.3916817
  20.2942905  15.7375298  52.2759323  19.5018520  16.1436958  51.6473045
  21.1541805  16.3881702  52.1166878  20.5548916  14.3323355  51.7314758
  19.6369438  13.7470188  51.7851257  21.0790672  14.6311188  50.3055420
  20.9733257  13.6943722  49.7583427  20.3588371  15.2957602  49.8284416
  22.0881538  15.0337934  50.3932724  21.5218887  13.4075994  52.4734535
  22.4869728  13.9101362  52.5380325  21.1681976  13.2787962  53.4963989
  21.5867176  12.4033890  52.0545731  19.6045990  17.2359161  54.2209969
  20.5665474  18.0111790  54.2590904  18.3846645  17.6279602  54.7449150
  17.6652184  16.9196167  54.7722359  18.0794849  18.9811382  55.2219734
  18.1996002  19.6327133  54.3564568  16.5532990  19.2788754  55.4022522
  16.4375210  20.3344746  55.1564674  16.0951595  18.6968002  54.6026306
  15.8684816  18.8283634  56.6938362  16.4148636  17.9553108  57.0506897
  16.0507240  19.5184326  57.5176620  14.3836594  18.5659161  56.4439278
  13.8885422  19.4861717  56.1339493  14.3135471  17.8927765  55.5894890
  13.6011086  18.0116787  57.6827316  13.0902309  17.1434288  57.6102943
  13.6612015  18.5378094  58.9571190  14.1504822  19.6797848  59.1900864
  14.4844484  20.2180309  58.4034119  13.7829857  20.1287746  60.0167999
  13.1201963  17.8500557  59.9185295  13.2201080  18.2585945  60.8367958
  12.5051737  17.0591240  59.7909279  19.0508614  19.4671822  56.3307724
  19.1792412  18.7641468  57.3482399  19.6526623  20.6499271  56.2480011
  19.6115475  21.5112896  55.0516930  18.6337204  21.9749756  54.9214935
  19.8712139  20.9591331  54.1484756  20.7998772  22.5368938  55.2525558
  20.5026131  23.5446968  54.9626160  21.7703381  22.1467342  54.9458313
  20.6726227  22.6276550  56.7520638  19.7380829  23.1653862  56.9120026
  21.5158844  23.1855736  57.1591759  20.5715504  21.2178268  57.2212334
  21.5288353  20.6978588  57.1846504  20.0796261  21.2849293  58.7127876
  20.9508038  21.2131786  59.5788269  18.8271656  21.4540043  59.0668945
  18.1778049  21.5649700  58.3013115  18.2980785  21.4516487  60.4634361
  18.9098072  22.2387524  60.9043007  16.9243622  22.1892395  60.5690002
  16.1006908  21.4758682  60.5411415  16.8044205  22.6561337  61.5466080
  16.6318073  23.1948833  59.4391365  16.6187267  22.7870617  58.2874260
  16.2470016  24.2995968  59.7855568  18.3038120  20.2175922  61.3224525
  17.9076443  20.1428909  62.4716911  18.5678177  19.0130844  60.7149849
  18.7509079  19.1777649  59.7354622  18.4989128  17.6943398  61.3435287
  17.6117344  17.7094784  61.9766083  18.3182640  16.5783787  60.3068008
  19.1353703  16.6132946  59.5862312  18.4352589  15.5842981  60.7383308
  16.9852905  16.6783085  59.5481415  16.8484173  17.6772003  59.1339111
  17.0743885  15.7042847  58.3465919  17.5006237  14.7358313  58.6083488
  16.1248989  15.6070786  57.8201675  17.7414398  16.1879845  57.6330223
  15.8525257  16.3358746  60.5174141  15.1007824  15.7877464  59.9494858
  16.1942635  15.5945826  61.2397728  15.4825325  17.2523327  60.9771004
  19.6718292  17.3285122  62.3461151  19.8257256  16.1543217  62.6807289
  20.4465313  18.2972546  62.7252388  20.2933960  19.2282867  62.3649139
  21.7819901  18.1329327  63.2846794  22.2946129  17.4044456  62.6564827
  22.5739536  19.4651108  63.4371185  22.2855244  20.2255859  64.1627808
  23.6290226  19.3114014  63.6636162  22.5001984  20.0318661  62.1685753
  23.0317764  19.5424061  61.5365486  21.7153282  17.4699326  64.6995087
  22.6233521  16.6541061  65.0983658  20.6779327  17.7430973  65.5379181
  20.0062790  18.4633217  65.3137360  20.6174488  17.1107140  66.8250580
  21.6378956  17.0776291  67.2067566  19.7894955  17.9039936  67.8214874
  18.8228283  17.9282017  67.3184280  19.6680737  17.3699436  68.7639008
  20.2084522  19.3274097  68.1021576  20.4329567  19.9178638  67.2138596
  19.0679836  20.0200825  68.9254379  18.6188297  19.1938686  69.4765625
  19.5008659  20.8196163  69.5266571  18.3464794  20.3917828  68.1978607
  21.4442501  19.2637711  69.0093231  21.9611416  20.2228889  68.9774933
  21.1583099  18.9773426  70.0214005  22.0944557  18.4393616  68.7166290
  20.1696987  15.6578484  66.7355576  20.6369305  14.8163986  67.5204544
  19.3059254  15.3771391  65.7388077  18.8277340  16.1720066  65.3392792
  18.8700314  14.0041018  65.4835815  18.4905396  13.6033087  66.4235001
  17.7093391  14.0247355  64.5314560  18.0342636  14.3699141  63.5499382
  16.9071312  12.7404118  64.3623123  16.0885296  12.9325085  63.6686974
  17.5214138  11.9482775  63.9341965  16.5638008  12.3644361  65.3260880
  16.7362175  14.9269476  64.8867035  17.1226578  15.7955456  64.7532883
  19.9082088  13.0535240  65.0549088  20.1789455  12.0535460  65.7161865
  20.6915112  13.4502487  64.0626755  20.2898464  14.1560125  63.4621201
  21.8000469  12.7560177  63.4308395  21.4853973  11.7869501  63.0435371
  22.3364506  13.4819832  62.2269974  22.4317741  14.5470772  62.4381599
  23.3399067  13.0821047  62.0811424  21.4102554  13.4151211  61.0081863
  21.4605541  12.3877068  60.6476402  20.3682423  13.6576891  61.2166710
  21.9873486  14.2374821  59.8597527  22.1316013  15.2325134  60.2807121
  22.9332466  13.8139248  59.5221481  20.9217701  14.3935766  58.7835579
  20.0413990  14.9210024  59.1508026  21.3241100  15.0976400  58.0551910
  20.4876995  13.1009417  58.1491585  21.2568016  12.4570255  58.0310326
  19.9039459  12.6044302  58.8070450  20.0023918  13.1891260  57.2677956
  22.8838139  12.4986668  64.5192566  23.7106647  11.5652027  64.3798065
  22.9714603  13.2589674  65.6155090  22.2787285  13.9642057  65.8225403
  23.9719887  13.0556135  66.6927567  24.9340305  12.7154694  66.3095093
  24.0190315  14.3375063  67.5639954  23.8523808  15.2191525  66.9450989
  23.3064766  14.3296595  68.3888016  25.3432140  14.6273508  68.1949615
  25.4685287  14.6756182  69.4741364  26.4205704  14.6984625  67.4634399
  26.3262806  14.5724926  66.4657669  27.2942333  14.9280853  67.9151993
  23.7368507  11.8752890  67.6599045  24.7312241  11.4733133  68.3148804
  22.5517578  11.2031288  67.5924072  21.8494205  11.7266750  67.0896912
  22.2080536   9.8805723  68.2623367  23.1477261   9.3676147  68.4672546
  21.5535755  10.1144323  69.5555267  21.2233353   9.1465740  69.9327393
  22.4993992  10.8025694  70.5539093  22.7481613  11.8237219  70.2650070
  22.0356197  10.8013878  71.5403214  23.4759064  10.3200674  70.5955658
  20.4442101  10.9059067  69.4285736  19.9058495  10.6241732  70.1718063
  21.3336964   8.8613625  67.5202789  20.9163799   7.7853460  68.0337372
  21.0682011   9.2255154  66.2597885  21.5418396  10.0720720  65.9785233
  20.2117977   8.3829994  65.4345551  19.2463036   8.1404362  65.8785019
  19.9276543   9.0657425  64.1313858  19.2303448   9.8123341  64.5114746
  20.8252258   9.4855099  63.6772270  19.0576439   8.3133116  63.1047707
  18.5984726   9.0713949  62.4702873  19.7979794   7.7517056  62.5350304
  17.9387989   7.2891355  63.4522400  17.4060364   6.6680303  62.5130348
  17.6008472   7.0648928  64.6708069  20.9336319   6.9954419  65.2534103
  22.1599197   7.0244141  65.2392883  20.2178783   5.8972645  65.2097931
  19.2162571   5.9420428  65.3316498  20.7955914   4.5837474  64.7583771
  21.7959671   4.4523950  65.1708069  19.9272842   3.3929789  65.3574905
  19.1704044   3.0756257  64.6401825  20.5345516   2.4879150  65.3711472
  19.4192371   3.5905044  66.8682098  18.8081036   4.4885492  66.9583893
  18.3938885   2.4461348  67.1686020  17.9016151   2.7772496  68.0830002
  17.6791382   2.2432084  66.3710709  19.0939960   1.6191832  67.2873459
  20.5831127   3.7287838  67.7988663  20.1222191   3.7234023  68.7866135
  21.2316341   2.8658812  67.6474762  21.1574860   4.6226125  67.5554428
  20.9684544   4.6221328  63.2649078  22.0728016   4.3307014  62.7484131
  19.9656925   4.8615427  62.5189247  24.0381298  20.1910686  27.3802223
  23.5074692  19.2724438  27.6211624  25.0782318  20.1387272  27.0656185
  23.5060177  21.3827076  27.7247009  24.3031750  22.6983376  27.6819191
  23.7913170  23.6994362  28.2020226  25.4711494  22.7639732  27.3200188
  22.2218246  21.4001541  28.3637161  20.9567642  21.4544601  27.7105198
  20.1317596  21.4420528  28.4332962  20.6297188  20.2628899  26.8951435
  20.9171391  19.2842426  27.2735138  19.8302288  20.2903214  25.7727737
  19.2340641  21.5612736  25.3745327  18.4858952  21.5358620  24.5845985
  19.6602478  22.7199554  25.9261932  19.2693043  23.6898727  25.6262779
  20.8514709  22.7140121  26.9410973  21.7417889  22.7224598  26.3004284
  20.8112316  23.8733406  27.8578930  21.5925655  23.8169689  28.4350147
  19.4220924  19.0029068  25.1702785  19.6619205  17.9402637  25.7652245
  18.7454166  19.0328884  24.1395264  45.9656029  21.7682419  37.6776505
  46.3543549  21.1558571  36.8668594  46.4959946  22.7047825  37.8361092
  44.8470192  21.4564896  38.2933960  44.3910599  22.3440456  39.4476814
  44.8047142  23.5374165  39.5274963  43.4967194  21.9465256  40.1985435
  44.1636467  20.2513313  38.0355453  43.3474197  20.1618252  36.8580818
  42.9859619  19.1316071  36.7522888  44.2778549  20.4134197  35.7197914
  44.8924446  19.5410748  35.5080872  44.4267807  21.6252155  35.0758362
  43.5035133  22.6955700  35.5041542  43.7502213  23.6157970  34.9781151
  42.5208893  22.5130596  36.4085579  41.8364944  23.3038769  36.7081261
  42.2366257  21.2400703  37.0956192  42.2320480  21.4465008  38.1729126
  40.8976326  20.9455929  36.7860451  40.6197929  20.0831795  37.1406937
  45.4510498  21.7712135  34.0021858  46.3519096  20.9384460  33.9437714
  45.4091797  22.7133236  33.2699242  24.0712643  16.2931309  52.3079643
  23.3006935  16.8776302  52.8060684  24.5455017  15.5351257  52.9276848
  24.2344189  16.5972900  50.9382591  23.4947834  17.7597466  50.2723122
  23.1059017  18.7053299  50.9055252  23.4618301  17.7925663  49.0641556
  25.1431789  15.9410734  50.0988541  26.2792072  15.2447681  50.6196899
  26.8384991  14.9904070  49.7110176  26.0296593  14.0053730  51.4829788
  25.1878891  13.4820976  51.0345116  26.8115711  13.6197920  52.5407486
  27.8825264  14.4990530  52.8372917  28.4942627  14.1499157  53.6669159
  28.0638714  15.6741190  52.3083725  28.9052544  16.2336655  52.7114983
  27.1674652  16.3348389  51.2441101  26.4904785  16.9686031  51.8299751
  27.9348545  17.0918083  50.3287048  27.6345463  18.0106087  50.4398460
  26.5113049  12.3642750  53.3034210  27.3614349  11.8255844  54.0787468
  25.4598198  11.8219900  53.0594063   3.3444705  45.4098129  31.4502087
  19.2757225  41.0828629  14.6519003  44.1618118  46.6174240  67.0641708
  44.8879318  69.6375809  88.4671326  58.7403374  11.4319344  86.4927979
   0.7099653  44.3200836  30.3638687  18.3161602   5.0324655  61.0310516
  74.0655975  30.3221951  52.0804024  83.3257065  41.7662659  82.9706802
  10.9201527  10.5217743  27.2577553  10.6541939  11.4266338  27.0942707
  11.5401535  10.3238277  26.5558662  46.9417229  48.1920471  58.1351013
  47.6130943  47.6190224  58.5054131  46.1804810  47.6239014  58.0169716
  34.9389839  32.3612938   7.4272556  35.0497093  33.2525139   7.0960441
  35.6112900  31.8522224   6.9743924  23.1319180  51.6798058  38.0146294
  23.4340076  50.7738914  37.9490814  22.2914371  51.6857491  37.5566025
  70.3946152  29.1845741  84.0669479  71.1629181  29.6895714  84.3332748
  69.6578979  29.7808800  84.2007294  67.7492828  41.9170876  50.2346649
  68.4659271  42.5334396  50.0838127  67.8741837  41.6205406  51.1361580
   4.3142881   8.5171099  67.3237381   3.6405210   7.9133854  67.0110245
   3.8791513   9.0295286  68.0051422  45.5857849  60.5483360  43.9965973
  46.2596245  60.2918930  44.6262093  46.0526848  60.6266632  43.1646729
  44.8548660  55.0267372  84.1251831  44.9543190  55.7674103  84.7232971
  45.1293983  54.2664032  84.6377792  60.3270683  58.5793343  12.0290565
  60.2525635  59.5010948  12.2761126  59.4892082  58.3740807  11.6142168
  20.1615257   9.3596735  59.9681892  19.5740108   9.6674967  59.2780380
  19.7467728   8.5624838  60.2978859  75.8481140  19.6189251  88.9854660
  76.3091812  18.7819691  88.9292831  75.7985992  19.9263229  88.0803146
  18.6832695  51.3917427  80.1386337  17.7747383  51.6792374  80.0483704
  19.2023487  52.1580086  79.8944550  76.7430038  14.6742306  60.8251801
  76.1476059  14.9466953  61.5233879  77.5216293  15.2170496  60.9489708
   5.4126115  19.4741802  25.8549576   6.0602145  19.6475143  25.1717319
   5.2912469  20.3183117  26.2896347  84.5530624   5.6900053  28.1747570
  84.0640259   6.3845220  28.6160297  84.3201675   5.7828517  27.2509766
  11.3423929   8.9919300  29.2975330  12.1872520   8.6222963  29.0409870
  11.0751410   9.5223179  28.5468693  49.2685585   1.9782358  68.2970810
  49.9669342   1.3256048  68.3478241  48.4687576   1.4885720  68.4888611
  71.1348114  49.3811417  51.0640259  71.1446075  48.9328079  50.2183723
  70.9948654  50.3023987  50.8450966   8.1207819  17.7738247  31.9489174
   7.2833648  17.6782227  31.4952374   8.6328983  17.0151920  31.6688347
  61.3262482  -0.1104677  54.7382393  60.5245209   0.3866874  54.9004135
  62.0329247   0.4939725  54.9651604   3.6845982  23.8119850  37.5601959
   3.9403415  22.9041977  37.3966446   3.1468210  24.0491467  36.8046951
  85.1673126  66.7088013  29.0270176  85.9358063  66.3829041  29.4954605
  84.5090179  66.8406601  29.7092915  57.7389832  44.7929230   2.5772159
  57.0177345  45.1964569   2.0943153  58.5168762  44.9913139   2.0559137
  54.6626282  47.7960091  42.7869225  53.9573097  47.7585793  42.1408920
  55.3935814  48.2012138  42.3202896  40.3669090  62.8050995  62.4754295
  40.8191223  62.1966438  61.8910370  39.8500786  63.3593712  61.8907089
  55.5256996  23.2499943   4.5940137  55.5450401  22.2974968   4.6867838
  55.9547119  23.4176750   3.7549272  85.9359131  10.4052553  74.2241440
  84.9818039  10.3507156  74.2783051  86.1288986  10.3069181  73.2917709
  42.0073357  58.8786583  51.4290733  42.3925400  59.7398567  51.2672462
  42.7236023  58.2629242  51.2739487  44.7502327  54.8962097  75.3587036
  44.7026749  55.0421028  76.3035278  44.9973145  53.9756508  75.2706375
  48.7236290   6.4140720  57.8840332  49.3820763   7.0053082  58.2488861
  48.3359947   6.9050884  57.1595497  53.9233932  63.0267372   7.0077968
  53.0911789  63.1512756   6.5515695  53.7051849  63.1234932   7.9347572
  53.7344856  38.3920288  64.8486862  53.9152756  38.5732536  63.9263496
  53.1336327  37.6470680  64.8330994  40.6493263  42.8714638  20.6660633
  39.6998100  42.8349495  20.7814617  40.9605522  42.0189934  20.9704666
  78.2287445  41.0622177  35.0012054  78.4892426  41.1486092  35.9182167
  77.9020844  40.1654243  34.9284821   9.2265930  62.2611885  22.9899101
   8.7529373  63.0750771  22.8182449  10.1227674  62.5405426  23.1771660
  37.6758003  63.3454056  25.1486244  36.9232674  63.9361839  25.1185246
  38.0218277  63.3526421  24.2561874  44.5734367  13.2459736  70.6269073
  44.2091293  12.4680805  70.2045364  44.9743423  12.9162664  71.4311447
  68.0385284  24.0397987  13.1347179  67.2404709  23.6239471  13.4609232
  68.0801086  24.8756905  13.5992470   4.2446222  17.4756374  67.7216415
   4.1540413  16.6328526  68.1663208   3.3451796  17.7780437  67.5960007
  11.0268993  24.9029026  70.7513657  11.8570633  24.4271145  70.7775192
  11.2555981  25.7646484  70.4030533  73.4282379  12.6687336  29.6280422
  74.1153488  12.3733749  29.0306492  72.7036514  12.9188299  29.0547543
  50.4201584  55.1604652  59.5629654  50.5625687  54.2579956  59.8484459
  51.0402260  55.2850685  58.8444748  51.6296120  61.1577835   6.9924889
  52.0571289  60.5973549   6.3448925  50.6991882  61.1112595   6.7725425
  74.4930878  35.1502151  44.6205978  74.3989792  34.2354927  44.3547745
  75.3936996  35.3758621  44.3877373  78.9714050  25.8587437  62.8141136
  78.3257370  25.2537212  62.4490128  78.7695160  26.7001266  62.4047890
  27.8170166  66.7615356  81.9530869  28.0730515  66.0110626  82.4892426
  28.3100185  66.6540985  81.1396713  16.6603832  59.0645981  32.3568230
  17.5978165  59.0297470  32.1664619  16.2822647  59.5339394  31.6131992
  79.1686707  28.5037384  80.5360870  79.6568527  27.6860962  80.4392929
  78.2505264  28.2337494  80.5545959  73.1504822  23.9026985  25.3285847
  73.1570129  24.1372757  24.4005966  72.2906113  24.1844387  25.6407986
  28.9085045  39.6071777  15.9285393  29.0724277  40.5268555  15.7198477
  29.5787868  39.3850670  16.5747757  37.5513268  71.2891541  72.0355530
  37.6519814  72.2371063  72.1220856  38.2207413  71.0341797  71.4006500
  62.4131813   8.0611706  16.6855717  62.2192383   7.1493316  16.9027500
  62.1858292   8.1403008  15.7591372  75.8704300  10.8707428  41.9966927
  75.0739288  11.0503120  41.4971237  75.6380081  10.1334658  42.5611687
  28.4693222  70.0818329   2.1606281  28.0254154  70.4300003   2.9339042
  29.1610355  70.7169724   1.9752576  35.0236588  10.8875446  59.2933235
  34.4582596  10.9129534  58.5213737  34.5771294  11.4392929  59.9355240
  19.6910515  58.3133087  35.9012833  20.1981392  57.6843796  35.3879166
  20.3499889  58.8377800  36.3562088  61.4202423  30.3197765  32.0324898
  60.8747139  31.1017952  32.1166191  61.4957581  29.9832306  32.9253883
  80.3343048  48.4347649  52.7481308  81.2214813  48.1376114  52.5459938
  80.0829544  47.9297943  53.5214729  66.9489365  39.1047935  80.6010818
  67.0412903  39.9913635  80.9499207  66.7628937  39.2316399  79.6707458
  32.8626823  20.5858727  79.7789001  32.5553741  20.2224083  78.9484253
  32.5113335  21.4761047  79.7953568  82.9632187  53.0632591  82.7239532
  82.1519470  53.5657997  82.6496429  83.2136230  52.8774643  81.8189621
  83.6037445  19.9519978  31.6913948  84.3264008  20.5575085  31.8568096
  84.0120163  19.2062702  31.2515793  47.7342682  56.1919479  19.5845985
  47.4186172  57.0065155  19.1933479  48.2331047  56.4723511  20.3519096
  41.1473885  40.8689690  81.0959015  40.5145302  40.3304672  80.6207809
  41.1741295  41.6927376  80.6091537  47.4327736  25.0103703  66.2581406
  47.9090996  24.1965580  66.0936584  47.0721321  24.9031048  67.1382904
  76.1864700   9.2907467  77.0514832  76.5531616  10.0434418  77.5154037
  76.9067307   8.6617765  77.0084763  24.7766323  44.2076530  69.2448120
  25.5310154  44.6553421  68.8617783  24.0175381  44.6386948  68.8521118
  71.0478897  35.4888000  13.7641506  71.0294037  34.6199951  14.1654825
  71.9242020  35.5591316  13.3855190  78.4748459   8.3666306  22.1326122
  78.6659622   7.5065408  22.5067120  79.3351135   8.7514610  21.9650459
  75.5833664  22.4099140  51.4277191  75.8341751  22.7969074  52.2665062
  74.8076324  22.9022274  51.1592064   9.1043549  70.6639709   5.4835601
   8.5710182  71.4582672   5.5131493   8.5419846  69.9839172   5.8543649
   6.0670586  59.9050484  58.6478462   5.9341249  60.0365829  59.5866013
   6.7058444  59.1942406  58.5936813  38.6860657  23.7517624  80.6606369
  37.8227386  23.3399200  80.6965027  38.5042038  24.6738682  80.4793091
  64.3101730  57.4227448  26.0030632  64.3156128  56.6047554  25.5059757
  64.8344650  57.2336006  26.7812519  58.3061295  16.1787949  14.0358515
  57.4591026  16.5378056  13.7714911  58.8391876  16.9474430  14.2389746
  37.5859871  62.1208000  71.7144470  37.7507820  63.0351143  71.4840088
  37.6416168  61.6503906  70.8826752  56.6031609  70.2619476  86.9350967
  56.3538589  70.9256134  87.5782242  57.3025017  70.6722107  86.4263382
  77.1279907  35.0178680  19.1032543  77.6050873  35.5188103  19.7648201
  76.3217163  35.5141563  18.9623775   9.6939478  67.5141068  34.6201210
   9.3276863  66.6778717  34.9078674   9.2904015  67.6712799  33.7664986
  21.6738758  25.2298717  59.7178230  20.7384262  25.2226124  59.9205856
  21.7649136  25.8901100  59.0307808  82.0621796  60.7217598  74.6614304
  81.4938049  60.5406723  73.9128342  82.9097900  60.3525810  74.4134445
  32.5947723  68.2367859  72.6676254  32.2121620  67.7411804  73.3916550
  33.3422241  68.6908035  73.0567474  71.7039871  41.1162910  50.8792763
  71.1289825  41.8558464  51.0758896  72.5887451  41.4712410  50.9656258
  42.8514214   4.9887238  20.8202419  43.5559273   4.3420610  20.8618164
  43.3022919   5.8325853  20.7911701  10.6023092  42.6959496  15.4489269
  11.5499439  42.7851524  15.3476210  10.2361279  43.3817596  14.8905315
  82.4893951  55.5487061  75.3830643  82.2375107  55.2175179  74.5210266
  82.0964966  54.9319992  76.0007553  75.2664566  51.1519127  76.3201752
  75.5491714  51.6910858  75.5815277  76.0704575  50.9734268  76.8079987
  62.2070694  22.4550819  21.2086258  62.1676598  23.3487282  20.8679256
  61.3560295  22.3198929  21.6253777  75.8509903   4.2650213  50.2671204
  75.3779678   4.5623999  51.0443268  76.1443024   5.0710506  49.8422470
  48.0701027   7.9421144   5.4642663  48.9528503   8.2190800   5.2187548
  48.2070618   7.2017083   6.0552592  32.8095245  40.6237640  86.1402206
  32.1607170  41.2661896  85.8528671  33.6526337  41.0199280  85.9200974
  54.6091385  63.1468544  30.8701630  55.1543579  62.5427361  30.3661709
  55.1304321  63.3485603  31.6472073  60.0226860  33.1075058  52.9920502
  60.8265457  32.8876190  53.4628906  60.0673637  34.0560760  52.8718529
  47.4405289  59.6788979  21.5820084  48.0879364  59.0427742  21.2779636
  46.8424568  59.1693192  22.1287022  82.4995575  51.5820580  77.0102921
  82.1542358  50.7041664  77.1724396  83.4389648  51.4500847  76.8825302
  20.1672516  50.4905663  56.5336723  21.0519753  50.3907013  56.8851280
  19.6247787  50.6771088  57.2999344   2.5151916  24.3709030  78.1585312
   2.5633485  25.1949863  77.6739731   2.2257118  23.7286034  77.5105515
  35.4777832   5.3957715   4.0490708  35.4734077   5.6505036   4.9717436
  34.7727242   5.9097013   3.6553676  25.1814041  14.3699074  72.4382095
  25.3533974  14.4865332  71.5038376  24.2702103  14.6410723  72.5496979
  33.9497185  24.6481209  81.2792206  34.3220787  24.9451008  80.4489288
  33.8190956  25.4509068  81.7839050   8.0524940  17.2439899   7.6886554
   7.1611743  16.8986416   7.7388153   8.0379639  17.8361301   6.9367309
  68.3679962  25.8579655  73.1155930  67.8250885  26.5249863  72.6953888
  69.0245895  25.6333466  72.4562988  63.8870163  36.8048172  72.7672577
  64.2358932  36.1948814  73.4172592  62.9448738  36.8211632  72.9355698
  81.9400940  53.9162941   7.1641726  82.7360153  53.4273987   6.9550667
  82.2542877  54.7175751   7.5830584  37.2527962  45.1892967  67.5699310
  36.4023705  45.6152534  67.6774597  37.0419769  44.3080788  67.2613220
  27.2423458  44.4587593  81.6780930  26.5882778  44.0322723  81.1244354
  27.3077698  43.8951797  82.4490204  81.5532990  31.8456612  59.8312416
  82.4439545  32.0485611  60.1172409  81.1815186  32.6930122  59.5862770
  33.2787323  50.5053482  21.1191902  33.0417900  49.8082199  20.5075512
  32.4783783  50.6683502  21.6182842  23.7612782  51.7341194   1.5898310
  24.2202187  50.9005852   1.4857959  24.4485722  52.3965034   1.5183839
   6.4413886  51.9804459  46.2735939   6.9301105  51.1688309  46.4102135
   5.6659288  51.8891716  46.8272743  78.4471512  60.3728485  81.3871536
  77.6653900  60.5978432  80.8827057  78.3690567  60.8858795  82.1914673
   7.1358457  64.3279953  11.5647964   7.5824785  65.0774841  11.1710691
   7.8390074  63.8062477  11.9515476  44.5743141  51.1968842  52.5659294
  44.8180428  51.4855804  51.6864510  45.3444939  51.3857117  53.1020317
  24.4002113  60.6784782  67.0532303  25.2523651  60.8447075  67.4562607
  24.0665913  59.9054642  67.5086212  28.5939636  10.9815168  83.5062027
  28.0788841  10.3012524  83.0724182  28.1487503  11.1228867  84.3416824
  39.9130516  37.9806366  10.4020815  39.3006973  37.7340813   9.7089262
  40.7455940  37.5902214  10.1362095  58.3378830  45.5798950   9.1295805
  58.9786568  45.3599014   9.8057785  58.6568375  45.1359100   8.3438463
  50.0356941  53.8162117  49.6435127  49.5513306  54.5762863  49.9658623
  50.5855255  53.5521164  50.3811913  39.9460220   4.1865129  25.5801544
  39.4000702   4.1269550  24.7961750  40.1094666   5.1235175  25.6875839
  67.1527405  63.6041832  45.0619049  67.9684906  63.3880157  45.5136261
  66.4672775  63.4201164  45.7041626   4.0451722  46.9118195  64.7136993
   3.7158370  46.8118782  63.8205147   3.8609726  46.0709801  65.1323853
  78.7038803   6.7028551  50.9683380  78.8763199   7.1880817  50.1614609
  79.5718536   6.4701705  51.2980423  17.2792377  60.0543060   2.7895987
  17.3067551  60.1720505   3.7391307  18.1948757  60.1052704   2.5152986
  18.0571880  30.6835938  13.7886457  17.4735432  30.4935570  14.5231361
  17.7867279  30.0723705  13.1034517  38.7165718  40.9740829  22.3956184
  38.8752899  40.0499268  22.2033138  37.9885178  41.2162094  21.8233013
  21.5728893  30.1375122   2.4977248  21.2637730  30.3828888   1.6256757
  22.0106583  30.9227295   2.8263919  34.4196739   1.7385972   0.3410684
  34.0073090   0.8844939   0.4702838  34.3911285   2.1513841   1.2042161
   8.7757874  29.4328537  19.0927620   9.6472158  29.1587124  18.8069439
   8.3365240  28.6182137  19.3369751  43.9767723  69.9160995  67.3666306
  43.6517029  69.2196884  67.9372177  44.0870094  70.6693039  67.9469376
  53.5922813   3.7031331  59.2290802  53.7325020   3.4039567  58.3307152
  54.4701309   3.7405677  59.6088295   4.8747373   5.8229918   6.8120861
   4.6697211   6.0995846   7.7052250   4.5371299   6.5279655   6.2595787
  74.9165497  26.1426105  52.2269440  75.1337814  25.7759094  51.3698692
  74.1893616  25.6047688  52.5402451  24.3381252  48.9731522  16.9210587
  24.6426239  49.8696098  16.7800694  24.8794746  48.4417267  16.3373146
  32.4353828  55.7997818   5.1033683  31.9389172  56.3975716   4.5444350
  31.8862133  55.6853714   5.8789678   5.6332693  23.7085018  74.8479996
   5.4114223  24.4852886  75.3614426   6.2606053  24.0228558  74.1969528
  69.3672028  53.9024467  45.4708099  68.7118835  54.3559799  44.9406281
  69.5761414  54.5190926  46.1724701  18.3274326  51.4469147  15.5461903
  18.6830235  50.6261253  15.8869095  17.3823586  51.3003159  15.5064831
  21.5300865   6.3882222  70.0546036  21.1417809   6.7559023  69.2607117
  22.4515514   6.6436200  70.0109634  55.4688492  41.4435921  27.4453506
  55.0518150  40.8767014  26.7965450  56.1103210  41.9483376  26.9453716
  60.0821190  36.4946365  80.0304718  59.9955063  36.9501839  80.8678513
  59.5115700  36.9793205  79.4339981  14.6269665  24.6063995  86.8649750
  15.3892202  24.7097759  87.4346390  14.1743698  25.4483318  86.9153519
  48.1159744  26.3061180  87.6900177  47.6581383  26.8858681  88.2987137
  48.3621292  25.5482407  88.2203598  35.7033310  58.1317787  25.9406757
  35.1924591  58.9405899  25.9080276  35.0483780  57.4339447  25.9235497
   2.0632021  37.0238266  11.6198788   2.5951133  36.3265266  11.2363758
   1.9656804  37.6652718  10.9161243  12.2632189  71.4351120  71.0574799
  12.2250690  70.8205185  70.3246384  11.9079475  72.2509079  70.7046432
  38.2675667  44.2600822  22.2502937  37.6279526  44.9716301  22.2215137
  39.0103722  44.5850143  21.7414742  73.8897095  71.4510803  87.9525604
  74.0040436  71.4290924  88.9026566  73.4301987  70.6367645  87.7477036
  70.0656891   7.8790812  59.6396332  69.7601624   8.2715139  60.4574852
  70.0344162   8.5944242  59.0043869  12.4769325  47.4753036   1.4705878
  13.1981478  47.1397514   0.9381539  12.2275190  46.7381325   2.0279093
  80.0353012  27.4929447  30.1379128  80.8270340  27.4949570  30.6758614
  80.2950058  27.9318466  29.3278790  80.4536591   1.9858296  55.3084335
  80.2528381   1.0696218  55.1174660  80.8913651   2.3046362  54.5191269
  36.4930725  14.8880291   9.6625957  35.8830147  14.1863508   9.8899908
  35.9873543  15.6922932   9.7793713  19.0798206  66.3680344  32.7835579
  18.5219135  66.4660873  33.5551529  18.5032501  65.9945374  32.1170006
  71.2177200  22.2290154  35.5605049  72.0528564  22.5931740  35.8540573
  71.1401749  22.5118122  34.6493263  30.7016010  42.5332985  75.6099930
  30.1955986  42.0242462  74.9767075  30.7365685  43.4138336  75.2362747
  26.6034985  58.2249184  52.8699608  27.5545235  58.1645699  52.7797318
  26.4005699  57.6844063  53.6334419  58.7394295  28.1404991  34.1543541
  57.8303642  28.3965950  33.9986458  59.1920815  28.9636822  34.3379517
   6.7947617  67.7535095  71.5134201   7.7137842  67.7167664  71.7785263
   6.7582531  67.2431335  70.7044678  29.3613491   5.9732623  82.4181366
  30.2669449   5.8535714  82.7041473  28.9537945   5.1170568  82.5486908
  77.7950821  45.0687675  80.0457840  77.4892426  44.7343407  79.2026596
  78.5197678  45.6531105  79.8230438  12.2968636  19.0664806  69.5294266
  12.1819515  19.8451309  70.0741577  12.7989426  19.3740940  68.7747574
  65.7740479  52.5059853  32.2956352  65.1815262  52.7168808  33.0172119
  65.6421432  53.2122612  31.6631756  68.4681473   0.4034038   4.9601178
  67.9785843   1.0716881   5.4396548  68.3003006  -0.4073258   5.4405107
  26.4120903  31.6306419  81.5296631  26.6252270  30.7008438  81.4504318
  26.0006866  31.8540516  80.6947632  12.8372326  67.7203979  27.7400475
  12.2381954  67.6020889  27.0028992  12.3590155  68.2827148  28.3494244
  62.0141068  16.9220829   2.9653032  61.9105339  17.3925190   2.1381428
  61.2528534  17.1805954   3.4848163  66.5028458  59.8216820  39.5802155
  66.7574615  60.6007538  40.0746384  66.3264465  59.1603775  40.2493896
  12.3736277  52.3635559  20.8589745  13.2075510  52.2725334  21.3199730
  11.9604559  51.5038681  20.9393215  27.7469978   0.3871903  55.4150620
  28.1978168   0.1400241  56.2224655  28.2722607  -0.0052517  54.7176971
  50.1637421  61.2688026  87.9288940  50.7694550  60.8870049  87.2936249
  50.0513916  60.5876961  88.5919952  14.9310856  67.7630386   6.7657204
  15.1381111  68.3972244   7.4521446  15.5435209  67.0422821   6.9129214
   9.6219721  68.9469681  86.7164383  10.2749863  69.6375656  86.6029434
   8.8385105  69.2844696  86.2822495  49.6633034   6.6792688  79.4039688
  50.5439491   6.8018866  79.0494766  49.7910957   6.6306686  80.3513489
   0.2098349  33.6600609  33.3476334   0.5791963  34.4947891  33.6357918
   0.3517313  33.0677185  34.0860291  32.7510872  24.3231640  84.5110474
  32.3946381  25.1476040  84.1801758  33.6743584  24.5117149  84.6791229
  78.1952820  20.5625629  84.6084595  78.5417480  20.5492363  85.5006638
  78.9313354  20.2880306  84.0615692  82.1122894  34.7713394  33.0034637
  81.7814789  35.5631866  32.5794601  81.8252106  34.0571823  32.4344292
  11.3368788  40.5426865  29.8174076  12.1777153  40.1398849  30.0341473
  10.6840010  39.9453583  30.1823463  74.3740692  19.1903172  78.2568817
  74.9735565  18.8861485  78.9382935  73.6735611  19.6342220  78.7348709
  86.3991852   0.9549926  24.9313488  86.0976791   0.4733275  24.1610718
  87.0377960   1.5800124  24.5881824  66.5752182   3.8738797  82.1118851
  66.9989166   4.4620771  81.4867935  65.7800980   3.5825903  81.6656113
   9.8759918  46.8152657  22.0913868  10.0166035  47.5394058  21.4814014
   8.9582787  46.5728264  21.9678745  39.9081612  66.8233643  42.1298599
  39.4688950  67.6266022  42.4092941  39.9078636  66.8703766  41.1738129
  65.4670868  54.0786972   0.9448585  65.5335388  55.0279732   1.0482581
  65.9898911  53.8853493   0.1667034  68.2423172  51.8685951  51.1573677
  67.9298859  52.1671524  52.0114632  67.4505692  51.7975197  50.6241608
  32.8740120  33.3149185  67.4336319  32.2659073  33.1951523  66.7041855
  33.4191551  32.5281944  67.4226379   1.2412066  11.7813501  60.5767708
   0.7683895  11.8787069  61.4033279   0.7079835  11.1721182  60.0661392
   4.0850496  61.4322739   6.7764320   4.0205483  60.4872932   6.9145494
   4.4247122  61.5215530   5.8859882  60.7984200  32.8976707  80.4884872
  60.1283722  32.6293182  81.1171722  61.5294151  33.1954117  81.0299911
  63.1447029  28.2184830  23.3556824  63.6059418  27.5572395  23.8716755
  63.7880859  28.9159985  23.2301292   9.8680620  42.5692520  35.5867729
  10.3950233  42.4742012  34.7933578  10.2689495  41.9675674  36.2140656
  37.9467125  46.9477348  43.4779472  37.2735176  47.2443428  42.8655243
  38.2849846  47.7526398  43.8702888  79.6444244  70.1284866  64.0292206
  79.8914642  69.7284317  63.1954536  79.2267838  69.4207306  64.5200272
  47.6056900  52.7905235  71.4862976  48.3027382  53.2015724  71.9975739
  46.8401871  53.3455238  71.6353378  47.4842110  28.4235325  71.8309708
  47.0040321  28.1878223  71.0371857  47.9038887  29.2571430  71.6183853
  55.4347420  19.5570965  60.0230675  56.2527885  19.7288094  59.5566483
  55.1696663  18.6856556  59.7288628  28.9520531  32.3412743  82.2413788
  29.7053394  31.8880558  81.8627167  28.2241154  31.7296314  82.1307831
   9.8296719  68.3521500  54.8154449   8.8861399  68.3688431  54.6551323
   9.9420195  68.8345413  55.6345367  66.8423996   2.4107437  17.8314819
  67.5225372   3.0842717  17.8286266  66.1587982   2.7582374  17.2586231
  69.8870544  56.4613953  85.6043015  69.5786285  57.2496948  85.1574326
  70.6697998  56.7446785  86.0768356  69.6069565  62.3628387  13.4448099
  69.9942856  61.5149803  13.6624041  70.3574905  62.9361305  13.2890396
   9.3306599  66.3661957  66.9614182   8.6711407  66.9228058  67.3754883
  10.1582985  66.8228455  67.1121368  77.4985046  65.0943451  86.9018478
  76.8329697  65.7823029  86.9006882  77.4740753  64.7359695  86.0146103
  79.0280991  50.6844482  16.1100826  79.2845230  51.6005173  16.2163582
  79.4257812  50.4190712  15.2808304  86.4457245   5.5279250  35.5247231
  87.3517075   5.2388577  35.4158020  86.5106583   6.3281794  36.0458832
  77.2060699  61.0245628  14.5180407  76.7915421  61.1733704  13.6681833
  77.1140671  60.0836601  14.6679316  30.1917038  49.1373749  63.6174812
  30.6275654  49.5603943  64.3572845  29.4657288  48.6539001  64.0117493
  27.1988373  36.7735977  12.5062857  27.0741520  35.8517952  12.7320452
  27.9380493  37.0544205  13.0456696  79.8197174  31.9132423  70.3629990
  80.5561752  32.0913315  70.9479294  79.3026199  32.7186317  70.3768921
  39.9065399  32.5449562  60.0960503  39.3756294  32.4456177  59.3057976
  39.3093948  32.3341751  60.8138351  30.4072933  57.1089134  74.8403168
  30.4114017  56.6546974  73.9977570  29.5094795  57.4264717  74.9368439
  44.2707825  60.3664932  82.2284927  43.4479370  60.7336617  81.9054718
  44.8764915  60.4518013  81.4922409  15.8229971  43.6557274  57.2573204
  16.1911602  43.2528992  58.0437164  16.4001827  43.3699875  56.5491982
  20.1786213  17.1204338  84.9798203  19.3427658  16.7723999  84.6692581
  19.9675179  17.9953289  85.3057404  52.7546082  14.2811193  63.0936852
  52.8035965  14.7350912  62.2524109  51.8301773  14.3278093  63.3375626
  21.6863480  49.8896179  50.1886292  21.5273685  49.4140663  51.0039864
  21.5017223  49.2516251  49.4993477  14.1713724  15.5428848  26.3241844
  14.8754969  14.8956709  26.3636036  13.4393606  15.1285591  26.7810497
  40.5132217  18.4825554  12.5015230  39.7304497  18.7592926  12.0251656
  40.7787209  19.2574921  12.9967155  61.9155235  19.7364483   3.8955412
  62.7794266  19.5195827   3.5450089  61.7404518  20.6199512   3.5714984
   3.5468202  19.5297909  75.0508575   3.4861715  19.9377232  74.1870651
   4.0840669  20.1336040  75.5637054  76.9948807  69.9500275  85.0765305
  76.2255325  69.8835983  84.5109177  77.6654510  70.3499527  84.5227890
  40.2128067  54.8764420  46.1505928  40.1970062  54.0147743  45.7340469
  40.4877510  55.4737396  45.4549828  33.6782799  55.3970718  33.9105911
  32.8747406  55.1585388  33.4483643  34.1295624  55.9942017  33.3139267
  50.5313339  32.9426384  83.9992676  49.6412430  33.2250175  83.7889481
  50.4522324  32.5174103  84.8531723  46.6427345  11.9175310  19.1907730
  46.5702972  12.7051058  18.6515961  45.7896996  11.4912643  19.1079350
  13.0135784  53.1237679  51.3058624  12.7006741  53.8480530  51.8478355
  12.5277910  53.2110596  50.4857292  68.8582001  57.8210831  11.6653166
  68.0423889  57.4376259  11.3433666  68.7160339  58.7661629  11.6120253
  79.7180328  24.3851528  55.4497490  79.3242340  23.5347290  55.2549858
  79.9062347  24.3527794  56.3877029  76.8612976  18.4888687  62.3085823
  76.6165314  17.7589550  62.8773918  76.7950516  19.2619686  62.8690834
  63.6530457  23.1256371  28.7493916  64.5656128  22.8409138  28.7982750
  63.4470634  23.1101761  27.8147449  58.4108696   0.1305445  31.2468796
  58.7961388   0.9710512  30.9991913  57.8178902  -0.0827350  30.5263805
  16.8386307  56.3672180  22.9402409  17.7873402  56.2914925  23.0424652
  16.4910679  55.5641785  23.3282642  73.2463303  46.8781738  83.4419174
  73.3644104  47.7999268  83.6714020  72.9284973  46.8949203  82.5391846
  76.4816818  24.3143997  69.1363907  75.7013474  23.8828392  69.4843521
  76.3966446  24.2334385  68.1864166  25.2395115  56.6744232  47.0127182
  24.3512859  56.6368904  47.3675079  25.2085247  57.3769188  46.3632774
  49.8831863  69.4155960  87.0048523  49.5533600  68.5761566  87.3254623
  49.2816086  69.6559296  86.3001709  45.6953964   9.7264013   1.7304904
  45.1769485   8.9245186   1.7970377  45.0461273  10.4281073   1.6826199
  77.2485657  11.2020483  29.3947830  77.9520874  11.5629864  29.9342384
  76.7202072  10.6862822  30.0039310   7.9964752  30.5930233  65.0026245
   7.3279042  31.2650299  64.8697662   7.8931670  30.0016823  64.2570572
  45.3647575  25.9548435   3.7895982  45.3015404  25.6681137   2.8785427
  44.7889900  26.7177811   3.8410792  49.9613686  68.3458939  16.4692726
  49.7000351  67.9547195  15.6356544  50.2849236  67.6096268  16.9883556
   6.8526096  32.2724571   7.9822965   7.7273302  32.1727371   7.6065965
   6.7718606  33.2103767   8.1555662  62.0200119   1.8221893  46.5376167
  61.2084198   1.8455944  46.0306625  61.7437210   1.9841901  47.4396439
   2.2838440  26.5827637  42.2317657   1.9273686  25.9415474  42.8465843
   2.4162774  26.0901012  41.4218445  38.2307930  24.6647263  72.7594910
  38.0326691  25.5998116  72.7085724  38.7487488  24.4865437  71.9745102
  65.1440125  23.9078617  10.9382334  64.5543365  23.1638622  11.0606003
  65.6962585  23.6565456  10.1978970   4.5229635  51.0200653  79.0897827
   3.7746968  50.5339890  79.4362793   5.1344352  51.0739708  79.8242416
   1.9972652  38.8032761   3.9196696   1.4383891  38.7529411   3.1441984
   1.4197487  38.5704155   4.6466374  65.9429474  65.3290405  87.6341858
  66.6975937  65.9083405  87.7397690  65.2940750  65.6659622  88.2519913
  47.4283180  46.0236092  13.2152023  47.5207558  46.3454247  14.1119308
  46.6030693  46.4000969  12.9094944  54.0000877   0.7525634  73.3390121
  54.6681557   0.1490156  73.6640472  53.2056999   0.5090687  73.8142929
  50.8700752  16.6243801  20.2213821  50.6379318  17.4937782  20.5477085
  50.5922699  16.6303158  19.3054008  71.0030518  49.8089638  83.2166748
  71.6505280  50.5138855  83.2260513  71.4090118  49.1178207  82.6934586
  32.3564491   5.2120399  86.2694702  32.0713501   4.3330965  86.5192871
  33.2095604   5.3159447  86.6909409  44.7453728   8.4509315  77.9699783
  44.3073349   7.6879258  77.5929184  44.3584824   8.5432606  78.8406219
  22.8069344  49.2887611   3.2690761  23.6451588  49.1933136   2.8168561
  22.3915272  48.4302902   3.1872458  17.6586742  25.9569130  66.1775436
  17.2088184  26.4403248  66.8704910  18.4006596  26.5131702  65.9403381
  49.8239975  28.6547699  65.7428665  48.9646988  28.2695923  65.5711823
  49.7954369  28.9016685  66.6672363   9.4905005   6.6068258  73.5891495
   9.1672363   6.0046082  72.9190292   9.7581530   6.0394020  74.3120804
  14.4989500   7.3309827  67.8531265  15.3275261   6.8616872  67.7558899
  13.9479733   6.9929848  67.1471405  55.6461372  62.6564217  87.1781311
  56.4496689  62.7060165  86.6603394  55.2848358  63.5421982  87.1450577
  65.7344208  55.3471985  72.7147980  64.8125000  55.5632820  72.8548355
  65.9861755  55.8586578  71.9458618  11.9423943  57.0649071  31.4784698
  11.3243256  57.6773605  31.0795650  11.7282772  57.0820389  32.4112549
  51.5741043  60.9115982  11.5901804  51.9124832  60.6194000  10.7438030
  52.1951714  60.5629959  12.2297001   4.1085896   6.4823775  57.0112228
   4.4720216   7.0617781  57.6808815   4.7134786   6.5599837  56.2734451
  18.3251514  40.0117226  82.6194611  18.6272469  40.6605110  83.2551041
  17.9192333  39.3267860  83.1507950  57.7456436   8.6969824  27.6629868
  57.9687614   7.7919593  27.4453049  56.9704971   8.6252356  28.2199688
  85.8269196  70.4321213   6.9047503  84.9064713  70.3856583   6.6462092
  86.0909119  71.3269882   6.6908269  79.8885498  36.9322815  26.6314678
  80.7135925  37.1549530  26.2002506  79.9137955  37.4122238  27.4592648
  57.9725685  44.6542358  24.5624180  58.0845108  45.3227501  25.2382812
  58.8279877  44.5986557  24.1365032  65.5055618  50.7630234  42.1766357
  64.9159470  50.5477562  42.8992996  66.3737488  50.5138855  42.4935265
  55.7634773  59.3609428  61.9804115  54.9192390  59.2753601  62.4233208
  55.7445183  58.6908379  61.2971611  64.6132584  11.8063440  15.4264317
  64.0390854  12.2896032  16.0205822  65.3055954  11.4613438  15.9902363
  15.0201578  11.5463820  82.0428162  14.9103813  11.7180405  82.9780807
  14.4199896  10.8234854  81.8599243  56.4646530   5.9871831  17.7392826
  56.3159142   6.5968342  17.0164852  55.6929054   6.0842485  18.2971497
   1.6302350  13.6160755  58.8266182   1.4913329  12.9691086  59.5182610
   1.4674742  13.1368332  58.0141716  41.6519585  59.9342041  78.9910355
  41.0989304  59.1753693  79.1769562  41.9175262  60.2540283  79.8532562
   1.1073358  11.5044384  72.3434906   0.5517660  11.9071007  71.6760788
   1.9985843  11.7444296  72.0898895  26.0341034   4.1066027  70.3307724
  25.4885120   4.6182880  70.9280472  25.4207878   3.7626994  69.6813049
  25.5736389  61.4725380  56.6945000  25.3381462  62.3778229  56.8975639
  25.3026676  61.3529778  55.7842712   7.5142112  49.9110718  42.9276810
   7.0504117  49.4585075  42.2231903   7.9994736  50.6079483  42.4859657
  30.4603672  42.3601418  53.8022003  30.6029816  41.9564934  54.6583328
  30.5336380  43.3004494  53.9655418  30.7258644  49.8989334  84.2564240
  31.4638042  49.8347816  84.8626862  30.5002537  50.8291550  84.2513123
  64.3740311  53.4283638  60.8613396  63.5814705  53.1691551  60.3913498
  64.0922089  54.1460381  61.4285736  57.9040756  26.7067890  57.1436272
  57.6666794  26.9054031  56.2378540  58.8604584  26.6676979  57.1375084
  18.0186481  54.4484367  75.0362244  17.8191357  53.7452240  74.4182281
  18.6660728  54.0687141  75.6302643  76.6236954  14.3615160  27.1979179
  76.2500000  13.5019264  27.0037785  76.1524887  14.6571417  27.9768944
  38.1811676   5.2492542  70.2728271  37.5246429   5.7780457  70.7262421
  37.6712761   4.6185331  69.7644653  69.7010803   1.8164614  21.2520828
  69.2778244   1.0713780  21.6786251  69.6081238   2.5350409  21.8775692
  27.0768070  35.7274132  62.3578873  26.6181011  36.1694031  63.0723534
  27.0233040  36.3395615  61.6239624  67.0844040   7.2323313  44.9454727
  67.0139236   7.0043955  44.0184860  66.5381851   8.0123682  45.0425224
  73.8587875  38.2199287  30.2204189  73.9430618  38.5935059  29.3431683
  73.8724442  37.2731972  30.0799026  19.1800938  15.1930389  17.4260521
  19.4382763  14.5780239  18.1125870  18.5354137  14.7139568  16.9053802
  69.5923996   7.3762665  46.1415482  68.9685898   6.7712245  45.7402802
  70.4455948   6.9627585  46.0100060   7.1119962  35.0242310  83.8343277
   7.8609705  35.4611969  84.2397079   7.2346187  34.0976830  84.0409698
  26.1079807   7.3840895  18.9922619  26.8185406   7.6353426  18.4021702
  25.4670124   8.0901775  18.9096012  80.8990936  16.9961605  63.3066101
  80.4611359  16.5591583  62.5762329  81.2039032  16.2813015  63.8654480
  34.2444725  31.1624146  65.0125198  33.3448601  31.0706367  65.3263702
  34.1603088  31.2339935  64.0617218  15.3192978   1.3966870  14.9157400
  16.0558414   1.2167960  14.3314686  15.7073126   1.8705095  15.6513815
  68.6701202   1.8951049  32.6346474  67.7537994   1.6953390  32.4431076
  68.6787338   2.8363008  32.8087387  73.3344498  28.2850361  87.1628571
  73.5457687  28.7228794  86.3383102  72.3949127  28.1105919  87.1074753
  79.0565796  39.7051888  86.2856750  78.8296280  38.7850494  86.1512680
  79.0829010  39.8089180  87.2368698  83.1123123  26.3728790  16.5863323
  83.8906021  26.0527954  17.0424519  82.7268372  27.0095577  17.1882324
  25.2141056  11.3319263  84.4617996  24.9812813  11.9974661  83.8144302
  24.3902111  10.8826027  84.6503143  61.8012848  52.7964973   4.9114952
  62.5504036  52.7876320   5.5072942  61.9132309  53.5964127   4.3978477
  14.8801260  69.3841629  64.3737259  15.6382694  68.9107132  64.0312347
  14.4828920  68.7791443  65.0001373  64.2798080  56.5412750  15.7271338
  63.7004318  55.8344688  15.4425602  64.8195953  56.1472549  16.4124184
  12.6324892  18.8180084  11.1831608  13.4017506  19.3841896  11.1206522
  11.8952208  19.4234371  11.2614069  34.4522209  68.3908157  67.3691330
  34.9685822  69.1858444  67.5015488  33.9995308  68.2577591  68.2019577
  11.4390965  12.1947584  81.9744949  12.1893826  11.8281012  81.5066605
  11.8156404  12.5826616  82.7644119   9.4768343  57.3290749  85.0018768
   9.2320156  56.4299850  84.7829437   9.8063316  57.2758904  85.8990021
  27.0880356  47.8933296  38.2892189  27.0787678  48.8162880  38.5427818
  27.0625572  47.9075279  37.3324623  67.9119568  71.0373917  18.9231758
  68.7726974  70.9835739  19.3384705  67.8269806  71.9555435  18.6662502
  14.5541229  70.3123474  21.5747089  13.8407640  69.7072144  21.3718166
  14.5306396  70.3993835  22.5276546  61.5777016  45.3373909  63.2478638
  60.6534653  45.2005081  63.0398254  61.9301414  44.4551277  63.3646202
  80.7354813  50.5857582  14.0114489  81.6270523  50.7187920  13.6895199
  80.1961212  51.1590385  13.4667673   6.1225600  38.5778656  59.3744392
   7.0056891  38.9436951  59.3245850   5.8453307  38.7432289  60.2755699
  67.1641846  45.0853882  41.6526909  67.5867157  44.3307037  41.2426300
  67.8420258  45.7610855  41.6666756  21.7005100   9.8889894  14.2623587
  22.3145237   9.6481781  14.9560652  22.2517414  10.2568350  13.5716591
  39.3011818  58.2372398  33.9871597  38.9302025  58.9674339  34.4825592
  39.2963905  57.5036659  34.6020432  20.3404999  58.6345139  64.5451889
  21.1778469  58.6222801  65.0087967  19.9283295  57.8012123  64.7731247
  76.2620850  66.7932663   6.0711274  76.1758804  67.6438522   5.6406569
  76.6898804  66.9889755   6.9047484  66.1606216  20.3479958  52.0904579
  66.8094940  20.0074596  52.7062759  66.3194199  19.8612576  51.2816925
  51.1266518  28.1134682  25.1550426  51.6243591  27.5867271  25.7803936
  50.2637367  27.7001553  25.1270733  78.8271866  65.6151428  65.9104691
  79.5123749  65.3132782  65.3141251  78.3980331  64.8129044  66.2079086
  56.9716415  11.8690834  17.7423668  57.4734955  11.9479675  18.5536327
  56.0741501  12.0871239  17.9937649   8.8666925  57.2306480  59.6950607
   9.3433485  57.9302559  59.2483177   8.4932671  56.7054214  58.9873009
  15.8138752  62.1871223  60.2135506  16.5636482  62.2716293  59.6245422
  16.1202850  62.5495262  61.0448189  77.5270691  32.7903442  73.9103546
  77.4973297  32.9079285  72.9608688  78.0509262  33.5264282  74.2265625
  64.6934128  33.1718941  67.3038025  64.7484970  33.5231934  68.1924973
  65.2146683  33.7757912  66.7748032  65.6441116  57.0064888  54.9117126
  65.2797699  57.3523750  54.0969429  65.3627396  56.0917740  54.9305992
  10.3467464  52.3587418   0.9765534  10.7645617  52.2448463   1.8301872
  10.7813282  51.7210808   0.4101956   3.2320824  41.5886040  49.5535126
   2.6932909  42.0122986  50.2216606   3.8936424  42.2429237  49.3289375
  85.5321350   8.2467518  25.6291180  85.9725266   8.0375071  26.4528294
  85.9491959   9.0559645  25.3333721  56.8989716  66.3960342  75.7176895
  56.1196442  66.4096832  76.2732925  56.5684242  66.1756897  74.8468170
  11.4470520  56.1313019  87.0007477  11.5724344  55.6017570  87.7882080
  11.2021027  56.9960289  87.3301163  59.3990517   5.3946371  85.7098007
  60.0579185   5.2237000  86.3827820  58.5620193   5.2653928  86.1557846
  80.9401245  41.6020775  82.6334839  80.2424545  42.0092468  83.1470032
  80.4992447  41.2697563  81.8515549  65.4873581  60.2960052  10.5154324
  64.9742889  59.9055443  11.2229147  65.9264297  61.0430489  10.9220934
   0.5471000  15.0004292  60.8799820   0.9369600  15.8743553  60.8577614
   1.0035745  14.5169525  60.1914253  81.5118637  10.2526808  54.9198685
  81.7169342  10.5266209  55.8138123  81.0346222   9.4296398  55.0251007
  16.2609959  63.2962074  62.7236443  16.2211399  63.0713997  63.6532135
  16.9335499  63.9752007  62.6700592  26.6745663  22.3452148  12.8769655
  27.4494877  22.8878555  13.0228071  26.6997375  22.1378384  11.9428387
  76.5293274  48.4921837  63.9391174  76.6379089  49.3407707  64.3684692
  77.0684204  48.5520782  63.1504364   1.3179855  31.6992702  13.3812943
   1.2686843  31.8053932  14.3313141   1.0203902  30.8030968  13.2246361
  52.0378647  35.8856850  43.2602310  51.5258751  36.1647682  42.5011482
  52.7191391  36.5523338  43.3478394  85.1000366   9.9108372  71.2305298
  84.1691132  10.0713997  71.3848877  85.2018967   8.9657049  71.3426971
  30.5456352  10.9122047  24.9710999  29.6926556  11.1183300  24.5887775
  31.1639462  11.4584360  24.4857616  73.6625137  26.9846439  84.1686172
  73.5492935  27.9095287  84.3877029  73.4047699  26.9230919  83.2488251
  52.1628189  51.5007782  56.3778114  51.7113304  52.0368614  55.7258873
  52.1463318  50.6158791  56.0132332  51.5984230  57.6449852   9.9789457
  51.8685188  58.5410995   9.7782965  50.6683884  57.6191025   9.7540207
  61.2249184  12.1329632  73.7283096  60.8357964  12.5566730  72.9632721
  61.4762383  12.8573313  74.3013382  24.7772598  64.2962494  86.2314682
  24.5518227  63.4976616  86.7086105  25.2789669  63.9902573  85.4758987
  45.2421570  62.6632881  45.9359818  45.4056282  61.9385757  45.3324089
  45.3847656  62.2880821  46.8049545  46.4314575  66.4003677   4.5200458
  46.3817787  65.4763641   4.7649565  45.6751060  66.5379944   3.9497638
  83.7568436   1.0552360  58.0510941  84.4349899   1.6999584  57.8493805
  84.0378418   0.6626720  58.8776321  43.0458641  41.9447136  57.3832283
  43.2656174  41.3708954  56.6492882  43.5450363  41.5927505  58.1202354
  10.5711174   8.5563717   5.4789491  10.4103832   9.4586439   5.2027245
  10.3790836   8.0303974   4.7026072  48.8960915  40.0721436  28.5124855
  48.8128777  40.6166763  27.7296734  49.1422081  40.6849098  29.2054348
  17.9449387   1.1833082   4.2744460  17.4140568   1.1524045   3.4785564
  18.2129383   2.0992625   4.3481717   4.0103722  70.7600708   8.7551708
   4.1234765  70.9834747   7.8313046   4.8843904  70.8559189   9.1335049
  22.6560535  46.3762016  18.4822979  21.9803867  46.3599205  17.8044758
  22.5980816  47.2550125  18.8572102   8.7051954  33.5560341  66.1894608
   8.1026840  33.0786629  66.7598419   9.3844328  32.9179573  65.9709930
  36.1299019  40.9984932  60.2788582  36.8351402  40.3549042  60.3471985
  35.3390236  40.5129852  60.5134239  33.9893646   0.1402145  48.5532494
  33.6903381   0.3841518  49.4292107  33.2570457  -0.3485090  48.1776314
  59.9853058  35.4945412  30.5224361  59.8670464  35.3687782  31.4639416
  60.4802170  36.3106689  30.4501133  61.9336815  53.6846504  77.5129623
  61.3877373  54.4163132  77.2251282  62.4324226  53.4371529  76.7343521
  26.3511524  60.1731758  39.8358917  26.4905262  59.5200500  39.1501541
  26.3957767  61.0132179  39.3792000  79.3342133  39.7697220  28.2515926
  79.9057770  39.2397537  28.8071842  78.6672668  40.1088753  28.8485775
  28.2062225  63.6568909  73.1675110  27.8982124  63.0324860  73.8243866
  29.1510334  63.7096481  73.3116684  76.3188629  22.3643475  83.6170197
  76.2163315  23.0130863  84.3133392  76.9833603  21.7603035  83.9483871
   1.5441781   4.6855197  32.2493362   1.1749628   4.2151947  31.5018711
   1.1816031   5.5686336  32.1794739  63.0814705  34.0538483  37.3960266
  64.0348206  33.9867973  37.3425903  62.8355789  34.5820656  36.6365814
  24.1621590  49.2125511  37.3443108  24.2393513  49.5806770  36.4641075
  24.1577911  48.2650986  37.2081413  58.7658920  31.9525490  87.4355927
  59.3625870  32.5475159  86.9815063  59.1729698  31.8112965  88.2903290
  85.6435471  61.4261436  34.9876137  85.4875717  61.5514679  34.0515594
  84.8256912  61.6965332  35.4050217  14.2013073  21.7845325  67.4714355
  15.0493374  22.2283878  67.4797134  14.3204117  21.0297031  68.0478668
  39.8877754  60.3043327  48.9215469  40.4224701  59.5109367  48.8922501
  40.2078857  60.8359375  48.1927414  12.9882154  55.7573471   5.4993558
  13.2239304  55.4099312   6.3595719  13.4409580  55.1867447   4.8783317
  52.5448723  57.4998016  52.0152588  51.9771156  57.7898216  51.3012772
  52.9728966  56.7134628  51.6765900   0.3823415  29.3698120  85.9107819
  -0.5549669  29.4709549  86.0764771   0.7846868  30.1229076  86.3434448
  18.5536575   3.1663494  55.5672035  19.0735588   3.0071754  54.7794228
  18.7213821   4.0835614  55.7835884  85.1511230   7.1458225  17.1275463
  84.7947083   6.2576060  17.1110687  85.4835663   7.2540073  18.0186176
  63.4693451  29.8291512  73.9204712  62.7663345  29.1989841  73.7626801
  64.2373734  29.4411411  73.5011673  33.9327812  69.7448273   8.9470282
  34.7491226  70.0691299   9.3273468  33.3105431  69.7512436   9.6743593
  85.7079010   3.2597938  28.2112350  85.3307190   4.1156507  28.4148769
  86.3750076   3.1257370  28.8844585  67.3625488  28.5577221  75.1796341
  67.0218964  27.6862698  74.9777527  68.2496262  28.3992558  75.5024567
  20.3321686  58.7718468   8.7857857  20.8100967  58.1235504   8.2685537
  19.4652882  58.8088951   8.3815842  28.5600109  57.7992363  69.5408096
  27.7185440  57.8035240  69.0845795  28.3288574  57.7794838  70.4694748
   8.5243578  70.4700546  59.6527634   9.0729637  71.2361221  59.8213081
   7.6537080  70.7276001  59.9558678  50.2692757   7.1698971  67.0231094
  50.6224899   7.4755001  66.1875992  49.4030304   6.8257227  66.8054123
  24.7992249  70.0007477   8.8530550  25.0402565  70.9270630   8.8616152
  23.8424282  70.0019608   8.8808146  78.6144485  38.3713303  80.4483643
  79.2004776  37.9906693  81.1025085  78.4324341  39.2528610  80.7739487
  71.0338898  41.4745026   8.1391230  70.7115173  40.7377739   8.6582937
  70.6578827  42.2472687   8.5606461  47.9793777  62.9739723  64.4773178
  47.8715477  63.2370071  63.5633087  48.2108002  62.0461884  64.4338455
  71.7360458  65.2915115  49.7111855  72.5171814  65.5830231  50.1813698
  71.4969177  66.0360794  49.1592178  34.7583809   3.2717199  87.3355484
  34.6498260   2.6726341  88.0741577  34.7986145   4.1403685  87.7356262
  13.4777260  57.6957207  65.4806900  13.2399197  57.0043106  66.0984497
  12.6559086  57.9198952  65.0441132  72.0864182  56.0387955  65.2111511
  71.1901550  55.8415680  65.4832535  72.5192108  55.1857567  65.1758423
  48.3088112  67.0288696  87.1915207  47.3606491  66.8977203  87.1962357
  48.5803833  66.8459778  88.0909805  61.6595612  47.2391548  11.0332584
  62.3400002  46.7221794  10.6020155  61.0873833  46.5892181  11.4412146
  74.5101929  34.6168289  81.9834824  73.8606796  34.3592148  82.6377029
  75.1832733  33.9381256  82.0340347  71.8612976  51.3825340  21.8539391
  71.3554535  51.4220657  21.0422745  72.7234421  51.0664558  21.5837021
  54.8067932  57.5448074  60.2884979  54.0267258  57.1383095  60.6659698
  55.5370865  57.0410461  60.6478424  86.5374603  26.7549896  74.7575989
  86.8580170  25.9842453  74.2891693  86.8494186  27.4970093  74.2396011
  64.7326279  61.4261131  21.5967789  63.9618073  61.9137840  21.3065338
  64.3823242  60.5987015  21.9267845  65.1611252  71.6835785  74.9162445
  65.5358276  70.8556671  74.6155853  65.8049850  72.0269089  75.5357666
  51.3331871  14.2869873  25.2693119  51.0554543  14.4737902  26.1660824
  50.5954285  14.5660563  24.7270393  72.1300659  16.9245815  68.4678802
  71.6099091  16.1431236  68.6549301  73.0333099  16.6092758  68.4367294
   6.3053536  47.7887955  60.6548271   6.5519171  47.2377205  59.9120293
   7.0857320  48.3136253  60.8331413  50.3137169  41.7806816  69.8008881
  50.6331444  41.6688728  70.6962662  49.5195274  41.2478104  69.7616272
   3.3122079   6.6438599  30.1096039   3.9013820   7.3390551  29.8166695
   3.1877768   6.0936770  29.3362675  77.6458817  23.9604473  81.0987625
  77.6435928  24.0267181  80.1438599  77.0796204  24.6751995  81.3898087
  67.0051117  32.3631783  29.7518368  67.2889099  33.1107903  30.2779236
  66.8144226  31.6780586  30.3925285  25.4128876  62.6809692  43.5128593
  25.3526249  62.7349930  42.5590858  25.1826077  61.7744598  43.7164345
  29.6226616  71.8090744  30.0636349  29.5427818  71.3624649  30.9064808
  28.7535515  71.7342072  29.6695881  33.2429695  15.8590536   4.7388110
  33.2866631  16.2234402   5.6228614  32.3246994  15.9538689   4.4857836
  73.3869553  60.9800148   6.1389031  74.3376999  60.8706512   6.1200328
  73.0598221  60.3417587   5.5049915  30.9102840  18.4549217   4.6926780
  30.4509487  17.6999969   5.0605512  31.0313644  18.2348423   3.7690239
  32.1518631  52.0413246  85.4831238  31.3348484  52.1253624  85.9747086
  32.6330948  52.8452072  85.6791306   7.7005548  34.3152657  37.9542656
   8.5035982  34.6807327  37.5830688   7.3459034  33.7611008  37.2590256
  74.4993820   4.4037561  32.6578979  75.0930862   4.5195723  33.3997421
  74.4030228   3.4551146  32.5740738  58.2362633   5.8655171   0.4440011
  58.8759842   6.5775390   0.4401731  57.5041046   6.2041125   0.9592988
  47.1731529   5.4534674  30.7793388  47.6713791   5.8670764  30.0744076
  47.6018448   5.7506547  31.5819206  24.0695419  64.4690094  76.3947372
  24.9198208  64.7781448  76.0821762  23.9428959  64.9198151  77.2295837
  27.6795998  60.5545082   7.4666886  27.1051197  61.0554008   6.8876281
  27.7443104  61.0872917   8.2592716  28.5080223  61.4115791  71.4659576
  29.3116646  61.4531059  70.9476242  28.4242344  62.2850761  71.8483353
  38.3059425   9.0952311  67.0785675  38.4317284  10.0014105  66.7970581
  37.7523880   8.7083435  66.4002380  60.9152679  37.6800957  37.3458443
  61.3189735  37.4914474  38.1929970  60.1646805  38.2354660  37.5565796
   6.3257780  65.8730850  36.3530693   5.4051414  65.8599701  36.6147728
   6.8051195  66.0102310  37.1701736  49.9266548   3.0165868  11.6244135
  49.5549812   3.0601771  12.5054302  49.3074455   3.5016642  11.0789661
  55.5003586  67.6971130  67.5220261  56.0154076  67.3895645  66.7761230
  55.6706352  67.0553970  68.2115479  30.8531933  63.2519226  76.1686478
  30.1321507  63.8326416  76.4117355  30.6465073  62.4212189  76.5969543
  70.9048309  58.7921219  34.0959091  70.1507568  58.4029236  34.5387802
  71.6568298  58.3013229  34.4273415  71.7239990  29.0325584  61.4365807
  71.5486526  29.6073475  62.1816330  71.0962677  29.3081093  60.7685509
  35.9366646  46.4712105   4.8796334  36.2319641  46.1579552   4.0247073
  36.3613663  47.3228493   4.9824429  48.3648911  46.1598625   3.1209083
  48.8267288  45.3384171   2.9530959  48.0425262  46.4331665   2.2620616
  47.6627960  38.0871849  82.0216980  47.7455559  38.7892570  81.3763428
  46.8440170  38.2778664  82.4793854  40.6869354  49.4221764  75.1282043
  40.8536720  48.7538300  75.7928467  41.4845963  49.9511337  75.1150665
  53.1103287  10.3598776  80.5997162  53.2591629   9.6338749  79.9939117
  52.2305832  10.2074146  80.9447250  33.1031685  52.1296501  10.0186787
  33.7934494  51.4726486   9.9287224  32.3126678  51.6226883  10.2039633
   0.9209878  65.8061447   2.8530793   1.4858185  66.5739975   2.9402564
   0.8072349  65.6984558   1.9087831  70.0075607   8.2510309  67.1502457
  69.5996170   9.1067486  67.2827606  70.2398071   7.9574137  68.0312042
   2.2860720   0.8064098  32.4533081   1.9962150   0.6218659  33.3467026
   1.5409025   0.5620543  31.9044495  52.9469872  24.3618240  61.5518761
  53.2306633  25.2560692  61.3619194  52.4523735  24.0975723  60.7761459
  49.1030617  49.9874878  56.5372353  49.1537285  50.7552528  55.9678459
  48.1736298  49.9099045  56.7525597  40.2059975  62.1854744  16.7651463
  40.8451462  62.5727654  16.1670437  40.2094231  62.7647018  17.5271912
  51.2453995  14.6124458  15.6090508  50.8662262  13.9476910  15.0341063
  51.8622551  14.1296682  16.1591835  43.8589745  70.5692825  52.5749245
  43.9256096  69.6150360  52.6095161  42.9206772  70.7411423  52.4955597
  74.2143478  29.5919037  69.9256058  74.3757858  29.5778084  70.8689880
  73.7112503  28.7952709  69.7567749  18.8850613  60.8243256  65.1053848
  17.9725723  60.5940552  64.9305420  19.3811550  60.0455017  64.8532791
  58.7723351  30.4292622  56.5291367  58.2088776  30.4941292  55.7580719
  59.5303612  29.9269543  56.2302780   5.9038124  11.6731195  14.7622900
   6.7078972  12.0954962  14.4601688   5.4964790  11.3352652  13.9646902
  49.8242912  68.3990860  11.2091885  50.0531540  69.1771164  11.7176294
  50.6402512  68.1468506  10.7769604  18.6345406   0.3460561  18.0242100
  17.9041901   0.4929603  18.6252422  19.4120502   0.3685481  18.5820694
  23.4161472  11.9844465  75.6516266  24.0847130  11.5204573  75.1476746
  23.7127209  11.9198971  76.5594330  44.3689766  57.4570808  15.1550150
  44.9711342  56.7208443  15.0473242  44.3054352  57.5779266  16.1024284
   3.0820074  49.5039253  81.2505493   3.8465993  49.5922318  81.8196106
   2.3833053  49.2054710  81.8327637  24.9372482  32.1107559  79.3633118
  24.4735527  31.5644836  78.7286377  24.5530052  32.9808960  79.2563248
  18.0051556  67.2029190   3.7467589  17.7031746  66.6722336   3.0095940
  18.9478645  67.0420532   3.7873938  27.4626942  25.7775536  82.6210098
  26.7994041  25.9906597  83.2774124  26.9959240  25.2531986  81.9703140
  15.7838278  60.0448761  68.8345718  16.7239456  60.2013245  68.9236374
  15.6526928  59.1655426  69.1892624  65.3018341  30.9887180  60.4074287
  65.6255951  31.0907078  61.3024216  64.3543015  30.8942318  60.5048027
  43.7847900  61.9575806  35.1508064  43.6971970  61.1672707  34.6179199
  44.2622719  61.6700363  35.9289856  76.1962357  34.7286263  57.6137123
  76.0289764  34.0860558  58.3031769  76.6359329  35.4514008  58.0614815
   9.5741520  70.6018524  67.7612457   9.0071354  69.9798660  68.2171631
  10.3024683  70.0706024  67.4394302  79.1476822  65.2460327  34.5703850
  78.7695923  64.7678528  33.8324051  78.9601974  64.6978302  35.3323212
  35.7452354  70.2451935  60.5679207  34.8157349  70.3384476  60.3591995
  35.8448105  70.6775818  61.4160728   8.3184156  21.8051357  54.1119080
   8.0253525  22.6779270  54.3737869   7.5391402  21.2556496  54.1957207
  73.4538727  32.7969780  62.6127167  73.2977066  33.7292137  62.7636414
  72.9408035  32.3555298  63.2895584  61.2967987   0.5713339  49.8557243
  60.5659943   0.4045272  49.2604637  60.8903580   0.6450343  50.7192078
   9.1381836  35.2792091  21.2524872   8.8375816  36.0413399  20.7574844
   9.3499136  34.6276932  20.5839577  13.7163086  58.7212067   7.8222289
  14.4100065  59.2864723   8.1620674  14.1673803  57.9175262   7.5636473
  30.1598148   8.4498644  25.8032665  30.6254730   9.1995134  25.4325638
  29.5800705   8.8304205  26.4630451  83.9695663  57.8264275  69.6448593
  83.8770065  57.5295601  68.7395859  83.5771332  57.1271248  70.1675568
  61.2362518  10.2206411  64.3378143  61.5128860   9.5290098  64.9389420
  60.2976227  10.0744619  64.2201920  64.2944031  52.6451225  66.5465393
  64.7749557  52.5998840  67.3731308  63.6544991  51.9354477  66.6023636
  50.1467896  69.8907852  43.0612144  49.6592865  69.3550262  42.4354897
  50.8299828  69.3086472  43.3937759  13.5344362  24.6808834  83.1488800
  14.0806637  24.1967983  83.7681732  13.3054495  24.0377445  82.4779282
  18.1595764  56.0099182  44.4903641  19.0293541  55.6252060  44.5986061
  17.6224442  55.5784225  45.1548424  49.2962227  15.1729317   7.9970837
  48.6249123  15.5013142   8.5951958  49.4017181  14.2524567   8.2375555
   7.7866211  25.5401440   0.5487319   7.1251168  25.6993580  -0.1245397
   7.2824073  25.3682022   1.3439903  18.6299477  29.3179436  32.0844574
  17.9648361  29.7655201  32.6074638  19.3766880  29.9167843  32.0832710
   0.8268842  27.8927517  51.8743477   1.6463630  28.1549129  51.4548759
   0.2702891  28.6695194  51.8189964   3.7781003  12.0895367   0.5238007
   3.0719938  12.5674009   0.9588758   3.4005320  11.2326546   0.3252364
  50.7406120  50.3697395  76.0641174  51.3924904  50.9881935  75.7342682
  51.2451591  49.7451477  76.5852127  17.2064533  42.7236252  59.3714027
  17.5327034  43.6118622  59.5157356  17.7740993  42.3681374  58.6875648
  44.3521271   8.1189909  32.9987144  44.8428192   8.4555292  33.7485085
  43.4457703   8.0792131  33.3039513  69.6632996  58.3146782  24.5109806
  68.7831955  58.3759842  24.8823090  70.0907745  59.1303558  24.7720852
  80.2555466  10.4564381  73.5884857  79.4105453  10.8624887  73.7817001
  80.2955704   9.6979408  74.1709900   9.4689598  31.1311722  53.1562729
   9.8387346  30.2499447  53.1020699  10.1128101  31.6883965  52.7190247
  69.3798218  52.5566254  62.4978485  70.0592117  51.9407730  62.7724075
  69.8344269  53.3952904  62.4190903  64.3049164  13.0712214  63.4843788
  64.5913620  12.2821550  63.0244293  64.0584106  13.6787844  62.7870026
  40.8662987  69.7537460  49.6183777  41.0469704  70.1543808  50.4687157
  40.0351753  69.2951279  49.7414284  58.4319878  11.8026800  15.5294094
  58.3122139  12.7305565  15.3270922  58.0161285  11.6882420  16.3839264
  77.2847748  17.1374931  47.1277618  78.2294617  16.9867573  47.1604652
  76.8990784  16.2850704  47.3298759  81.3368530  57.9854889  45.3152504
  80.9069748  58.6644096  44.7951546  80.8725967  57.1798286  45.0880928
  47.5234947  57.3873444  37.1533470  47.0887299  57.2693787  37.9979172
  46.8221893  57.2967033  36.5082207  51.1753654  68.0676727   4.0318036
  50.3820419  67.7888489   4.4891100  51.8403320  67.4320755   4.2965069
  67.0362549   4.1283402  57.8100815  66.9352188   3.5446889  58.5619926
  66.1985474   4.0736885  57.3501930  33.5764771   3.1782622  28.7227745
  33.7496262   4.0888805  28.9615746  33.4491196   3.1994357  27.7743225
  66.9474564   8.7532330  37.3663521  66.6931458   8.9721441  38.2628098
  66.2231674   9.0713854  36.8274536  78.5875168   2.8347478  63.3604584
  78.3643875   3.5631368  63.9400215  78.7873001   2.1098769  63.9528122
  81.8391418  48.3535995  40.1199608  81.7828217  48.1658554  41.0568771
  81.3394241  47.6508675  39.7044106  76.2937088  30.9074039  68.0814514
  75.8136902  30.3301315  68.6752319  77.0623627  31.1805191  68.5822601
  79.9376602  59.4011650  50.9780235  79.7108307  59.2711792  51.8988304
  79.1470871  59.1523438  50.4991684  12.5656557  48.8992424  77.0372238
  11.7052107  48.7425346  76.6482391  12.3800697  49.1095238  77.9524078
  27.9540482  60.1465645  62.1760597  27.2926674  60.0053215  61.4986687
  28.4994869  59.3605537  62.1458511  34.0268440  52.6436272  63.8738823
  33.6116867  53.4991913  63.7648468  33.6609116  52.3020744  64.6897659
  51.8031883  17.3602905  59.5434799  51.1073265  17.9834633  59.3345184
  51.3420105  16.5837402  59.8605232  11.6602230  59.6202240  68.4460297
  11.2508211  60.0839005  69.1765213  10.9250078  59.3002815  67.9232178
  45.9925652  37.0070190   7.2346644  45.9908638  37.0899773   6.2810678
  45.3070831  37.6070251   7.5285015  73.5453262  21.3057671  24.0891209
  73.3279724  20.4298916  24.4082279  73.4328003  21.8732700  24.8516903
  68.1802063  65.4017868  34.4449730  69.0041275  65.8816071  34.3603935
  68.3491211  64.5595093  34.0227470  45.1211510  53.7684898  10.5834169
  44.8287849  54.6335030  10.8706551  45.5861244  53.9330177   9.7630730
  50.4004517  13.9016333  85.1898499  51.2910576  13.6379557  84.9584808
  50.4257965  14.0239964  86.1388550  15.3007641  60.1090660  37.1554642
  15.7537851  59.4685860  36.6070213  14.3819265  60.0388145  36.8965530
  55.9092026  14.8489399  56.0672112  56.8232307  14.8270893  56.3505974
  55.4371109  14.3630362  56.7434235   5.3819294  47.7443695  10.0981827
   5.1332154  47.5507202  11.0019932   4.8032570  48.4614143   9.8389149
  54.1038780  41.7349434  38.1856117  53.5531120  41.8850708  38.9539566
  53.5980225  42.0908470  37.4550819   6.4291344  56.3370590  33.1713905
   5.5377307  55.9973526  33.2503281   6.6793380  56.5635300  34.0671272
  67.8190308  40.5682030  46.9756622  66.9236145  40.8646088  47.1387825
  68.0802841  41.0242119  46.1756439   8.4704351  69.6599197  62.6259460
   8.6510897  70.4245300  63.1727219   7.7243929  69.9220657  62.0865631
  75.7846527  14.6406698  47.8073349  75.5044632  14.8089190  48.7070122
  75.0416336  14.9149504  47.2698174  75.1838684  44.0130310   1.9694815
  75.9783783  43.5732956   1.6667917  75.4902115  44.8535690   2.3098929
  57.6249771  55.9506569  49.2898636  58.1648636  56.1406860  50.0570946
  56.9952126  55.2979736  49.5958595  79.4426041  22.1226501  44.7224960
  78.8914642  22.4032211  45.4530792  79.4025345  21.1665688  44.7456322
  38.1171837  39.6874504  81.5441742  37.2916756  39.5721588  82.0147781
  38.3011818  38.8263550  81.1688156   6.0192652   9.1982355  51.3648720
   6.7263894   9.5008087  50.7950821   5.2556386   9.7049999  51.0886536
  19.7283688  64.7535477  73.8473434  19.7827873  64.2033386  73.0659714
  18.7906685  64.8989944  73.9730301  14.5052290  40.8939133  31.2457237
  14.8795366  40.4227715  31.9901352  15.2513943  41.3395004  30.8445740
   0.8588784  37.3468132  64.3545532   0.7383342  36.7019119  65.0515442
   0.3498377  38.1056328  64.6396866  27.5173130  69.0070572  50.3442726
  28.2804260  68.4296646  50.3668404  27.1648026  68.9036713  49.4603729
   9.2611885  62.7844963  86.0034637   8.9907026  62.5214996  86.8831787
   9.0015001  63.7034492  85.9377365  65.2056808  68.9737778  82.1133804
  64.7851868  69.6668015  82.6224289  64.5768204  68.2522430  82.1258621
  77.2715149  44.9236450   3.8791158  76.9164429  44.0867271   4.1786461
  78.1564331  44.9523354   4.2428880  68.2778702  65.5538788  81.2057648
  67.8021774  64.9972992  80.5891953  68.0507736  66.4469147  80.9466553
  20.5929737  32.3697891  78.4128342  20.4058151  33.0728035  77.7907639
  20.8697662  31.6340618  77.8666458  74.5715637  32.0774879  78.9089890
  75.2278976  31.5413551  78.4639816  73.8760223  32.1912308  78.2612915
  20.9686241  22.1062336   7.9826670  21.6827240  22.5258541   8.4624710
  21.1831264  22.2489395   7.0607910  26.1795197  17.0040836  61.4768028
  26.5561771  17.2591496  60.6346016  25.3759670  17.5196171  61.5457802
  57.3836670  11.8309145  70.6867599  57.9286766  11.6923876  69.9121552
  56.5720024  12.2055998  70.3446350   1.5851011  47.9315491  21.5337257
   1.7762001  48.5238304  20.8064594   2.3726599  47.9576263  22.0771427
   2.3155928   5.8233771  35.3212852   2.8357344   5.8288350  34.5177574
   2.9307508   6.0844898  36.0065804   4.9231620  50.8484077  18.1069622
   4.6244445  51.1044121  18.9795799   4.2001348  50.3343239  17.7475452
  32.0553627  52.8568344  35.1045914  32.1909409  52.9244995  34.1594620
  31.1652222  52.5167160  35.1951256  53.5423241  10.3396435  39.9485512
  53.8546333  10.2798471  39.0457153  52.5894165  10.2847996  39.8764877
  67.5239410  12.9041119  67.7336349  66.7374954  12.5563927  67.3131332
  67.2344055  13.1588421  68.6097107  43.5675812  45.7084274  80.4911957
  43.7946053  46.1133118  81.3283081  42.6922836  46.0416298  80.2935486
  80.3538513  37.9738998  34.4482040  79.4387817  38.2397423  34.3576355
  80.3713989  37.4432564  35.2446594  15.9496775  48.8193207  49.0980644
  15.2571554  48.8964958  48.4417953  16.3397884  47.9606133  48.9347610
  60.2378349  41.9026260  56.5040588  60.9722633  41.5124779  56.9780159
  59.7262650  41.1541595  56.1969337   3.2921274  64.9344101  82.2131119
   4.0417252  64.6238937  81.7052612   3.6243668  65.0121002  83.1074371
  73.7509537  41.3168755  55.2450714  73.5748596  40.3763618  55.2707253
  73.6153641  41.6105957  56.1459465  16.1355247  42.9894791  67.3652344
  15.8743591  43.4436073  66.5641174  16.2685299  43.6892090  68.0046997
  35.2360573  42.0897942  31.4575996  35.4509621  42.4354401  32.3239594
  34.3095245  42.2990189  31.3393307  19.8939953   2.7518909  75.5670624
  19.3852615   1.9412158  75.5519714  19.3074684   3.4097180  75.1935959
   2.7788150  36.5566521  38.3403931   3.0174022  35.6918221  38.6741257
   1.9917052  36.4029465  37.8178368  15.1559925  47.9762154  33.1862488
  14.6732445  48.7973251  33.2809296  15.1145992  47.5726967  34.0532494
  20.0205669  14.3679981  78.9612122  19.1194687  14.5456886  78.6916199
  20.2864819  15.1529369  79.4401627  40.8827095  26.2571087  82.9663849
  41.0556793  26.4182701  82.0388336  41.1367378  27.0705643  83.4022598
  41.0178833  37.2432365  83.4567108  40.9069061  37.5071754  84.3700867
  40.4954910  36.4455643  83.3727417  84.7993240   7.8829212  64.3317566
  84.7599792   7.5378470  63.4397888  85.5155640   7.3999481  64.7440338
  14.1951933  54.5789948   3.3623075  15.0863972  54.8772507   3.1805627
  13.6480923  55.0729866   2.7516651  69.9942093  67.9518433  49.8200951
  70.4354019  67.3683090  50.4374008  70.6837234  68.5397949  49.5116882
  28.8076515  30.2635918  88.2828217  28.3032990  30.8456306  87.7144089
  28.1518478  29.8486309  88.8431396  63.6583214   6.2821269   2.4572961
  63.6066208   6.0950432   1.5199815  63.4497757   7.2136955   2.5274546
  24.8892460  54.4289055  56.5653725  24.7026501  54.1037331  55.6846466
  25.3008823  55.2813873  56.4237251  11.1501341   5.9591050   2.5151465
  10.9779081   6.8707900   2.7505193  11.4022427   5.9934940   1.5923841
  14.0912046  19.6184464   1.7392132  13.3419266  20.0767059   2.1197574
  14.1828775  18.8272266   2.2700620  42.1828880  67.4912872  43.9092026
  41.3859215  66.9926147  43.7291794  42.3042068  67.4154663  44.8556519
  17.0841503  38.9602318  74.8434677  17.4424515  39.5131683  75.5378113
  16.4544945  39.5216293  74.3911438  67.7243423  50.5468559  63.7637062
  68.2522507  51.3071861  63.5199051  66.8783569  50.6974869  63.3419914
  80.6683655  63.7924309  55.1207542  81.0380630  62.9498367  54.8569489
  79.7877426  63.5810928  55.4307022  57.3852386  56.5902290  61.2552109
  57.7953873  55.9911766  61.8790321  57.9051399  57.3916664  61.3154945
  30.1727982  58.6230240  13.0881853  29.8842754  59.5320396  13.0065031
  30.1054878  58.4335442  14.0240269   6.9718752   7.0104976  86.2776031
   7.7354918   6.9612541  85.7025375   7.3102160   6.7870588  87.1446838
  10.5647297  13.3640022  21.0089550  10.2962322  12.7400150  21.6833286
  11.4130363  13.6905603  21.3089008  38.5479927  49.3638649  64.5923996
  38.4863243  48.5369644  64.1142120  39.4651566  49.4173508  64.8610687
  81.0937500  44.3624382   9.8050966  80.6297760  43.6145325   9.4287939
  81.4198456  44.8479347   9.0473461  64.5308533   3.9285698  79.8708344
  64.5738678   3.7442040  78.9325409  64.5091324   4.8839049  79.9264603
  48.7387657  65.0526581   1.9336509  48.0251312  64.4433060   1.7448510
  48.9776955  64.8676605   2.8419018   4.0102611  62.0283470  79.1120911
   3.4634869  61.6037369  79.7731323   3.4610589  62.7294960  78.7613754
  24.3601513  44.2937126  17.7049885  23.9444370  45.0794029  18.0600986
  23.6297932  43.7424583  17.4240456   1.0494860  40.5591125  72.0712204
   1.1685419  39.6095047  72.0885544   1.8557969  40.9085541  72.4506760
  83.7896194   5.5203347  25.6551113  84.4244461   5.8662343  25.0277538
  84.0480728   4.6069837  25.7784958  84.1096344  10.4649172  78.6173096
  84.1597595  10.9876471  79.4176102  84.4720306  11.0327396  77.9372559
  59.4887466   2.8019316  45.6085930  58.8639374   2.6604600  46.3198090
  59.1707764   3.5872123  45.1631050  67.2695847  57.0060616   6.1017838
  66.7759399  56.3559761   6.6017246  68.0259705  57.2079391   6.6525640
   8.2459784  54.5567932  76.0910645   9.0239840  54.8828773  75.6387329
   7.5811381  55.2283134  75.9384918  21.0857964  23.5632954  -0.1963478
  21.5364513  24.3882351  -0.0157472  20.5448647  23.4112377   0.5785736
  33.2729301   1.9171993  24.3981972  33.3780632   2.7154152  24.9159126
  32.3385239   1.8862325  24.1928654  66.9012680   4.9798226  20.2569866
  66.1734619   5.3110299  20.7831345  67.4727249   4.5416245  20.8875790
  38.8767166   9.1299963  10.5448914  38.1663399   8.9737577   9.9226513
  39.5344353   8.4691095  10.3283968  81.2452621  35.8367958  84.2013168
  81.7497025  35.3399200  83.5571976  80.6773224  35.1862946  84.6142654
   2.0221930  18.2728958  70.6881866   1.1750109  18.6896935  70.8456497
   2.4616823  18.8515472  70.0650940  39.7061005  53.3993988  52.0337906
  39.6682701  53.6310577  52.9617653  39.3388443  52.5164375  51.9921837
  54.1993103  44.1008339  79.5828094  54.9220123  44.2843094  78.9825821
  54.6247826  43.7914772  80.3824921  23.0814934   3.5134280  26.5458183
  22.1666088   3.2756963  26.6964970  23.3672066   3.9022331  27.3725166
  59.3983727  14.4367342  73.1196213  59.6980553  14.9215918  73.8886032
  59.9535332  14.7519197  72.4064026  30.4827423  51.7371216  45.1758003
  29.8566742  51.9298439  45.8737450  30.3614998  52.4450760  44.5430794
  84.6243515  51.8561668  48.7573471  84.6687241  52.4262962  47.9897423
  84.1019058  51.1074638  48.4697266   3.1841393  47.4458504   1.3919423
   2.7521915  47.8371544   2.1512415   3.2363195  46.5130806   1.6003889
  56.1496773  15.1917820  27.6372471  56.8961182  15.6134415  28.0629978
  55.5729294  14.9405985  28.3587055   5.6725063  47.1941223  56.4346123
   6.0229745  48.0474548  56.1792107   6.0843277  46.5756989  55.8311310
  61.0829773  50.5005302  85.9528503  60.4304276  49.9787369  85.4857941
  61.9144669  50.2719231  85.5373993  14.1267347  49.7331009  25.1313992
  13.6433315  49.9906311  25.9164028  14.8224154  50.3859444  25.0535717
  16.2857361   5.7446370  50.9337730  16.4749584   6.2314987  50.1316566
  17.0972157   5.7912254  51.4393044  33.5899391  51.6963806  66.2460480
  34.2998924  51.6317291  66.8848114  32.8794289  51.1784554  66.6244125
  68.4239044  64.9902496  29.6026859  67.9651489  65.0205994  30.4422436
  67.7257843  64.9352036  28.9501324  74.4505234  45.6261215  72.9414749
  73.9645157  46.4268837  73.1384811  74.5474014  45.1903114  73.7881851
  85.2411499  33.5494614  78.6517487  85.9168701  34.1209297  78.2869949
  84.4265442  33.8584480  78.2552872  59.8234100  52.6854935   2.2270384
  60.1007538  51.7839737   2.0640123  59.6950607  52.7289581   3.1745975
  83.2049103  21.6800804  21.6973171  82.4214325  22.1454258  21.9903240
  83.1148071  20.8022308  22.0681190  55.9246902  57.2464409  13.1015930
  55.0251198  57.2444534  12.7744846  56.1384048  56.3209953  13.2203608
  75.4367142  40.8985214   8.9434624  76.1215286  41.5635338   8.8726358
  75.2098083  40.8864670   9.8733025  13.3893299   8.8750019  22.2291737
  13.0101175   9.6693573  21.8531036  14.1329651   8.6726255  21.6614761
  25.5735950  68.9266281  27.6278877  25.0716228  69.5212479  27.0704956
  24.9509411  68.6428528  28.2972202  57.9411125   5.2389927  40.9090385
  58.5949249   5.9327016  40.9957962  57.2276878   5.6427131  40.4148026
  75.9085159  34.2843056  11.9580183  75.1344833  33.7784119  12.2053585
  75.9923019  34.1478920  11.0143003  69.7366486  32.7507324  35.4829445
  70.3969574  32.4297028  36.0970840  69.6404266  33.6784706  35.6980591
  21.6645203  61.3310890  32.3918800  21.8619080  61.2171898  33.3215561
  21.3024502  62.2150383  32.3304482  39.3011932  50.3687973  34.6963081
  39.4703789  50.1408653  33.7821655  40.1033058  50.8025055  34.9874153
  32.8928871  70.5219955   5.4795465  32.4502563  69.8626938   4.9451013
  32.5076218  70.4226532   6.3501415  36.3187332  54.4568596  64.1540604
  36.1030884  55.3225975  63.8073235  35.4700470  54.0550270  64.3397751
  48.8217049   3.5037317  41.4876976  49.0263672   2.9721217  40.7184525
  49.2700043   3.0630589  42.2095451   6.3081322   0.8689748  70.0297089
   5.8770080   0.2165696  69.4776840   5.7449780   0.9404057  70.8004150
   7.4479151  51.6559181   7.2867861   8.3447599  51.9501801   7.1276884
   6.9001694  52.3702621   6.9613333  10.7254124   3.7267840  78.1135101
  11.3739347   3.6566186  78.8140259  10.3777332   4.6146879  78.1970444
  84.8337173  26.6825390  76.8489456  85.5763016  26.5712185  76.2553024
  84.7487259  27.6304741  76.9510651  33.9980888  50.2147675  51.7082291
  34.0611572  50.6409950  52.5629730  33.3789558  49.4973907  51.8434181
  45.5461998  37.2330704  77.9289017  46.4871521  37.3199425  78.0815125
  45.4184341  37.5491447  77.0344772  48.9539757  34.2772903  54.9003220
  49.4157410  33.4600410  54.7129555  48.2472687  34.3063736  54.2553787
  52.0625343   6.5044594  58.3969650  52.3330193   6.0963469  57.5744629
  52.3358727   5.8845668  59.0731697  61.9675407  23.3102703  52.9918976
  62.4580078  23.0011845  53.7535667  62.6202660  23.7547512  52.4509583
   5.9624071  54.3479881   8.0758963   5.1862030  54.1652069   8.6053572
   5.6240659  54.7998543   7.3028674  30.6655407  43.3661995  48.8177071
  30.1055813  42.7126579  48.3987045  31.1803837  42.8685913  49.4529686
  10.5534582  49.4709435  46.6073647   9.6117592  49.4042778  46.4492798
  10.8639107  50.0904503  45.9470139  -0.1853999  39.8780212  52.8729973
   0.5607046  39.2848206  52.9605980  -0.0965173  40.4848289  53.6079216
  48.8322830  32.3173180  29.5641155  49.2552834  33.0719337  29.9738140
  48.3993454  32.6766281  28.7897186   1.7783082  11.9917831  14.1267576
   1.4956640  12.9062443  14.1370420   0.9666883  11.4894142  14.1983824
  36.2085800  30.3243523  66.6255875  35.3431358  30.4698448  66.2434006
  36.1205254  30.6119232  67.5343170  81.4136047   5.6225634  53.5463791
  80.5924683   5.1968937  53.7929077  82.0946655   5.0664687  53.9247208
  81.0237656  55.2906761  23.4541492  81.4020157  54.9579239  22.6402454
  80.5243225  56.0626869  23.1880970  19.9668369  41.2254410  63.3982887
  19.7994728  42.1249084  63.6796837  19.9502678  41.2666054  62.4421196
  23.5166397  37.3387947  60.7510529  22.9046116  36.6306686  60.5505180
  24.3110828  37.1129341  60.2672386  58.8899498  68.3128815  49.5215797
  59.1661148  68.0887527  50.4102478  58.0340118  68.7263947  49.6338806
  78.2443771  29.3621445  10.5360308  78.3756256  30.2702541  10.2633724
  77.8371964  29.4278851  11.3998108  61.9942513  37.2724915  30.7101841
  62.6398582  36.9768066  31.3520527  62.5159225  37.5620842  29.9617023
   3.7122185  18.8205166  88.2517929   3.2337117  19.1907425  87.5100403
   4.2477803  18.1258221  87.8686371  76.5386810  30.2694817  26.0090275
  76.9804611  30.9958820  25.5692482  76.9769897  30.2008095  26.8572044
  43.4339485  22.9748135  63.8395233  43.0972939  22.1461601  64.1804428
  43.0083199  23.0740318  62.9879189  68.9391098  61.3448792  21.5859833
  68.5185394  62.1884995  21.7522774  68.3711090  60.7052803  22.0155373
  63.6611519  34.4129410  16.2563686  62.7801781  34.2152977  16.5742683
  64.1585312  33.6105843  16.4147129  48.6327553  62.0365067  59.9390907
  49.2077484  61.4214478  60.3944168  49.2297554  62.6324768  59.4867210
  28.4192123  23.1004372  67.8429794  28.6235218  22.1669788  67.7869034
  28.1947861  23.2416649  68.7627182  76.2380676  58.8961945  31.8060799
  77.0842056  59.3330917  31.9030685  76.1938858  58.2924194  32.5475197
  30.9584656  27.1708336  68.6264038  30.0188980  27.0565662  68.4836121
  31.2328968  26.3676682  69.0689468   0.9900679  51.4842148   6.9766579
   1.8735577  51.5196342   6.6100202   1.1243932  51.4700546   7.9242802
  47.9822960  33.6323509  62.0871315  47.6861153  33.0068932  61.4258347
  48.1684265  33.0959663  62.8577652  14.1369467  30.8302345  69.8860397
  13.3043652  30.8765125  70.3560410  14.6881914  31.4879780  70.3099899
  53.0388603  16.5103111  35.0543633  52.8195877  15.8347626  35.6960678
  52.1964760  16.8985653  34.8179779  17.2473469  69.8815002  17.0171013
  17.9715481  70.2581635  17.5169907  17.2000313  68.9721603  17.3122082
  81.5892029  20.2647552  35.1244202  80.9956894  20.1826649  34.3779411
  81.0150223  20.2464848  35.8900719   3.9279864  68.6125031  18.9503727
   4.7197266  68.1323471  18.7078304   4.1323695  69.5265961  18.7531643
  26.8987503  69.9067993  31.7697620  26.8332386  69.6809387  30.8418999
  26.7113914  70.8449402  31.8017139  43.5615196  -0.2056080   8.4062195
  43.9057579   0.3151303   9.1318674  42.7802277   0.2681372   8.1209450
  13.8996487  21.0701370  19.7434082  13.9207163  20.3442440  20.3670025
  13.0307598  21.0186195  19.3451500  85.9871750  16.1842651  44.9004936
  86.5342560  16.9496822  45.0767479  85.9040070  16.1637154  43.9471321
   1.2171372   9.6630974  69.0646210   1.0847378   9.5436916  68.1241684
   2.0904434  10.0483179  69.1365433  70.2830276  67.2227097  34.1460953
  70.2025452  68.1057281  33.7854958  70.5599442  67.3583679  35.0522652
  28.5807762  46.0969620  78.1349335  28.8023605  45.1849632  77.9467926
  29.1500816  46.3357620  78.8664322  74.4438171  47.7057076   9.9462175
  73.7506180  48.2002640  10.3833961  74.7935867  48.3106651   9.2920628
  45.4244080  47.4647636  61.4437790  45.2166901  48.1571693  62.0712013
  46.2334900  47.7568550  61.0238953  44.9094734  35.4795494  72.3863525
  45.7707558  35.6019363  72.7856674  45.0480766  35.6627312  71.4571228
  86.3115158  31.9071922  43.3984489  86.6596680  31.5717888  44.2246017
  87.0572586  32.3393669  42.9821320  23.5182419  68.9457397  45.6321068
  23.7190571  69.3038635  44.7674370  23.8888397  68.0633087  45.6178360
  62.0574722  39.6656876  50.4305725  61.7973442  40.5372162  50.1322327
  61.2385254  39.1717224  50.4700737  84.2658310  15.3361273  33.8535957
  83.6593628  14.7085323  33.4604568  84.7206955  14.8369484  34.5319405
  84.9358826  21.0854855  74.4549103  84.5857773  20.8790245  73.5882874
  84.3526688  20.6315403  75.0632095  63.1418686  13.5881567  16.6940861
  62.6731491  13.0801716  17.3562698  62.5951462  14.3612623  16.5539570
  14.6352482  16.0332241  73.2485352  14.0385685  15.4418621  72.7897339
  14.5198956  15.8190536  74.1743088  41.2490120  18.3327866  76.2368240
  40.3574028  18.4299335  76.5712204  41.2481956  17.4832077  75.7958603
  17.3075104  29.6165066  84.2649155  17.3944969  30.3524151  83.6590271
  18.0642223  29.6939259  84.8459702  64.1008606  22.5362186  32.8181496
  64.8639984  22.0727215  32.4731598  64.1598892  22.4220257  33.7666817
  60.0478401  39.2980919  30.7181549  60.8114395  38.7209167  30.7139950
  59.3562241  38.7832985  30.3023643  19.5684586   3.7283337  12.6330366
  19.1939201   3.7908146  11.7543736  20.5090466   3.6288795  12.4859495
  73.4806595   7.7473145  18.5965176  73.3485184   7.8860149  17.6586838
  73.7738113   8.5971165  18.9253502  26.5805569  49.8424835  56.0021095
  25.8501492  49.6400909  55.4174957  27.2840366  49.2591972  55.7172813
  83.7044907  13.5215178  12.5943089  82.9799881  13.0493050  12.1840210
  83.4703522  14.4451838  12.5034676  65.0910568  30.6560059   3.0469730
  64.8394775  29.7554073   2.8423626  65.7065201  30.5731564   3.7753727
  56.6453629  59.1333809  81.3147659  57.5774651  58.9694328  81.1714630
  56.2259064  58.8601036  80.4989166  51.9140968  42.5828705  49.6631927
  52.3692093  41.8014259  49.3494263  51.3410378  42.2627716  50.3598747
  47.6519737  26.8526630  36.5025597  46.8384972  26.4690437  36.8301620
  47.6343079  27.7564850  36.8172417  62.6513290  10.2419920  62.0362587
  63.5927887  10.1726274  62.1945992  62.2493019   9.9842663  62.8658295
   7.7743754  44.4315147  18.8884506   8.4872522  44.2700195  19.5064793
   7.7781072  43.6664162  18.3132648   0.4706272  45.1948547  80.3150787
  -0.0385158  44.9112816  81.0744171  -0.1801476  45.3244514  79.6251984
  19.0551624  67.1068954  87.1212311  19.3208008  67.9238205  87.5434799
  18.2762280  66.8301086  87.6038055  73.5949097  23.3523560  29.7100887
  73.9078979  24.1791801  30.0770130  74.2472534  23.1216564  29.0486832
  81.4374542  61.6739120  37.7793007  81.3821564  62.4190102  38.3776360
  81.7012482  62.0574455  36.9429131  55.4950256  37.4228249   0.9994042
  56.1479721  37.9481735   1.4619015  55.3793144  36.6471291   1.5481697
  15.0347700  46.6639671  54.3209648  15.5062342  46.8332977  53.5053139
  14.8314114  45.7291145  54.2904167  30.5031052  47.4382210  26.9699974
  30.0019112  46.7963181  27.4729843  31.0085106  47.9160614  27.6276169
   6.6839118  21.1456680   7.9431181   5.8047709  20.8898773   7.6639867
   6.5575814  21.5289955   8.8110657  42.7132454  10.6120348  77.9105606
  43.3374977  10.1339121  77.3647232  41.9542809  10.0318804  77.9707565
  55.9201355  27.6230698  74.7007675  56.1472206  28.5528965  74.6914139
  56.5128632  27.2382450  75.3463821  56.0984039  68.4652557  50.0568733
  55.2100258  68.2842102  49.7498856  56.3184242  67.7151794  50.6093254
  18.0869064  71.8840256  81.1261444  18.6196041  71.1580276  80.8014908
  18.2286091  71.8804626  82.0727921  27.7714825  23.7826729  63.8885956
  27.3962250  23.1384907  63.2882271  27.0490932  24.0159874  64.4716492
  61.7914391  64.4103317  50.1543083  61.8087006  63.4657822  50.0001526
  61.3767281  64.7732086  49.3716431  50.1829643  47.8464622  34.3307762
  50.5188751  48.1655807  35.1683693  49.3302612  47.4671745  34.5435410
  55.5047379  66.2043457   6.3588338  54.7794724  65.6886520   6.0063090
  56.1638641  66.1963882   5.6647692  71.9164658  33.6926193  47.4607315
  70.9699478  33.5599899  47.4083138  72.2804565  33.0738297  46.8276062
  56.2314873  41.4743576  59.3806419  55.6479034  41.4406204  58.6226692
  56.2604790  40.5727921  59.7009087  74.9858246  45.6042290  29.9979706
  75.4253616  46.3099136  29.5235767  74.3803406  46.0531158  30.5879860
  23.4368000  64.0288925   6.9380236  22.6809464  63.6430893   7.3808231
  23.2568283  64.9690018   6.9321613  47.6523438   2.1210997  54.6572723
  48.0175133   2.9774687  54.8797951  47.4160385   1.7349986  55.5006676
  77.2060013  26.1190434   4.7361064  77.4852066  27.0010796   4.4905677
  78.0082245  25.5975876   4.7088404   4.6969213  58.3087502  42.8122978
   5.1829071  58.6213951  42.0492096   4.9635382  57.3944168  42.9079208
  15.8726864   4.6687698  31.6920319  15.8471460   3.7701211  32.0206795
  15.9287434   5.2102351  32.4793739  83.7245483  15.5638332   5.8834643
  84.4630814  15.7791481   6.4530687  83.7618408  14.6116915   5.7925382
  56.4562645  16.7587090  80.4148026  55.5920448  16.5453930  80.7667236
  56.4939041  17.7149467  80.4354019  78.6805496  55.6443443  75.8715286
  77.8367233  56.0271187  76.1116867  79.3144455  56.0905190  76.4330750
  39.6827049  14.3970823  70.7757874  39.0882378  14.9870806  71.2391891
  40.5574684  14.6841965  71.0376816  29.4616890  51.2337189  10.5657377
  29.7063503  50.5371895  11.1750164  28.6479301  50.9271126  10.1657114
  41.8594780  48.3036194  17.3844280  41.4549561  49.1326103  17.1287518
  42.5684967  48.5555267  17.9760914  28.5110207  62.9207611  39.6321449
  28.8336525  63.0419617  38.7391434  27.8477669  63.6021690  39.7417297
  81.4219284  53.7760391  42.5171394  81.1576691  54.6927032  42.4388351
  81.2551880  53.5561638  43.4337006  68.1628418  54.3089447  64.8647690
  67.5149002  54.9978027  65.0126724  68.5149155  54.1205101  65.7346878
  44.5041428  34.1509476   6.1802006  43.6446457  33.7534981   6.3199544
  44.7475014  34.5026207   7.0365496  79.9702072  23.0453415  87.3602371
  79.2049637  22.4804955  87.2526169  80.7150040  22.4824677  87.1488419
  39.0671730   9.4661493  24.5266857  39.7445183  10.0025330  24.1147060
  38.2484169   9.9209747  24.3291969  10.7493925  24.2798004  64.7697906
  10.2762537  24.3318939  65.6002426  11.5688601  23.8360672  64.9884338
  20.9267750  40.8030663  78.0450058  20.5922966  40.5479393  78.9048080
  20.8710270  41.7586288  78.0402145  79.3829880  68.8402634  81.4490356
  80.0316467  68.2879715  81.0126343  78.9809418  68.2672806  82.1019287
  16.4460583  42.0072594  17.5273418  17.0143509  41.2742271  17.7638569
  16.6208611  42.1556854  16.5980167  77.7678070  65.5937500  14.3637371
  77.3340149  66.4301682  14.5324392  77.7979965  65.5278168  13.4092875
  35.6560478  71.2765350  29.1660366  35.4997787  71.6779327  28.3112335
  36.5885201  71.0604019  29.1622772  21.1260681  37.9191780  12.4204330
  20.5407639  38.6430893  12.6431561  20.5393944  37.2025070  12.1787100
  74.4721298   1.2899421  29.4001522  74.4885712   0.3680309  29.1431675
  73.5475769   1.4766957  29.5631390  45.5109673  69.2218552  74.9171829
  44.5775833  69.2837982  74.7142181  45.5512390  68.6576157  75.6893463
   9.5115404  54.5140038  15.0141134   9.4135246  55.1521568  14.3074417
   8.8453636  53.8511353  14.8323355  79.2779160  59.2278137  56.1053200
  80.1023102  59.2218361  56.5917053  78.6846619  59.7493858  56.6459122
  15.8042192  36.5554886  61.4805336  16.0804634  36.2538147  62.3459320
  16.0308228  37.4853859  61.4674377  63.7797470  18.4777699  52.5299606
  63.7648506  17.9478493  51.7329712  64.4044266  19.1778393  52.3404655
  34.4919853  54.1934624  14.1792889  34.3658218  54.1657867  13.2308435
  35.4257240  54.3716469  14.2916050  44.6633720  67.5064545  38.7188072
  43.9470825  66.8974075  38.8983040  44.8167648  67.9485626  39.5538177
  37.1321564  32.0532722  17.1541519  36.9960556  31.9222145  18.0925179
  37.7471733  32.7848358  17.1012077  83.7572708  52.0697823  59.3746834
  83.7077560  51.4735794  60.1218910  82.9931107  52.6381683  59.4707375
  74.2187805  25.0551033  43.6147346  74.2172012  24.2334042  44.1056938
  74.9973679  25.0014782  43.0605202   2.2632012  25.2281494  69.7028961
   2.8668041  24.5232239  69.9373550   2.8207240  26.0010948  69.6137009
  35.2908287  45.9368858  35.8971672  34.3894272  45.7689972  35.6223679
  35.7146301  45.0792122  35.8652878  23.9260025  59.3423233  88.2264862
  23.6059723  59.1341896  87.3487091  24.1948948  60.2593727  88.1721878
  67.4418869  29.4777870  82.4813919  66.7566147  28.9253311  82.1053314
  67.8769531  29.8688431  81.7237473  22.0792809   8.0804529  79.7175217
  22.9119778   7.6147881  79.7949982  21.7683773   7.8703179  78.8369446
  83.2053146  23.3279114   1.0991911  83.0224304  23.7075043   0.2397177
  82.4705505  23.6069679   1.6455307  43.1426697  44.4215965  67.0672836
  43.5452347  43.6008911  67.3512115  42.3007240  44.1592064  66.6951218
  34.5607376  62.1779518  30.1880283  34.6929970  61.4752045  29.5517235
  33.8470840  62.7007904  29.8225574  32.7280846   7.6680255  82.7462311
  32.7198601   6.8831196  83.2940369  33.5802193   7.6472378  82.3107300
  13.7021313  45.8628311  14.5207081  13.0904894  45.8502922  15.2568932
  13.3029318  46.4597282  13.8877897   6.0941277  41.1598549  38.6347198
   6.6179352  41.2287827  39.4329109   5.1904082  41.1046410  38.9453239
  51.0986061  23.5128460   2.7367511  50.8373146  23.5773182   1.8181647
  51.8082466  22.8704796   2.7393875  62.6669464  41.4927750  41.7483826
  62.6114922  41.7299576  42.6740723  62.0356026  40.7807198  41.6453400
  10.5762806  31.5991325  65.6485901  11.3949499  31.1045017  65.6853714
   9.9706163  31.0253048  65.1794205   5.0456367  60.8581772   4.4392548
   4.7985716  60.6787720   3.5320592   5.9540372  61.1551437   4.3858471
  48.3032112  60.7360497  74.5056000  48.0300751  60.5762787  75.4089813
  47.5795593  61.2302208  74.1204224  63.3658295  39.8723869  52.9248466
  62.8317680  40.4338074  53.4868240  62.9584007  39.9407692  52.0613899
  14.6231346   8.6170473  70.2985153  14.5967436   8.0418615  69.5338593
  15.4438210   8.3940096  70.7377853  80.5760117  54.0106163  59.5597572
  80.9205246  54.8630791  59.2935753  80.7628403  53.9588661  60.4971199
   4.8320274  28.8008232  20.7885189   4.5106063  27.9334145  20.5425053
   4.6836271  28.8523197  21.7327404  70.2942886  46.5501595  34.9853249
  70.2947845  47.1383247  34.2301483  69.3959656  46.2231827  35.0336571
  10.1009159  54.3355331   3.6701322  10.8004246  53.7760201   3.3326933
  10.2788849  55.1963234   3.2911854  11.4589443  18.0965176  85.2523117
  11.3097687  17.1638985  85.4078827  10.8302794  18.3289032  84.5689316
  75.5513000  62.8813248  56.4943047  75.3857422  63.0770149  55.5720634
  74.9530869  62.1623039  56.6977196  35.9117699  59.7737579  66.9569550
  35.6584435  59.3552933  66.1341934  35.3808517  59.3354721  67.6219864
  26.7061214  14.6358728  25.8185215  26.9125881  15.5504484  26.0112782
  26.8425026  14.5533323  24.8746891  60.2247658  65.2189560  73.4423523
  60.1006737  64.4781647  72.8490067  60.8701172  65.7725067  73.0026550
  74.7280960   2.6424644   9.5083275  75.5198288   2.1565385   9.7391291
  75.0506668   3.4660244   9.1423683  26.3444805  71.0100327  85.9957199
  25.9346943  70.1667709  85.8028259  26.3288250  71.0710297  86.9508514
  16.0627575  51.5567131  79.8026276  15.4914989  52.0706978  80.3733368
  15.8874464  50.6473083  80.0444565  61.6298409  14.7611952   1.4409235
  62.4678459  14.2991257   1.4192032  61.7912292  15.5239420   1.9962640
  25.7458477  54.1626472  74.7938614  25.0842323  53.5009041  74.9953384
  26.5796051  53.6986313  74.8698349  12.1449862  55.7627258  12.4696579
  11.5330925  55.0793190  12.1962147  12.2091637  55.6607857  13.4192476
  54.0094643  39.3342209   7.3403368  53.0882339  39.1992683   7.5625010
  54.0320282  40.1967659   6.9259233  51.7493706  63.6172562  28.0740585
  51.8931160  62.6910934  28.2684689  52.5953102  63.9284744  27.7519436
  52.9291000  64.8214722  43.5284233  53.0243378  65.1862640  42.6486015
  53.3895111  63.9830971  43.4912300  68.6234207  64.3438644  21.9086056
  69.5624466  64.1875458  21.8084507  68.3639145  64.7737427  21.0936890
  41.2183228  17.1574955   6.2480245  41.5723877  16.7658043   5.4496207
  40.2699165  17.1487408   6.1188841   1.3276520  12.0319347  82.0556412
   0.6963313  11.6567736  81.4417038   1.0211143  12.9276476  82.1969376
  35.4560394  69.4747162  72.0950699  36.0015450  70.2135773  71.8253632
  35.6756134  68.7769547  71.4776917  21.8089485   3.8411887  20.8535995
  21.6653309   3.9130991  21.7972279  22.4273739   3.1166070  20.7599850
  64.2242050  45.8014717  57.7145157  64.9551620  45.2826195  58.0502663
  63.7610855  45.2081947  57.1231003  71.8023376   2.5364635  52.4132004
  72.0886154   1.8478481  51.8131332  72.5429459   3.1414788  52.4542961
  46.7527084  52.9683685  85.0139694  47.4781418  53.4448242  84.6102753
  46.8593826  52.0670662  84.7098083  49.2915878  21.9455471  86.2792282
  49.4061356  22.0836506  85.3389893  48.7920876  21.1314754  86.3426285
  69.0877838  68.6071472  16.8804741  68.7096100  67.7859573  17.1949024
  68.4338760  69.2711334  17.0989952  84.4250641  11.7647638  17.1644230
  83.6839142  11.3925066  17.6422787  84.0619507  12.0118456  16.3139381
  37.6040649  38.3950539  75.0350342  37.2072868  38.5113220  74.1717377
  38.4777679  38.0493050  74.8524704   0.4857431  56.6757774  34.4043045
  -0.1275947  57.2328949  34.8835411   1.3484542  57.0332756  34.6144371
   6.6375041   6.4909673  25.9181252   7.2558403   5.9739923  25.4017639
   5.7988062   6.3780551  25.4708347  72.7993851  52.6828842  27.9070206
  73.0890350  52.7154198  26.9952774  73.3979950  52.0649376  28.3265953
  76.6829376  43.7490311  77.8847427  75.8401871  43.4816284  78.2514801
  77.0624695  42.9399567  77.5418320  12.9066505  13.0703526   0.8010279
  12.0875416  13.5552549   0.9018379  13.5756426  13.6528568   1.1607099
  68.0342102  55.2438126  79.9894791  68.1869431  54.6621208  79.2448044
  67.8275528  54.6547508  80.7151031  79.7958984   6.6679711  69.4920044
  80.6312637   6.2172303  69.6154404  79.3163300   6.1181364  68.8723907
  80.3099365  47.2957153  17.7667503  80.8412399  46.5388794  18.0140419
  79.8760300  47.5591850  18.5782528  58.2179489  22.5544701  67.7552109
  57.6043282  21.9340477  68.1486282  57.7839279  22.8444805  66.9528732
  67.1335526  39.9932709  75.4137268  66.6742935  39.1766319  75.6097107
  66.7250671  40.6414375  75.9875336  12.2382946  19.3906612   7.9167433
  11.8981361  18.8119411   8.5990963  12.1387215  18.8903561   7.1067982
  66.2093353  16.7529869  58.3848457  65.4036636  17.0209675  57.9429016
  65.9107437  16.3047924  59.1761703   7.2366667  47.2077904  18.8878117
   7.2572713  46.2738609  18.6790390   7.2746859  47.2404289  19.8436985
  82.1924820   3.5803270  50.2772865  81.8367615   4.4416347  50.0585518
  82.5249023   3.2404521  49.4464951  45.1224861  14.2377768  59.7498779
  44.4418869  14.9103889  59.7746315  44.9776039  13.7211504  60.5425529
  24.8099461  30.9220200  66.2605896  25.3684044  31.6986732  66.2264557
  24.0789814  31.1268063  65.6775131   9.0953503   9.6216335  68.8578339
   9.7949524   9.0113411  69.0909271   9.5520992  10.3907881  68.5172272
  73.1608505  48.8023796  14.2905664  72.7007675  49.4513588  13.7582302
  74.0868225  49.0230446  14.1899633  42.9609528  66.8236313  21.8214397
  42.3496590  66.0895004  21.7613907  42.9727440  67.1981506  20.9406300
  54.0316277  11.9141235  11.3924007  54.4672508  11.1208506  11.7041426
  54.7328186  12.5623951  11.3267727  60.3053741  24.4984894  73.5009232
  59.7696266  24.0291481  74.1403961  59.6766472  24.8338737  72.8618164
  75.9480743  27.6734772  77.3430557  76.3033905  26.9750862  77.8928070
  74.9990158  27.5952110  77.4400024  83.0889587  32.9794655  44.6402969
  83.3958740  33.3259544  43.8024559  82.2462997  32.5733337  44.4372940
  52.1705818  17.5207577  88.3821487  53.0471916  17.2454586  88.1138382
  52.1165695  18.4391537  88.1178360  81.6089630   8.1807833  19.1913605
  81.9230881   8.3443480  18.3020897  80.8131104   7.6623487  19.0726852
   8.2486677  34.6545830   4.3156013   7.4628181  35.0535126   4.6891356
   8.4290943  33.9046211   4.8823762  48.0664444  13.7532978  30.3068104
  47.6059875  12.9286242  30.4621334  47.7880630  14.0218258  29.4312382
  47.1246147  51.3608513  45.1520081  47.3833427  50.4949417  45.4674301
  47.8636665  51.6518478  44.6178169  30.3018684  69.1644897  66.1104736
  29.6504593  68.5965424  65.6989746  30.7208080  68.6104584  66.7690887
  42.4439049  62.1650047  26.1401596  42.7939453  61.4085236  25.6695862
  42.9791756  62.9007263  25.8427906   0.3555733   0.8971753  34.4756508
   0.4839221   1.2082537  35.3717461   0.3526276   1.6930972  33.9439240
  72.6636276  27.9880581  13.9084597  72.7673264  28.8983746  13.6313295
  73.4227524  27.8196716  14.4666739   5.5726271  15.6566753   8.8493748
   5.5112052  14.9376068   8.2205658   4.7191129  15.6696749   9.2824755
  74.1285324  48.9636650  54.9352074  73.8813171  49.8883209  54.9240913
  73.6370010  48.5756035  54.2112999  77.9145508   8.1832123  14.2590837
  77.3011093   8.7179470  14.7630491  77.6893158   7.2812495  14.4870462
  75.0894089  66.7002258  85.7687454  75.4846115  66.5100861  84.9179230
  74.3573685  66.0870895  85.8351974   4.6838284  39.3065376  16.9291191
   4.7595191  39.3608055  15.9764605   4.2546978  38.4657631  17.0877819
   4.3708987  15.2552528  69.3551331   5.1211171  14.6988792  69.5645447
   4.0212936  14.8899946  68.5423660  31.0976448  13.8114758  65.4477463
  31.4394131  14.5264568  65.9846191  31.8772926  13.3869896  65.0897064
  63.9974098  27.9571495  78.2797699  63.3890419  27.2361603  78.1176147
  63.4472237  28.7404156  78.2751465  67.5854874  62.2968636  35.9705582
  68.4247360  62.2227783  35.5162392  67.7086029  61.8055038  36.7827415
   0.2534253  63.7429161  10.2344093   0.0420818  63.4454689   9.3494844
   0.1319266  64.6918716  10.2035332  49.9407539  34.9200287  72.9664993
  49.9414558  35.4856300  73.7387238  50.3529396  34.1087608  73.2634430
  49.9404907  43.2692032  87.9919434  50.8793907  43.3190804  87.8124771
  49.7181816  44.1304016  88.3457031  75.6262589  11.2440710  21.0810013
  75.5721436  12.1909218  21.2105274  74.7405167  10.9271374  21.2577553
  83.4414902  69.1952591  21.7739334  83.2344971  68.4247894  21.2450104
  84.2070847  68.9353790  22.2863350   7.6557975  61.2850914  48.3154678
   8.5041981  61.2095757  48.7522125   7.1898832  61.9579048  48.8119354
  28.5439281  44.4118309   8.8196049  28.9761944  44.0748062   9.6043282
  29.0641613  45.1751366   8.5687046  15.0368557  62.6267014   7.5507336
  14.7310162  63.3413353   8.1092978  14.4451075  62.6406059   6.7984886
  11.8728313  60.7258224  20.0044060  12.5497570  60.2803497  20.5138721
  11.0577831  60.5309372  20.4669514  81.7123871  18.6572208  20.1440182
  80.8782272  19.0121441  19.8367119  81.4803925  17.8279419  20.5620022
  42.1299934  58.0720634  36.9722672  42.4838028  57.5518112  37.6936455
  41.9909973  57.4401283  36.2668800  32.7389870  56.6972008  87.9302597
  32.9723167  57.5306931  87.5215073  32.3172684  56.9438705  88.7533875
  46.0517998  27.2242775  77.7464905  45.1218796  27.3897991  77.9016800
  46.4750786  27.4374790  78.5781174  -0.1984199   1.4143542  65.1633148
   0.7227027   1.6450765  65.2838669  -0.2473037   1.0846812  64.2660141
  73.5037308  10.5240231  76.9867096  73.3660583  10.9571381  77.8291397
  74.3637543  10.1115704  77.0671768   1.2887493  31.5368538  35.2744255
   1.3167645  30.9440975  34.5233688   0.7507526  31.0794392  35.9206161
  66.4167786  31.2579994  36.5545845  65.9825821  31.2698765  35.7016106
  66.5492706  32.1814690  36.7687798   5.5564265  62.9351273   8.4810524
   5.0774975  62.3319435   7.9126959   5.4265990  62.5870590   9.3632231
  60.2001686  44.3079567   7.5390344  61.1508217  44.3549690   7.4376345
  60.0190544  43.3772888   7.6704998  11.8130789   8.5203075  52.5632095
  12.7146940   8.4893141  52.8831520  11.6700726   7.6610498  52.1664009
  19.0029373  24.0872345  78.6345139  19.8649120  23.7131386  78.8169556
  18.6366405  24.2772675  79.4981995  46.3315811  24.0381718  84.8302078
  45.5598412  23.6341019  84.4334946  46.0112839  24.4107780  85.6516724
  83.1519470  59.2311974  17.0430832  82.9105606  59.6340141  16.2089939
  84.1052399  59.3094254  17.0798454  78.7726593  54.0772858  15.8286953
  79.6822128  54.0921745  16.1265621  78.2564850  54.1489296  16.6316051
  27.9783611   3.1046467  31.2849312  27.9255505   4.0263743  31.0322247
  28.9114647   2.9495847  31.4315739  36.6258965  71.3076630  13.3968744
  37.0985298  70.6889572  13.9536991  35.8045235  71.4686890  13.8612499
  10.1078796  70.8016739  38.6396370  11.0402784  70.9342499  38.4684982
   9.8725929  70.0411148  38.1082077   3.5464900  14.7752390  55.2485313
   4.3925033  15.0450926  55.6058464   3.1170492  15.5951481  55.0044785
   0.4137661  21.1968021  67.8165512  -0.0668728  20.3820171  67.9626465
   0.3070693  21.3735218  66.8818741  85.0657272  21.0917969  27.9344044
  84.2109070  21.4756718  27.7390575  85.6964874  21.7442951  27.6300774
  49.7015038  58.9423218  79.2697296  50.1190071  59.5005379  79.9257202
  49.9636803  58.0535469  79.5096893  41.8614731  51.2959900  35.9007568
  42.4509659  50.8027954  35.3302422  41.6538277  50.6899376  36.6119652
  36.8629341  44.7971802   8.0818110  36.5180626  44.8988113   7.1947002
  37.8027153  44.9558220   7.9930725  50.7091599  30.8228397  62.9055061
  50.4928474  31.6728897  63.2887268  49.8797569  30.3450489  62.8989220
  62.5540504  46.1403008  24.8023739  61.8770332  46.6293144  25.2700748
  63.1853600  46.8061790  24.5298119  49.0818596   8.4552717  64.1817398
  48.7533722   7.5590096  64.2527390  49.7630463   8.4082651  63.5109138
   7.1535945  38.1594048  34.8276939   7.7574334  38.7008667  35.3360519
   6.6412129  37.6896133  35.4857178  43.8209991  62.3706589  67.6982574
  44.0009499  62.2093163  68.6244431  44.5535316  62.9112053  67.4025650
  18.8245144  57.5290413  18.2610321  19.5066872  57.0094681  17.8356934
  18.0256405  57.3164177  17.7785130  77.8341064  53.7876434  61.7001572
  78.2532425  53.7420883  62.5595093  77.2572098  53.0242615  61.6742744
  42.5566292  43.1289711  87.5519867  42.6511536  42.5141106  86.8245010
  41.8194313  42.7887001  88.0589294  73.4144821  13.7338371  25.5211926
  72.7109756  13.1277962  25.2887459  74.2163086  13.2217922  25.4157677
   5.0516338  58.0460434  10.7739048   4.7216034  58.7691536  11.3072157
   5.7961311  57.7038422  11.2687321  24.1688023  23.8115807   1.1440706
  23.4050102  23.8954926   0.5732720  24.6743755  23.0933304   0.7636176
  71.4975510   1.3745581  66.8482513  70.8368683   1.5568405  67.5164719
  71.0924225   1.6558160  66.0278854  34.6572609  23.3880997  88.2179718
  34.7523003  22.4815388  88.5101166  34.8070869  23.9105968  89.0058746
  83.6238632  55.2302513   1.0945238  83.8789597  54.8967514   1.9547192
  84.3347931  55.8211632   0.8462700  65.8119278  55.0125160   7.6150746
  66.5743484  54.7036247   8.1045046  65.2421036  54.2461128   7.5506072
  24.8973389  10.9648857  55.7546539  25.2538242  11.2337227  54.9079704
  25.5851936  11.1818790  56.3839417  48.9544411  13.2005072   4.3103752
  48.5871849  12.3813944   3.9780948  48.2499313  13.5845413   4.8323088
  40.5746956  28.7362690  88.5947037  39.6382217  28.6923981  88.7879105
  40.6471405  29.4015198  87.9102859   0.4810945  55.1703491  71.0290680
   0.2110796  54.9180450  70.1460800   1.3557224  55.5421677  70.9150085
  47.2094345  23.3540630   9.5365744  46.7864037  23.1706924  10.3754139
  48.0714340  22.9441433   9.6083689  35.5050201   8.7231131  86.4083557
  35.9161873   7.8639216  86.3136673  34.8540077   8.6022234  87.0995865
  60.0653496  30.6346645  23.1440945  60.6649094  31.3802109  23.1744213
  60.1584663  30.2174358  24.0005283   2.8139551  58.1559525  49.3926353
   1.9820498  58.3216171  48.9491043   2.7429531  58.6314774  50.2203217
  12.7875681  41.6965599   5.7232447  13.3626928  41.0981102   6.2000246
  12.2672787  42.1224251   6.4045444  22.1350689  46.8780022  73.4442596
  22.0968704  46.1908379  72.7789993  21.2573261  47.2598381  73.4448700
  56.1478004  36.3638039  28.5903912  55.5050240  36.1603622  29.2698631
  56.7048149  35.5865631  28.5472031  71.7659149  28.5401459   9.9411793
  71.3667679  29.4004993  10.0704241  72.1184845  28.5708447   9.0518055
  24.4661312  46.6960487  82.9374237  25.3793087  46.8705177  82.7096100
  23.9642105  47.3117981  82.4034195  44.9001312  23.0087090  78.5887604
  45.0586395  22.4116497  77.8575745  45.1994057  22.5274563  79.3601608
  64.9967346  43.1455727  23.7580681  64.3169556  43.5536842  24.2943306
  65.6923065  43.8016090  23.7130089  20.9272175  48.7173271  52.5047226
  20.8558788  49.3053131  53.2566643  21.3139591  47.9178123  52.8617096
   7.9577837  67.1486893  50.7175980   8.2697706  66.2494431  50.6164017
   8.7444258  67.6532669  50.9245567   8.2843666  45.6724358  73.5863724
   8.0881224  45.1642952  72.7992783   9.1999006  45.9315758  73.4820786
  16.4372578  35.8273277  70.0461807  17.1961060  35.2697372  70.2178574
  16.7975788  36.5890732  69.5921478  26.5367279  44.9156609  59.1762810
  26.2456532  45.6539803  58.6411247  27.4610462  44.8072777  58.9524078
  21.6769447  49.3548775  24.3614445  20.8225021  49.4158707  24.7885742
  22.2030983  50.0362434  24.7799358  31.8944263  17.1419849  75.0667953
  32.6754837  17.6872139  75.1611633  32.2346687  16.2627201  74.9013824
  77.1698837   0.0655505  60.9952164  77.1968155   0.0339192  61.9515152
  77.8537216   0.6915033  60.7569237   0.0706315  32.3706703   0.2970046
   0.0716160  31.4254379   0.4479018   0.8132058  32.5205803  -0.2880951
  45.0318871  71.0727997  79.7111206  44.1025734  70.9839096  79.4996719
  45.3289452  70.1762619  79.8666916  21.9799423  57.6035576  44.0070724
  21.2640095  58.2117577  44.1908226  21.8705921  57.3769035  43.0835457
  79.0808487   7.9464717  25.4252625  79.2526398   8.7071714  25.9802876
  78.6891403   7.3028188  26.0156097  63.6361885  57.9059143  59.9523849
  64.1883698  58.0332794  59.1809502  62.7740097  57.6903458  59.5968437
  35.2596283   9.3132372  76.8236618  35.5333061  10.2238426  76.9337997
  34.7564468   9.1171083  77.6139603  22.9768505  68.3615646  41.1502647
  23.0345745  68.3185120  40.1957779  22.6368084  69.2380219  41.3303566
  82.8164902  56.2611198  26.0079365  82.9948044  55.6257439  26.7012863
  82.1350403  55.8501930  25.4759674  12.5998297  40.2508469  14.8613834
  12.9069901  41.0213661  14.3836966  13.3793497  39.7043686  14.9610825
  63.3582687  20.5492592   0.7559089  63.5228271  19.8710918   0.1007444
  64.2299805  20.8408890   1.0229213  32.9717712   4.2041173  26.0852394
  32.0251617   4.1374607  25.9598732  33.1559410   5.1414957  26.0249500
  74.5638351   9.6546278  53.3259697  73.7383575   9.1723261  53.2789726
  75.2266922   9.0225744  53.0478363  29.9730740  47.1219406  80.4063568
  29.8443813  46.3262939  80.9227066  30.5242290  47.6781883  80.9568558
  45.8861084  53.7291412  19.3942318  45.1344223  54.1051254  18.9361534
  46.4852600  54.4656296  19.5160351  60.1166344  23.2665787  58.5464058
  59.2844048  22.9029274  58.2441139  60.7689476  22.9007950  57.9489746
  43.9146194   2.9134288  75.0079575  43.7199249   2.0504577  74.6424332
  44.8354187   2.8627098  75.2644501  49.5527306  63.2811699  66.5162430
  50.3909454  62.8922310  66.2665405  48.9949379  63.1620178  65.7475433
  56.3965149  61.0866394  30.3653297  57.1744919  61.5499001  30.6757679
  56.5913086  60.1620560  30.5184002  61.8448563  33.9440842  62.0809860
  60.8997116  34.0369644  62.2005997  62.1252708  34.7873268  61.7252617
  59.7290726  19.3163776  30.5279522  59.1735573  19.5000248  29.7703838
  60.3857841  20.0126953  30.5178185   5.8184419  56.8002281  35.7343750
   5.3026333  55.9964066  35.7979813   5.2316341  57.4287148  35.3137856
  43.9945755   1.7287209  66.1475754  43.1039238   1.7582878  65.7981415
  44.3959351   2.5450747  65.8497314  72.0278549   7.9896989  22.6617622
  72.4798355   7.3271990  22.1392326  72.0700455   8.7842388  22.1296368
  50.8162308  46.2709045  14.0183430  50.6984215  46.3059883  13.0690689
  50.0666313  45.7663803  14.3342381  37.3026543  42.3965302  74.1648026
  37.9513130  43.0703316  73.9611893  36.9302635  42.1582222  73.3158188
  52.7909012  59.8737297   9.4000654  52.5783653  60.4852333   8.6949959
  53.7474747  59.8399429   9.4075718  23.6120052  30.0858994  53.2711220
  24.1634464  29.4243813  53.6889038  23.3649960  30.6761627  53.9830246
  40.7313385  44.8294067   5.4883094  40.5023384  44.7189064   6.4111204
  40.0781898  44.3131409   5.0159726  46.7934494   7.6862435  72.4143600
  47.5685501   7.4356918  71.9116898  46.9967461   8.5599051  72.7484512
   6.8936868  62.5687103  20.0553036   7.6701827  62.0951042  19.7570019
   6.8182626  62.3448715  20.9829025  21.5100937  42.5140076   5.6848636
  21.5192871  43.3671341   5.2509084  21.1977329  41.9072342   5.0136766
  77.1886520   9.8017254   1.0882376  76.9406967   8.9793301   0.6658481
  76.5696564   9.8952217   1.8123460  73.8440857  34.8362503  15.1831894
  74.6423111  35.3392296  15.3446589  73.1333466  35.4336624  15.4159622
  12.8903990  39.2013664  76.7920761  13.3269806  38.8025360  76.0393753
  12.0943222  39.5896835  76.4291687  72.6735001  20.2762680  58.4468842
  71.8206024  20.6351395  58.6918602  73.3030090  20.7840424  58.9588547
   8.2486076  55.2820930  36.8906136   7.7516189  56.0238876  36.5456848
   8.6462822  55.6137924  37.6956367  65.2954330  63.5496521  47.0976791
  65.5285034  64.0959854  47.8483009  64.9072571  64.1586990  46.4694939
  13.6877871  34.4875908   6.3365326  13.8409309  34.1760254   5.4445076
  13.1329403  35.2600555   6.2284846  74.4138107  26.7236271  72.2482834
  74.6624374  27.5920506  72.5649261  74.9540863  26.1193352  72.7573700
   6.7873077   5.1352310  57.3817291   5.9726839   4.8293619  57.7805557
   7.0786786   5.8488169  57.9492912  82.7437210   8.2239475  35.9586334
  83.1441193   8.3327780  35.0960426  83.3925858   8.5730333  36.5696526
  13.1194611   2.2316883  86.6730423  13.2885485   3.1588981  86.5059357
  12.2820024   2.0595763  86.2426071  20.8561153  37.4141388  72.1489258
  21.6181889  36.9427795  72.4855194  20.6503944  36.9776115  71.3222733
  58.6552086  47.7825317  57.5321159  58.8814087  46.8668480  57.6951599
  59.4707108  48.2609482  57.6814651  17.0865040  35.6274185   3.1032853
  17.7915344  36.2715950   3.1680636  16.5903854  35.7328758   3.9150586
  63.7550278  46.9059563  85.3580399  63.0565414  46.8449440  86.0096664
  63.8125153  47.8396606  85.1552582  72.9496384  48.3882980  60.0899696
  72.8091965  48.8509140  59.2638359  72.0681381  48.1958275  60.4095612
  17.6982784   4.0547976  74.4305725  17.6445065   4.4691935  73.5693970
  16.9887905   3.4122598  74.4319000  59.7274513  30.8310947  51.6385269
  59.8877068  31.6468430  52.1129761  58.7757034  30.7298241  51.6509018
  34.4715881  54.5986214  44.4051285  35.1988411  54.3082428  43.8546600
  34.0106125  53.7926331  44.6377640  74.1453323  35.5178528   8.3328791
  74.9327240  34.9844360   8.4410887  74.4742203  36.4085999   8.2119408
  56.5090408  30.4478874  74.8748932  56.7743988  30.9669819  74.1157074
  57.3118668  30.3423958  75.3853531  29.2735062   9.9388685  66.8867722
  29.2799740  10.7359352  67.4167480  29.2503281   9.2265577  67.5257645
  25.0453491  45.4522858   2.4948826  25.8560390  45.9294319   2.3178492
  25.0387173  44.7441368   1.8508993  22.8000011  67.1981583  69.4423065
  23.2667809  67.9623718  69.7804260  22.2598495  66.9036484  70.1756134
  21.7658520  69.6316147  31.0417843  20.8237648  69.7837524  31.1163502
  22.0480690  69.4345093  31.9349442  17.8187828  43.8228760  24.5027714
  18.0130482  43.5727997  23.5994682  17.7117538  42.9909172  24.9638805
  48.7652321  47.3131447  61.1970215  48.3836174  48.1609573  60.9693909
  49.6812553  47.3828659  60.9281769  31.5635948  35.4882889  13.0288754
  30.9368076  34.8275375  12.7342892  31.6983242  36.0482979  12.2643719
  45.5112152  45.0905457   0.9085287  45.9942436  44.3014679   0.6630327
  44.6608849  44.9939651   0.4797576  84.0909500  33.9618950  85.4161682
  84.8807373  34.4281883  85.1422272  84.2084503  33.8233299  86.3559647
   7.4769273  45.3172493   0.0392144   7.1950765  44.7917290  -0.7095298
   7.0135336  44.9380379   0.7860038  54.0055733  31.7823086  16.9676952
  54.5149651  31.0120182  17.2194977  54.1899910  31.8971596  16.0354767
  12.8907051  26.4047050  85.4761047  13.2024765  25.8495274  84.7613983
  12.1553822  26.8886623  85.1001816  23.1272888  58.6899300  85.7093353
  22.2533112  59.0315399  85.8982697  22.9695892  57.9079285  85.1803360
  61.0583000  45.8745193  38.7421494  61.8901672  46.3104858  38.9269829
  60.7187080  46.3245811  37.9686165  64.0606613  29.6816597  33.8813515
  63.8454399  29.6527653  32.9491081  64.3004456  28.7811031  34.0998268
  57.0463371  53.9463692  65.0115891  57.2912979  53.6998711  64.1196976
  56.4377365  53.2622528  65.2905579  59.5587692  47.0040054  33.4534721
  60.2833099  47.6287422  33.4222603  59.7953873  46.3976784  34.1553345
  54.1730270  12.5317211  29.8969688  54.5018463  12.2653751  29.0383835
  53.3134918  12.9124298  29.7167072  66.0485382  42.7667313  86.3772278
  66.2730103  42.5546150  87.2832413  66.2843246  43.6895142  86.2818146
  71.1203995  53.0205193  66.7561493  71.5901108  53.0991440  65.9258347
  71.7561417  52.6284523  67.3547745  13.0472622  43.5533447  35.9222488
  12.5025034  44.2574768  35.5705833  13.6739635  43.3638687  35.2239838
  13.7685671  37.1124229  79.9979401  13.8082142  36.9832916  80.9455566
  14.1195459  36.3011093  79.6307602  11.9384508  60.1165924  63.2607803
  12.2583218  59.2424164  63.0377731  10.9944162  60.0048447  63.3727760
  33.4182205  70.2429886  27.2161312  33.9144783  70.9529266  26.8087692
  32.8791847  69.8905334  26.5080032  49.0072060  67.1917419   5.3934355
  48.8031883  67.5324554   6.2643671  48.1655121  67.1796570   4.9377599
  46.2734299  66.5160904   9.3524780  45.8405151  67.3424454   9.1381159
  45.5935860  65.8523560   9.2362871  29.4859352   0.2731256   5.1492915
  29.9671555   1.0557892   4.8807855  29.9493656  -0.0379656   5.9269061
  71.7660828  20.9716854  62.8619347  72.6382599  21.3059483  62.6526337
  71.8655319  20.5654392  63.7229233  47.8487015  24.7624493  78.3841324
  48.3570747  24.3716564  77.6734543  47.2804642  25.3989201  77.9502640
  57.1772537  22.3841915  86.5865479  58.0348473  22.7848549  86.7287827
  56.9615822  22.5960388  85.6783371  61.4459991  46.9317894  86.9243393
  61.6913910  47.0181465  87.8455124  60.4888496  46.9247093  86.9310989
  51.0482788  53.7436066  33.1967545  50.1595688  54.0812492  33.3082008
  51.5324516  54.0918846  33.9454308  10.6313953  24.7599602  81.5884628
  11.4221754  24.2791710  81.3440475  10.3287067  25.1547012  80.7706680
  66.2769394  48.7314682   9.3611403  66.7400513  48.0152206   9.7955942
  65.3878555  48.4000893   9.2348585  66.9584198  60.1520653  23.0456715
  66.1917801  60.4860725  22.5799084  66.6471558  59.3585587  23.4812050
   0.1298424  71.3305054  27.2235565  -0.0894544  71.6738739  26.3573952
   0.4901191  70.4604263  27.0520992   5.5502853  50.8423424  69.9304504
   5.6256022  50.4845924  70.8150864   6.2004843  51.5441475  69.8997498
  78.0862656   5.3822112  30.1491337  77.7908173   5.7588372  30.9780445
  77.9971466   4.4369025  30.2702999  86.4179230  23.8489799  78.4130630
  86.2401199  23.7372875  77.4791718  87.3333740  23.5887737  78.5153809
  38.9792252  71.2011108  82.6884460  38.6924477  71.4235840  83.5741653
  39.1849518  72.0441437  82.2844696  76.6528625   3.2446392  67.7226486
  77.0822372   2.9277496  68.5172806  75.7272263   3.0378838  67.8518448
  62.0475159  70.5084076  67.3859329  62.8756714  70.5642700  66.9092026
  61.3984413  70.8683395  66.7814636   9.3175764  28.1125927  67.0837631
   8.6014328  28.1652393  66.4508362   9.7393064  28.9707756  67.0401917
  76.2689285  20.6877766  30.1303883  75.4601288  20.3370495  29.7574596
  76.7224350  21.0857506  29.3873043  31.2718735  68.7742691  58.8039017
  30.9489632  68.1412354  58.1626282  31.6222286  68.2375412  59.5148201
  33.4679642  26.1997509  87.3028412  34.0165863  25.4239712  87.4186478
  34.0643044  26.8659992  86.9611969  54.1644897  40.4308052   4.3992977
  54.1054344  41.0464706   3.6687481  55.1022911  40.3596497   4.5773435
   6.1260157   9.3012247   7.2196836   6.9776092   8.9834900   7.5197916
   6.3270588   9.8366194   6.4521127   3.0382824  30.9444542  37.6205635
   3.0994332  31.2859631  36.7284508   3.2871785  30.0235195  37.5420685
  50.6280479  12.3217363  71.8141403  51.3223763  12.1636429  71.1744995
  50.0130730  12.8994923  71.3622208  72.4494553  38.3478546  47.9038010
  73.2320480  38.4937477  47.3722992  72.5756073  37.4776459  48.2820282
   7.5824118  34.6471024  53.0619698   8.4341698  34.4456787  53.4494858
   7.3893108  35.5368958  53.3572845  69.6511536  25.0292244  23.2906322
  68.9812927  25.7030983  23.1748428  69.1585388  24.2345867  23.4958420
  45.4541702  68.5610657   6.2557421  45.6605721  68.4807358   7.1869650
  45.4410591  67.6594162   5.9346747   8.6870899  46.9140434  64.2596436
   8.6123867  46.9340973  65.2137146   9.4480677  46.3585510  64.0906067
  77.1333694  34.7262955  83.7054520  77.7416458  34.5598564  82.9853592
  77.1729202  33.9335632  84.2404633  57.3825035  67.6400986   0.3602006
  58.1790581  67.7609100  -0.1566511  57.3526726  66.7000351   0.5380603
  65.1188660   6.9374971  16.1493797  64.2954330   7.3157845  16.4577484
  65.5922623   7.6752887  15.7649450  33.3636665  70.9609222  66.3939743
  33.3693542  70.4244766  65.6012421  34.1044388  71.5572510  66.2849503
  17.8051109  38.3688354  20.3108463  17.8451233  38.3736916  19.3544960
  17.6336575  37.4551086  20.5387573  38.3541985  48.4952621  86.2317200
  38.1911697  49.4384117  86.2425613  38.6258583  48.2888565  87.1260529
  81.4940796  25.2965794  42.0383453  80.8827820  24.5693474  42.1552963
  81.9803543  25.0753498  41.2440948   6.9550252  60.2179718   1.2677298
   6.8012629  59.3008690   1.0407718   6.0837741  60.6143951   1.2662575
   2.2695346   4.4577603  69.4567871   2.1613996   4.0893965  70.3336258
   1.8995003   3.7965333  68.8719025  73.5868301  50.0197868  47.6265450
  73.1998367  49.9287758  46.7558022  73.0358276  50.6667290  48.0671043
  19.3339615  64.5600128  77.3080902  19.5335941  64.4198074  78.2336807
  20.1459846  64.9058838  76.9376526  59.6395187  51.4986343  37.5028152
  59.8229027  52.4356155  37.4344940  60.1768456  51.2023582  38.2374840
  68.2288818  18.5331955  11.1588793  67.3482819  18.2721081  11.4283447
  68.8018951  18.1821728  11.8405466   9.1563511  58.3123283   5.7180443
   9.5120726  58.9387589   6.3483443   9.8054609  57.6095581   5.6864324
  12.4178314   3.7783546  67.0332794  13.2832975   3.4223123  66.8321991
  11.8141861   3.2496400  66.5114441  11.2049255   2.9550350  89.1192551
  11.3864079   2.0367596  88.9190826  12.0354586   3.2966208  89.4505615
  76.2045364  49.2221603   0.3546261  76.6086502  48.5796242   0.9377831
  76.3276443  50.0605049   0.7998850  23.6185799   5.6601567  88.3860779
  23.2184010   6.5241637  88.2882004  23.1766453   5.1162601  87.7340775
   2.8395610  13.1838131  16.8587742   2.8014574  13.6152468  17.7123814
   3.1039875  13.8755980  16.2523537  24.3999252  59.2683296  79.9265060
  24.3891373  58.8025246  79.0903549  24.3662243  58.5761108  80.5867538
  82.2796936  61.1934471  54.1803360  82.4626541  60.4271507  53.6366920
  81.5572052  60.9193611  54.7452393  79.9081573  16.6590061  10.4152794
  80.4412384  17.2502022   9.8837290  79.8663864  17.0806141  11.2736120
  40.4184914  53.0762901  80.1058273  40.4728241  52.4704170  79.3667679
  39.6312561  53.5931282  79.9344559  75.0857010   6.5682616  77.9313202
  74.1565628   6.4006639  78.0889206  75.4481583   6.7434101  78.7997513
  65.3737106  60.9863510  79.1414261  66.1116257  60.3766823  79.1446915
  64.9582214  60.8549423  78.2891769  45.4011841  60.0899620  79.5311432
  45.0910301  59.1874046  79.6047974  44.8571854  60.4748421  78.8440018
  63.5601158  19.1401939  45.4691162  64.3387451  19.6257591  45.7415085
  63.6856995  18.9925022  44.5317535   6.7986546  49.6019020  22.7663383
   7.1150112  49.9711876  23.5908241   6.7419238  50.3517990  22.1741638
  81.7129059  52.8712044  34.6051216  82.6519623  52.6893921  34.6418228
  81.2987061  52.0387115  34.8323479  83.1037140  60.5215492  41.7414398
  84.0158157  60.2314301  41.7298317  82.7475891  60.2256775  40.9036636
  38.2661018  68.5967255  48.4968948  38.6804543  68.4101334  47.6544418
  37.6190033  69.2742233  48.3007088  72.5497208  40.4642944  31.8913326
  73.3592529  39.9551544  31.8506088  72.0359039  40.1573677  31.1443253
  30.5145645  20.7393761  87.1368179  30.0349960  21.2914124  87.7544708
  31.2821407  21.2587471  86.8974152   8.4500198  64.7744827  34.7817612
   8.9738121  64.4210052  35.5007362   7.6023250  64.9745026  35.1787949
  49.1534157  66.7130127  35.7315826  48.3936958  66.8493042  36.2976952
  49.4184837  67.5948105  35.4700356  75.6094437  30.4333572  29.9573574
  75.3964996  30.3333740  30.8852005  76.1845474  29.6934052  29.7625179
   5.2566814  62.5465698  33.8050117   5.8587875  61.8033371  33.7689018
   4.6660872  62.3413734  34.5298042  77.5565720  63.6593018  67.2074661
  77.6684875  63.5056267  68.1455994  76.6599579  63.9836578  67.1231766
   7.5813437   2.6869602  42.7144928   7.1171446   1.8624002  42.8588905
   8.2541323   2.7054358  43.3951149  47.2082672  56.4714890  39.8671684
  46.8805923  55.6489372  39.5034714  47.8865967  56.2055054  40.4879379
   3.8049793  48.2212486  23.5569592   4.4276567  48.7494736  23.0574780
   4.1657705  47.3351021  23.5285912  67.6844254  28.6018047  28.7006378
  67.2453842  28.0765877  28.0315933  68.2177429  29.2234669  28.2053146
   8.8904676  48.4014740  88.0255051   8.8705549  47.9652557  88.8772888
   9.2579355  47.7480621  87.4303131  14.6659718  64.4198914  26.8884029
  15.0246954  63.9901199  26.1119728  14.8644400  65.3476944  26.7618141
  80.6516037   8.5209208   6.3949227  81.3143845   8.0555925   6.9052439
  80.4513779   7.9312210   5.6680155   4.3390408  56.3439026  88.9250412
   4.3303037  55.6724129  88.2429428   3.5510592  56.1719284  89.4405441
  37.9156227  60.9759140  54.5085602  37.1143074  60.7201462  54.0517159
  38.5732651  61.0475883  53.8167534  81.0747147  15.4154654   6.2464371
  81.9160004  15.6935577   5.8843184  81.2516861  15.2647991   7.1749907
  22.1077805  50.7853203  21.6439476  22.5738277  51.6009102  21.8279133
  21.1966457  50.9742393  21.8683949  25.2203407  53.5937309  62.0573349
  26.1106682  53.8974152  62.2343216  24.9922676  53.9959106  61.2192039
  48.1800728  43.7165833  51.2299004  47.2527046  43.9345093  51.3233337
  48.4618797  44.1974106  50.4516869  33.9963608  51.8964157  45.1390877
  33.4089127  51.9281731  45.8941536  34.5912247  51.1708908  45.3287773
  38.1321716  20.7940559  12.7802877  37.8532219  20.2565651  12.0389891
  38.4086304  21.6212044  12.3857899  60.6950378  68.8445206  18.0044632
  61.5849953  68.6590652  18.3041573  60.5580482  69.7676010  18.2175007
   0.4095588  18.5476685  45.9323502   1.2006829  18.8436718  45.4820862
  -0.0310621  19.3548412  46.1979752  38.4988823  20.0467606  67.0191040
  37.5803146  19.9617348  67.2745132  38.9619370  19.4241009  67.5795593
  20.1405487  49.0570831  86.5893097  19.5715256  49.6477127  86.0957565
  19.9486523  48.1885452  86.2356949  80.0205154  21.1700783  28.6994400
  80.1121979  20.9762268  27.7665691  79.2292862  21.7057781  28.7561188
  55.8877792  24.6275654  28.2680683  55.5822105  24.2646637  27.4367065
  56.4058876  23.9247017  28.6602116  64.6031036  68.7555313   7.9788065
  63.7602005  68.3220596   8.1124172  64.8954315  68.9876556   8.8602209
  60.0074654  30.2065678   0.4717461  60.6099319  30.6268311   1.0854591
  59.2608490  29.9446774   1.0104568  41.1221962  26.6798534  80.2925797
  41.0959854  27.2935143  79.5584335  40.3639259  26.1116390  80.1569672
  21.8873825  47.8015976  46.9903564  21.2204533  47.7037201  46.3107567
  22.0425758  48.7448502  47.0395546  81.8102036  38.7297821  44.3894119
  81.2835312  38.1727943  44.9626579  82.0142822  39.4977188  44.9231300
  25.1001244   8.6638079  76.6283798  25.8935623   9.1922283  76.7147369
  24.4520340   9.1146173  77.1696548  33.7504272  59.1195946  86.9657745
  33.4521675  59.3407326  86.0835190  33.8186569  59.9626694  87.4138794
  56.5332451  49.5723038  41.9475784  55.8607216  49.9473267  41.3789825
  57.3609581  49.8445549  41.5513458  47.9339447  49.0272064  46.4075584
  48.4016876  48.2699776  46.7597771  47.0991478  48.6722107  46.1020622
  74.9933395  13.1550064  67.7298584  74.8438416  12.2733946  67.3883286
  74.5933228  13.1460171  68.5994263  10.1976948  42.0156021  70.8765869
  10.5042782  41.6165428  70.0623474  10.9215450  42.5761490  71.1559753
  28.9111900  61.0205040  41.9015007  28.0250340  61.0167961  41.5396385
  29.4832211  61.0317116  41.1341095  65.4748917  32.0429993   7.2403522
  65.7214661  31.2833767   7.7679949  64.8900604  32.5476303   7.8056440
  13.8428183  52.4773636  30.6250172  13.7517042  53.3762741  30.9410629
  14.4513178  52.0677795  31.2399979  76.4688416  51.2446861  61.3072701
  77.0852661  50.5268326  61.4519844  76.0553513  51.0399246  60.4686203
  28.7239532   6.1404138   1.2783196  29.2213955   6.3694792   0.4932640
  27.8191929   6.3670435   1.0631864  79.6150360   5.1894836  34.5236588
  80.2307358   5.4670982  35.2019501  80.1686401   4.9579105  33.7779198
  49.4753838  57.2744827  76.1013031  48.8224373  57.9493904  76.2867508
  48.9635811  56.4772987  75.9642487  77.9178772   4.8612752  75.4239578
  78.4383545   4.2029610  75.8843460  77.0099335   4.6064491  75.5880585
  13.6072454  61.5270157  79.3689270  14.5594196  61.4336929  79.3391266
  13.3361864  60.9821014  80.1077271  12.7650671  44.3046455  85.1238937
  12.3575058  44.8684196  85.7813797  13.6629725  44.1859398  85.4335785
  44.4570122  35.6471672  18.0202122  45.2473679  35.1143532  18.1078377
  43.8956375  35.3633804  18.7417088  12.8066502  66.2053833  43.5546532
  12.4274902  65.9980087  42.7005692  12.8710480  65.3603745  43.9996719
  81.7548523  36.2436600  14.6158867  81.8945084  35.3663139  14.9722404
  81.1237259  36.6466789  15.2121124   1.2900194  41.0608559  59.8056297
   1.9160752  41.7594719  59.9959488   1.6122695  40.6644287  58.9961662
  86.1985016  23.7619591  47.9578972  85.4231567  24.3151321  47.8626442
  85.9888153  22.9687252  47.4649048  25.4935017  66.1541061   5.4069738
  25.0712986  65.3849335   5.0244083  26.2498512  66.3172760   4.8434639
  85.0659943  17.3202267  32.2981720  85.9450836  17.2878952  32.6755066
  84.5902328  16.6160564  32.7386589  34.7488976   3.8518848  16.7232246
  35.5643959   3.5353761  17.1118355  34.1269073   3.1365075  16.8558712
  62.6346474  27.5909557  48.9812851  63.2258835  28.2575550  49.3310242
  61.8922615  27.5884743  49.5855103  48.8572693  11.3284979  48.2943382
  49.0512199  10.5460033  47.7782784  49.6732101  11.5183229  48.7574158
   5.9868898  42.2063789  83.8489914   6.4973693  42.2821808  83.0428314
   6.4828882  41.5916443  84.3896561  50.7013168  48.9420128   9.8213606
  50.2401733  49.7559814  10.0239201  51.6284142  49.1784172   9.8501787
  41.7643814  26.3080807   9.7660809  41.4077415  27.1713543   9.9753637
  41.9479027  25.9118290  10.6178646  43.3546715  32.6652641  20.6420879
  44.2079964  32.6837425  21.0753593  43.2442207  33.5495796  20.2927666
  37.4297333  70.5899582  51.3596916  37.8498573  71.0953903  50.6638031
  37.4061317  71.1863098  52.1080437  54.8883209  48.6612434  22.0357094
  55.0256310  47.9746590  22.6883793  55.2558022  49.4492226  22.4360561
  35.4829216  43.6080856  79.4647141  34.7476234  42.9972992  79.4146500
  36.2435379  43.0892220  79.2030334  14.5212622  64.4764557   9.6362419
  13.8409529  64.8439636   9.0720139  14.1859112  64.5960007  10.5247707
  84.2330627  63.9944305   4.6583018  83.8465500  64.6343002   4.0604668
  83.4844742  63.5128136   5.0102854  10.4387522  11.2566462   3.0655386
   9.5371780  11.3640108   2.7624404  10.6882372  12.1231365   3.3867600
  72.3187637  35.9873047  39.6729431  73.1881180  35.9680824  39.2728424
  72.2886429  35.2012100  40.2182693  72.9211044  71.6065750  81.3197784
  72.0815659  71.2635269  81.0136261  72.7407608  71.9278030  82.2032471
   4.8270059  13.8269682  88.0250015   4.3740101  13.6833715  87.1940918
   4.4704142  13.1591463  88.6107330  45.0704346  35.1352234  49.3687935
  45.4398842  35.3842392  50.2159805  44.6063995  34.3159943  49.5413399
  43.2998581  44.2698135  12.3373613  42.3457031  44.3399391  12.3072729
  43.4665565  43.3434868  12.5116177  46.8952942   4.1398473  69.2543259
  46.4754105   4.9999938  69.2630768  47.2303085   4.0277972  70.1439590
  78.8353653  26.6137695  10.6069841  78.8580093  27.5688038  10.6672173
  78.2151794  26.4329720   9.9006405  35.7085457   8.1515427  10.9431458
  36.1145744   7.2931561  10.8225403  35.4449501   8.4177027  10.0622902
   9.5292063  56.2522087   0.1486534  10.1676464  56.2665443   0.8616895
   8.9638815  55.5060349   0.3483101   1.5286818  60.7525826  28.3983688
   0.8089224  61.3336906  28.6443195   1.3578123  59.9428406  28.8793659
  12.2509222  48.0315094  34.5957146  11.4735088  48.4390869  34.9774780
  12.4959335  48.6115913  33.8748093   2.9115393  33.2010155  28.9985847
   3.2668433  32.7263756  28.2471123   3.4849999  32.9609642  29.7264252
  25.5936031  43.7263069   5.8585014  25.4820213  43.3339081   6.7244134
  25.0436954  44.5095444   5.8778133  17.7482014  57.0751686  48.4708977
  17.9425602  56.7402306  49.3462677  18.3160133  57.8398399  48.3755074
  85.9562378  38.4140244  58.7007179  86.4084930  39.1355667  58.2635994
  86.6598206  37.8542366  59.0291176  60.1709099   7.2300615  72.0223465
  59.9944725   7.9845352  72.5843658  59.3044624   6.8906946  71.7979965
  33.1534691  47.3915215   8.1604271  32.9658775  46.5068169   7.8468342
  33.7325249  47.2616615   8.9114704  67.7152176   4.8917961  32.9613380
  67.2488251   4.9627357  33.7942123  67.0278397   4.9405923  32.2969933
  70.5463181  57.8673134  30.9959335  70.3897781  57.2566338  31.7162113
  70.2766953  58.7185631  31.3407650   6.8363795  71.0903931  38.4425926
   6.5393753  71.9983749  38.5024719   7.7478571  71.1168442  38.7336960
  13.2506590  62.3727264  62.3972092  14.0883694  62.0109367  62.1081047
  12.7790956  61.6235466  62.7613411  45.0549812  57.2956924  72.4278336
  44.6642990  57.8879356  73.0703659  45.4593620  57.8755188  71.7824631
  12.9130468  14.2861977  84.2525864  12.8383799  14.9493217  83.5663528
  12.0733252  14.3200932  84.7107925  19.4664230  31.8420410  17.1870728
  19.7283669  31.7459888  16.2714367  18.5219402  31.6865673  17.1835709
  11.8019190  64.5663376  61.8574753  12.2414141  65.4107971  61.9573174
  12.3581924  63.9491501  62.3327332  57.7048531  53.7398109  26.3678436
  57.8038254  54.5675392  26.8382683  57.2392311  53.1703911  26.9803696
  65.1228943  52.4406662  85.9308548  65.5675125  51.7654686  85.4183655
  65.7388840  52.6538010  86.6318283   6.3963060  49.0209846  49.6260681
   7.1699610  49.5653496  49.7722092   6.5640845  48.2256660  50.1315880
  15.9285507   9.4273243  17.9939594  16.5882816   8.9055166  17.5371189
  15.1354647   9.3244715  17.4679680  84.3557434  29.2763977  86.4945374
  83.6735535  29.8638878  86.8196564  84.1159821  28.4165382  86.8400574
  66.1376495  55.8983345  19.7945900  65.5201035  55.6330681  20.4761295
  66.6825104  56.5657272  20.2116661  77.5022430   3.6425962  52.7052345
  78.1277542   4.1196203  53.2505951  77.7951202   3.8034298  51.8082466
  12.2208014   0.1737804  64.2779541  12.1432085  -0.6841499  63.8606224
  12.9349146   0.6048261  63.8084106  66.6070099  26.3515072  10.6224785
  66.1007767  25.5481606  10.7432728  67.4455872  26.1724129  11.0478535
  25.5480061  53.5923729  52.2496681  25.6267300  52.7713852  51.7638550
  24.8374996  54.0620079  51.8127975  73.9102325  18.4235306   4.0224061
  73.9678574  19.3783875   3.9883394  73.2986221  18.2458363   4.7369614
  60.5069275  69.6237488  33.5985985  60.9681511  69.8405838  32.7883644
  60.5931969  68.6736221  33.6763878  47.4362793  59.4867249  62.4101067
  47.7670441  58.9068871  61.7240906  48.2003746  59.9941406  62.6838264
  83.7595596  12.1238213   8.7789707  84.7060318  12.1200838   8.9218225
  83.4502869  12.9014835   9.2435389   3.6094816  16.0937729  62.8565674
   4.5293241  15.8549452  62.9709473   3.4160287  15.8723698  61.9456406
  52.7993431  15.1909122  77.6531982  52.0304794  15.1998148  78.2232895
  52.7696495  14.3356676  77.2243576  24.3915424  64.7455978  82.0868073
  24.9811611  64.1141357  82.4989090  23.8209934  65.0394058  82.7970047
  30.0729485  39.5713692  80.1162643  29.3334846  39.7164764  80.7064896
  29.6836777  39.1719818  79.3383255  84.5773773  15.8325529  84.5377045
  84.3783035  15.7817469  83.6028214  84.4871674  14.9326038  84.8510513
  84.7297134  32.2008629  69.8993988  84.2021027  32.1511269  69.1022873
  84.5932159  33.0917473  70.2217789  15.5102282  62.2259865  65.5235291
  15.0675154  61.9573441  66.3285599  15.6604357  61.4086113  65.0485840
  73.0614243   7.8919878   3.3271363  72.2897110   7.5064559   2.9123366
  72.7360001   8.6901159   3.7434568  27.3688545  44.4806290  67.5733566
  27.6966171  43.5824280  67.6184692  27.9039974  44.8972282  66.8978577
  16.1654358  46.0483360  35.3373375  15.4525709  46.4094582  35.8642578
  16.9619274  46.3737679  35.7567711   0.5497486  15.3341007  53.1837845
  -0.3441514  15.6613684  53.2841377   1.1037638  16.0988388  53.3402290
  80.3103867  47.7198105  66.0849152  80.0696564  47.5132561  66.9880295
  79.5512085  48.1864319  65.7354126  49.9479294  45.9510994  39.9735870
  49.6998062  45.1718941  39.4760818  50.3418427  46.5341949  39.3246918
  18.0183334  40.0042839  45.7990265  18.9521484  40.1422920  45.6403503
  17.6613274  39.7728539  44.9415817   7.0457201  25.4867134  72.6672134
   7.3231421  25.1721153  71.8068085   7.8605137  25.5887375  73.1590805
  38.6523552  10.1418171  77.6854401  38.3852692   9.7566357  76.8508530
  37.9031372  10.6732712  77.9546280  55.1053963  52.9176636  19.9305935
  54.8315010  53.5080795  20.6324635  56.0328865  53.1149597  19.7999268
  66.4714279  61.9211044  33.4356194  66.7048035  61.0839081  33.0345345
  66.8924255  61.9005814  34.2950211  17.2855206   4.8045468  88.1812744
  18.0948334   4.3236675  88.0080643  17.0679150   4.5884628  89.0880203
  59.4095039  64.5068817  60.1883507  59.8812294  64.2343063  60.9753761
  59.0041771  65.3400955  60.4285622  21.2182312   0.5656138  51.8288612
  21.5682640   0.1986533  52.6406784  21.2898407  -0.1467780  51.1935616
  17.8281231  48.6849327  24.4272251  17.1500454  48.0832405  24.7344894
  18.3667202  48.8537674  25.2002964  65.7005768  51.9343834  53.5008583
  65.8715210  52.8678856  53.3760452  65.0323334  51.7239532  52.8486328
   8.0755825  42.9079552  77.2980270   7.4814315  42.1594048  77.3517532
   7.6257567  43.6054916  77.7748184  67.8214188   8.6221743  33.2507019
  68.5885315   8.0653009  33.1178284  67.0841293   8.0122471  33.2757339
  85.9075089   7.6146030  67.8875198  86.4645081   8.3283386  67.5767593
  85.0256424   7.9866371  67.8991013  84.9366837   4.3426847  82.1895981
  85.8090439   4.2136312  81.8173523  85.0678635   4.9794331  82.8921509
  19.7856407  41.0906563  60.4742584  19.4271431  41.0952492  59.5867386
  20.6748142  41.4309235  60.3751678  12.6997175   3.3938346  53.2049942
  13.5323458   3.6702359  53.5878296  12.9142466   3.1737292  52.2984810
  15.0513248  23.5862656  11.5053015  14.4952583  24.1866798  11.0087891
  15.8666143  23.5460892  11.0053806  30.3300018   4.3190780  22.4846306
  29.8938274   4.8353939  23.1624222  29.8353634   3.5002451  22.4518261
  60.8817940  69.2836151  82.5139771  60.1627731  68.6694717  82.6625519
  60.5071259  69.9586792  81.9481735  22.7742329  32.6504860   2.9377832
  22.6386356  33.4730453   2.4674215  22.9986153  32.9183388   3.8289278
   1.9838974  49.9062576  47.0314980   1.3336345  49.4401550  47.5569839
   2.6795683  50.1261482  47.6511116  56.0273552   9.4465103   9.3891172
  55.8141022   9.5682249  10.3142872  56.9508667   9.6891861   9.3222580
   4.5611491  53.8441200  73.8047485   5.4964638  53.8484116  74.0082245
   4.5159974  53.5609207  72.8915176  60.2344017  23.0929680   7.8491549
  59.7930679  22.3220062   7.4926796  60.3590279  22.8902988   8.7763147
  47.7585793   3.8311827  87.2486725  47.4249496   2.9449785  87.1088028
  48.5366898   3.8845286  86.6937637  23.0715179  30.7305737  77.4734955
  23.6054688  29.9974060  77.7794342  22.2637711  30.3240395  77.1596375
  67.8875961  10.8875284  69.6265182  68.2012787  11.2530746  68.7993469
  66.9902191  11.2109318  69.7062988  21.4777145  29.1032543  56.0199928
  20.5953865  29.3744659  55.7666702  22.0150299  29.8847084  55.8901711
  86.1102905  35.5373268  11.0890484  86.9111099  35.0655708  11.3178825
  85.5194626  35.3773308  11.8249578  19.4549236  28.4460297   2.4593492
  20.1731701  28.9740524   2.8079846  18.7212391  29.0566883   2.3883965
   2.9727471  44.8215790   2.2102208   3.4384370  44.0710487   1.8413426
   2.0835156  44.5010948   2.3611829  52.7385941  60.4320030  45.5277786
  51.8155022  60.4928131  45.7736092  52.7332611  60.4497795  44.5707588
  40.9446907  52.3667717  63.7790527  41.0067558  52.6915131  62.8807640
  40.2957153  52.9345055  64.1946793  71.3089447  17.4725628  39.7560921
  70.3834686  17.3312531  39.5566788  71.4739380  18.3792820  39.4975014
  20.4532566   3.5086238  27.0800476  20.0028954   4.2524776  27.4801579
  19.8069954   2.8026273  27.0921593  84.4477539  25.6095734  19.0758858
  83.6949615  25.6755104  19.6634159  84.9387970  24.8543797  19.3995972
  53.6829872  41.4483032  64.6456833  53.8305321  40.5315247  64.8780136
  54.2983551  41.6165657  63.9320679  18.9788265  25.1608067  85.4405746
  18.9801559  24.2055016  85.5007477  19.7766075  25.3713436  84.9553452
  16.2089577  35.8103142  76.2960358  17.0818348  36.0851402  76.0153427
  15.8686543  36.5583000  76.7868958  73.5314331   2.6301832  45.0385780
  73.5591049   3.2539763  45.7640762  74.1025162   1.9140550  45.3165283
  72.9145279  45.2053146  77.1097565  73.6675415  45.6855087  77.4541702
  72.4849091  45.8247108  76.5198288  31.6531677  30.1924210  75.6165695
  32.0692329  30.9116058  76.0918503  31.1250515  30.6233082  74.9445114
  72.5375290  23.7916451  77.1327744  73.0041580  23.5136776  76.3446045
  71.6157761  23.8003883  76.8748474  20.0661068  69.0959625  15.4131365
  19.9317474  68.1889572  15.6879444  19.5698452  69.1754150  14.5984936
   9.6329393  20.5918694  20.0860195  10.1264410  20.1093655  20.7492523
  10.0061350  21.4731407  20.1037865  70.8034744  56.6498108  70.0885315
  71.4541397  56.5704269  70.7860641  71.1758804  56.1581688  69.3565216
  81.7289734  13.5538883  28.1806278  81.2687302  12.9434690  28.7566471
  82.1045837  14.2052422  28.7729855  61.4864388  18.0060558  83.4223709
  61.5418854  18.9228268  83.1527634  60.5743866  17.8893852  83.6884155
  12.6371994  63.8747673  44.9262390  11.9833822  63.3329926  45.3680916
  13.4625578  63.4076538  45.0559235   1.3177239  64.7198257  51.4743538
   2.1750262  64.3486328  51.2658386   1.3499547  64.8823090  52.4171143
  82.4872437   5.7601476  15.1230984  83.0485916   5.8087659  14.3493042
  83.0744629   5.4878340  15.8282623   2.2412121  21.6050625   7.3831882
   2.4890678  22.4075394   7.8423505   3.0694129  21.1489220   7.2340198
   0.6269458  37.4693260  36.8151321   0.9482127  38.3684502  36.8829155
   0.0536826  37.3619576  37.5741272   8.6531153   3.4215546  88.1090393
   8.4911509   4.3632364  88.0521698   9.4460735   3.3465421  88.6399078
  34.5982285   4.7264576  74.0823593  34.2726707   5.4224844  74.6531372
  35.3880615   4.4080849  74.5194321  30.5259094  68.8381424  16.6053009
  30.2458820  69.3469849  17.3661556  29.8245773  68.9588394  15.9651451
  17.0660706  44.6471329   6.5458598  16.9013233  44.2483940   5.6914024
  17.7731018  45.2722893   6.3861146  65.8952637  12.4921217  53.5709648
  66.2338562  11.6218548  53.3606720  65.3040619  12.3470430  54.3096504
   8.7236032   8.8489704  74.6233749   9.1787710   8.7855654  75.4630432
   8.9916258   8.0639334  74.1457672  10.0220671  46.0282516  60.9345284
  10.2270956  45.0982285  61.0306931  10.4993162  46.2988701  60.1501617
   7.8330951   5.5043492  83.2721329   8.4547987   5.9987440  83.8062592
   7.2569761   6.1703792  82.8970032  72.0879974  62.7531433  77.3950043
  71.2446594  62.9835930  77.7847443  72.0929565  61.7960243  77.3834381
  65.1555557  34.9940987  74.2400970  65.1968689  35.0467453  75.1949539
  65.9971313  34.6164818  73.9844055  12.6189184  71.0079041  26.6660328
  12.2533569  70.5816956  27.4412422  12.6551943  71.9359512  26.8976326
  85.9414978  24.1638870  61.3193588  86.3805618  23.4231567  60.9013023
  85.0783920  24.1947155  60.9066505  54.2279968  37.3040237  68.5828705
  53.3864708  37.2873459  68.1270294  54.0822563  36.7850380  69.3738480
  41.2143173  54.0299568   6.4703665  41.8918877  53.6386185   5.9190211
  41.6588249  54.2221985   7.2960100  63.0772324   8.3045111  76.3778229
  62.5087814   8.5798464  75.6585922  63.6471100   9.0574713  76.5344162
  56.2100716  44.6253662  66.6292496  56.8472366  44.1378250  66.1071854
  55.5017281  44.0011444  66.7868271   2.8906784   0.4584031  45.7114105
   2.2368801  -0.0423742  45.2235565   3.4230947  -0.2056050  46.1494255
  18.5491295  49.2554970  29.4150391  17.8047752  49.5140152  28.8715916
  18.3122845  48.3906174  29.7498817  75.6574707   2.3361280  75.5422897
  75.1938858   2.1417131  76.3568573  75.5515366   3.2803009  75.4258957
  51.1952095  55.7866440  19.7995033  51.5629578  55.8717880  20.6791325
  51.1528816  54.8424683  19.6479549  38.3229713  71.2831650  21.4420700
  37.6952324  71.9886169  21.2854977  37.9735870  70.8156738  22.2007637
  47.3190231  36.0953484  73.2343674  48.0825462  35.5580063  73.0233536
  47.6608086  36.9880524  73.2843018  39.5282326  31.3492489  70.1210861
  40.3961372  31.7430077  70.2101440  39.4479790  30.7721367  70.8805084
  55.9522514  44.8589516  49.8157005  55.6389503  45.4394608  49.1220970
  56.7401466  44.4548683  49.4521523  57.8854790  32.9910812  78.7306671
  58.6880760  32.5596046  79.0237579  57.3057861  32.2725029  78.4780121
  21.1494083  39.0372124  36.9979553  21.2106285  38.0918655  37.1350899
  20.4138203  39.3115311  37.5455780  29.7313423   8.1513491  87.4462128
  30.3263092   8.1991329  86.6979065  30.1400127   8.7035418  88.1127777
  74.3773651  57.2732735  70.9062271  73.8537292  57.3392105  71.7047806
  74.9975815  56.5662422  71.0842056  80.8663254  44.2365150  31.3391075
  80.3123932  43.8395386  32.0112686  81.7410049  43.8890953  31.5136700
  23.3081703  68.4678116  72.6357651  22.5163441  68.9987259  72.7216721
  22.9859371  67.5733109  72.5250473  40.6572456   1.9227525  10.2411242
  40.9874153   1.8907415   9.3432417  41.3163071   2.4244077  10.7209272
  51.1434364  52.0733261  79.1193161  50.4558029  51.6319122  78.6207809
  51.6743927  51.3616905  79.4769363  43.9186096  28.2826767  82.4298325
  44.4512520  27.5951824  82.8296738  43.4247093  28.6575966  83.1590271
  74.3760910  15.6831160  69.3393784  74.1430283  14.7604237  69.4421082
  75.0281982  15.8428307  70.0216293  51.2235260  23.7165871  64.0043259
  51.7283478  23.9642086  63.2296791  50.5739517  23.0938969  63.6779137
  62.6809349  65.5893250  11.8399744  62.9498901  65.0857697  11.0716467
  61.7247314  65.5464554  11.8317404  24.1497192   3.1243649  68.5613861
  23.9620171   4.0290904  68.3114395  23.7478504   2.5968845  67.8710938
  68.8133240  24.6852436  17.1832466  69.5590820  24.5205307  17.7602634
  68.0695038  24.2841339  17.6327705  66.2835007  47.1104126  87.9913940
  65.5068665  47.6030235  87.7260513  66.6422958  47.6068764  88.7269363
   0.5365817  71.6661987  22.4538746   1.0705626  71.3545609  23.1846142
   0.6172565  70.9819641  21.7893829  77.2100677  54.4034500  43.6591263
  77.6821365  53.6456642  43.3139534  77.7492142  55.1546249  43.4115486
  87.0289230  65.8397827  57.0690994  86.0963440  65.7631989  56.8674469
  87.1724472  65.2146912  57.7796555  38.9594803  54.5166779  54.4503288
  38.6008224  54.3073387  55.3127518  38.8330956  55.4613075  54.3612251
  62.7511711  55.9617348   5.9787107  63.1224594  55.7096481   5.1332355
  63.0056419  55.2552223   6.5722756  14.7794304  68.8950806  42.6167488
  14.3258629  68.7697601  41.7831993  15.3517008  68.1318054  42.6951485
  77.0458450  28.1751518   7.8949399  77.1204300  28.6387901   8.7290316
  76.9366837  27.2564507   8.1405067  26.4186935  40.0473404  52.7749138
  26.0429707  40.9276543  52.7853928  25.6830482  39.4755440  52.5555763
  56.0052261  53.6335030  23.9566078  55.3383713  54.2902946  24.1570225
  56.4752426  53.5100174  24.7812691   3.1330447  56.7667122  20.5274181
   2.9510715  56.5857277  21.4495697   2.3303802  57.1726875  20.2000885
  14.6137457  63.4690933   2.2646723  14.0618896  64.0695724   1.7635632
  14.7512093  63.9122887   3.1018777   3.7871876   0.7784551  71.3155670
   3.3632529   1.6225876  71.1608047   3.0665834   0.1487436  71.3361816
  50.5280952  15.4040155  79.1700439  50.8510284  16.2152996  79.5621719
  49.6007652  15.3766432  79.4057083  86.6578064  52.5772858  50.8278694
  87.4002609  52.9349327  50.3409576  86.0436630  52.2908287  50.1518478
  78.9612732  60.9381828  10.2781076  79.8946686  61.1020012  10.1433249
  78.8806610  59.9845238  10.2616777  32.2835312  34.9351196  88.7018738
  33.0031052  34.3051987  88.6612930  31.4952374  34.3949966  88.7574692
  30.9141350   2.6234376  56.9150124  31.1648293   1.7102509  57.0545616
  29.9732437   2.5898032  56.7423172   4.4770284  71.4036789  54.9118042
   4.1770067  71.5695801  54.0181084   5.4279513  71.3260269  54.8346901
  40.4453125  35.2335014   5.2904062  40.8009033  34.5513191   5.8599796
  41.1576385  35.8666916   5.2015529   9.2208471  36.0551071  13.2814064
  10.1311712  36.2901039  13.1016312   9.2585506  35.5590668  14.0991812
  45.5181656  21.2921467  60.6304245  44.5665588  21.2011986  60.6794624
  45.6735077  22.2329082  60.7145042  15.5786343   4.2841768  86.0694504
  15.9687767   4.3195024  86.9428177  15.1252155   5.1219339  85.9756088
  74.4163818  67.9581375  56.4154015  75.1063843  68.5233994  56.0681152
  74.7322464  67.6987686  57.2809601   9.6211863   3.4696121   2.2859142
  10.1593485   4.2592869   2.3409250   9.9008894   3.0451736   1.4748348
  82.9636307   2.4116440  20.9665604  83.6356277   2.0321870  21.5328331
  82.4249268   1.6661644  20.7014389   8.3786087  57.8360367  81.6091614
   7.8366523  57.4305763  82.2860031   7.7862778  57.9534035  80.8664627
  80.8649139  50.5936279  18.3982944  80.0853195  50.1892548  18.7790146
  81.1586227  49.9694977  17.7346458  72.5896301  62.5985298  13.1486483
  72.8557663  62.3069954  12.2766333  73.0402527  62.0035820  13.7479897
  11.6964931  28.2251072  55.7132950  11.4224091  27.6112671  56.3946991
  11.8389816  27.6777515  54.9410706  24.4315052  21.3722191  42.9982185
  24.0397873  21.5996933  42.1549873  25.2931480  21.0201969  42.7748680
  49.8657608  30.0241852  75.3845825  49.4391098  30.2593842  76.2085266
  50.7990646  30.1546707  75.5523682  73.9228058  55.5503197  87.1359406
  74.1295700  54.7012787  87.5265961  73.5085983  55.3349800  86.3003006
  41.1329002  66.9227982   8.4419250  41.5756950  67.4788284   7.8008347
  41.2389526  66.0342484   8.1021299   8.7928400   0.1622214  72.2081070
   8.4699631   0.6168289  72.9861298   8.2120667  -0.5927595  72.1135635
  26.3441486   1.0247200  66.3841934  26.3239288   0.1290637  66.7212753
  25.4237862   1.2831838  66.3356171  21.2394733  62.2281914   7.0880532
  21.2120075  61.6512833   7.8513708  20.6568394  61.8124313   6.4525123
  20.1118984  53.4821129  16.3700123  19.5065899  52.8517303  15.9795580
  20.7057590  52.9484978  16.8980427   2.3272393  60.8041611  67.3926392
   1.4150678  60.9048080  67.1205292   2.4151409  61.3788452  68.1530685
   1.1573567   6.2599082  62.9722214   0.9405239   6.4212904  63.8904648
   1.5547131   5.3890858  62.9694252  42.1557999  64.9889603  88.5223389
  41.7627449  64.2186508  88.1120071  41.8333511  64.9711304  89.4234161
  70.0895996   0.2432605  87.5338974  69.5132599   0.9799945  87.3307190
  70.6337891   0.5569786  88.2561646   7.6392121  44.4008675  81.7324905
   8.5415926  44.7180862  81.7687454   7.1044164  45.1921577  81.7964325
   3.4227176   6.8403072   9.1199827   3.0486791   6.6802850   9.9864235
   3.4921012   7.7931852   9.0613213  38.2171631   9.1447220  81.0307541
  38.0750961   9.9827127  80.5904999  37.8133430   8.4984045  80.4515839
  24.6949139  62.1235580  18.0592461  23.7941589  61.8350487  17.9121532
  25.1879539  61.7517586  17.3278713  49.4490242  25.0730190  70.1766739
  50.1978760  25.3863926  69.6694717  49.6151543  25.3844795  71.0664062
  60.3980064  57.8707352  84.5800858  60.7343445  58.3145447  85.3586349
  61.1157494  57.9180832  83.9485550  30.4400501   0.4475314  13.8020592
  30.8270798   1.0251808  13.1442127  30.6446075  -0.4357952  13.4952660
  86.2872849  43.8447380  52.5866966  86.1055069  44.7628326  52.7874336
  86.6960220  43.8651466  51.7213936  70.4039154  56.5260887  37.9447670
  70.3608170  57.2901649  38.5197067  70.1834946  55.7870102  38.5116997
  72.5173416  10.3655081  67.2904510  72.0420151   9.5464725  67.4300156
  73.2952957  10.2880459  67.8427429  69.4286194  11.3979778  77.6919327
  70.1896667  11.3341064  78.2689667  69.1839676  10.4893112  77.5167236
  80.5917587   1.8396766  34.5671387  80.3746262   2.2558827  35.4013176
  80.4073944   2.5104489  33.9096413  85.1137314  29.2030907  47.7902374
  85.3091354  28.6997375  48.5806046  84.3488083  28.7688084  47.4127083
  73.1532593  60.5694199  56.3281479  72.6890030  60.0969543  57.0191422
  73.0163651  60.0400848  55.5424614  75.6627960  71.4631958  54.2770157
  76.0265274  70.5782318  54.3046761  75.5913849  71.7216263  55.1959000
  65.5330353  13.1410341  19.7894211  66.1243591  12.4450178  19.5028305
  66.1136932  13.8515549  20.0618687  48.2611313   7.6038966  55.4213715
  48.4153442   8.5414076  55.3050842  47.3081818   7.5202632  55.4548836
  27.6031895  65.4028015   2.8924494  27.7912674  64.7582474   3.5746579
  27.8211155  66.2449112   3.2919405  31.1818619  48.0617218  10.9496937
  31.5678463  48.9054642  11.1849613  31.4140091  47.4816093  11.6748199
  84.1840897  18.8423996  21.6250286  83.2998962  18.9309998  21.2692547
  84.0892715  18.2266712  22.3517475  70.1467667  34.4081841  16.5390129
  70.7487259  34.5874710  17.2613182  70.6725540  33.9215546  15.9042130
  11.9718580  54.3159332   0.0421962  12.8236694  53.8804169   0.0109728
  11.3647738  53.6343079   0.3304037  34.5020103  50.9414902  54.3724861
  34.4200630  51.5028610  55.1434479  35.2455292  50.3716164  54.5690994
  74.4149323  69.7361221  78.2453918  74.2511444  68.7945175  78.1926117
  73.6432571  70.1362915  77.8446198  62.8499947  31.8621960  38.8367386
  63.5204048  32.1736565  39.4448318  62.9419785  32.4266777  38.0691910
  37.3274651  35.6829796  62.1748009  37.9195061  35.8531761  61.4421654
  36.8817101  34.8695183  61.9385414  86.0754166  61.0598869  62.7305832
  85.4043732  60.4343681  63.0038033  85.7314987  61.9121819  62.9980659
  67.8652802  15.1436357  73.5287704  68.1915741  14.3772430  73.0571671
  66.9535522  14.9315443  73.7287521  12.6789494  48.1293449  23.4102268
  12.2952290  47.5138626  24.0348644  13.1736422  48.7437363  23.9524765
  62.0683060  43.9383888  46.8996887  61.8347549  43.6323967  47.7760773
  61.5863075  43.3606834  46.3079376  11.5540142  51.3548851  11.9279003
  10.7004242  50.9554138  12.0953522  11.3511257  52.2537766  11.6689377
  83.7336578  67.8588181  30.9748001  83.4830933  67.6968689  31.8843193
  83.7464523  68.8126907  30.8961010  52.3348541  63.3678627  53.1699257
  51.8158760  63.1032600  52.4104004  52.3786697  62.5825310  53.7154236
  56.1773491  56.1804657  75.1579895  55.5947723  56.6906662  75.7206039
  56.0176620  56.5198784  74.2773514  74.6247253  41.6538696  26.5846996
  75.5235977  41.3494034  26.4599590  74.5036469  42.3246994  25.9127178
  23.2016163  47.2574463  49.2652893  23.3552227  46.3928909  49.6463203
  22.6184292  47.0924835  48.5244064  66.9825363   5.2039394   9.3287811
  66.7860413   6.0899386   9.0244360  66.1398010   4.7505903   9.3064070
  65.3344116  19.7616825  43.2941093  65.6901474  18.9191055  43.0117149
  65.7958298  19.9550877  44.1101494   5.4336691  25.9560623  24.7297573
   5.9652486  26.7434502  24.6128178   6.0659795  25.2374516  24.7259846
  38.2596092  66.0864944  17.7166901  38.5203133  65.6959000  16.8826008
  38.9888420  65.8984680  18.3075333  41.0186081  68.3103256  67.0763016
  41.0598831  69.2540359  66.9215927  41.3496819  67.9202805  66.2672958
  31.8410950  58.2294083  20.7432594  32.0307045  57.9772301  21.6469669
  31.9188576  59.1834335  20.7394714  74.1395798  12.5358381  63.0729141
  74.9240341  12.0265789  62.8691483  74.3766785  13.4376898  62.8568573
  55.4810638  45.4029350  30.0891323  55.5149422  45.3094368  29.1371136
  55.3179703  46.3351669  30.2325878  45.4291611  44.2817574  78.8100891
  44.5794449  44.5084000  79.1880417  45.9726982  45.0549088  78.9618607
  11.0228710  30.0735741  68.4162369  11.6925726  30.7573071  68.4006958
  10.1971464  30.5491142  68.5071869  75.6351700  29.2301846  65.6662445
  75.7756882  29.7553883  66.4540558  74.7128906  29.3661423  65.4490967
  66.5066223  19.8750458  16.1217442  66.3012466  19.5306625  15.2525759
  67.2815399  19.3849602  16.3965950  66.7396469  43.3864136  65.7509613
  66.2320633  44.1412048  65.4528351  67.3978577  43.7574272  66.3386230
  46.3409233  46.1771736  66.1337509  46.8592606  46.9187279  65.8212509
  46.8846931  45.4109154  65.9510193  16.6710358  60.2377090  86.1493607
  16.2949505  60.5601807  86.9683914  16.8468494  59.3114662  86.3148575
   3.0681159  50.1978607  34.8355331   3.1016326  49.8776741  33.9340935
   3.5629492  51.0170326  34.8172913  37.1483994  14.8521109  83.7983551
  37.6879692  14.7616215  84.5837936  37.7687378  15.0830421  83.1069183
  83.6518097   5.3019605  56.6274414  84.1512451   4.5652485  56.9796486
  83.9524002   5.3842483  55.7223969  50.7442970  63.3888359  12.5708246
  50.5818481  62.8815384  13.3661175  51.0230064  62.7394066  11.9252281
  12.9699249   9.0814524  84.3487549  13.3277845   8.1938028  84.3644562
  12.6351404   9.1890116  83.4584808  33.0871735  52.3802109  82.7939911
  32.7908897  52.3282967  83.7026978  33.9778709  52.7259560  82.8518600
   1.5679122  57.8159370  36.9588165   1.5565232  57.3351326  37.7864227
   0.6531520  58.0535965  36.8072853  83.1640244  59.2446060  23.7318249
  83.9086304  59.8339119  23.6113262  83.3949203  58.4616280  23.2319584
  41.9618454  13.4887981  62.7162933  41.4026985  13.3863916  61.9461632
  41.3495750  13.5807667  63.4462929  41.1684113  35.5777969  87.6087799
  41.3720627  34.6717300  87.3768387  41.5436859  35.6916542  88.4819565
  40.5228119  34.7514267   1.7244338  40.2235413  34.6990013   2.6321342
  41.3820152  34.3295746   1.7307788  41.9698639  59.4357681  19.2989883
  42.3570023  58.9614983  20.0348034  42.0701675  60.3592720  19.5298843
  49.9427719   3.9830434  48.2181854  49.8225174   4.8572297  47.8472824
  49.1528702   3.8324256  48.7374153  31.3565979  47.2080040  33.3829575
  30.5791378  47.5518532  32.9430084  32.0534477  47.2826843  32.7309952
  73.3312912   0.4954329  51.0214157  74.0772781   0.5454150  51.6191139
  73.7102585   0.6334037  50.1533241  66.2629776  38.3606720   0.7445734
  66.2430801  39.0726662   1.3840270  66.4897919  37.5847130   1.2570901
  76.5990601  61.3536644  28.0777912  75.6631088  61.4930000  28.2220287
  76.6657944  60.4384727  27.8053951  28.3657551  44.2974892  55.3755379
  27.5890732  44.0002098  54.9015961  28.6792908  43.5181046  55.8343277
   2.6878710  18.0091038   4.0511117   2.5767877  17.4121704   3.3111367
   1.8337263  18.4297218   4.1498451  65.5065460  58.6360779   5.0195551
  66.1538239  58.0306778   5.3811636  64.7654800  58.0795059   4.7802410
   9.5962648   2.9078276  44.7189522   9.9272041   3.8059752  44.7254524
  10.3827171   2.3626270  44.7409134  73.2768784  32.6462326  16.5336437
  73.6400223  33.4903603  16.2656784  73.3905792  32.6273727  17.4838791
  72.0283966  15.0550976  11.0920668  72.6425629  14.5210028  11.5958204
  72.4156113  15.1053324  10.2181273  75.2712326  20.0909958  15.7117138
  76.0860672  20.5445671  15.4959793  75.1794357  20.2006092  16.6581764
  78.8126297  28.6232662  62.5711250  79.4894028  28.9279175  61.9666443
  79.0603638  28.9977417  63.4164848  69.0538635  18.7713165  82.6780167
  69.2894821  19.6816998  82.8566742  68.8716125  18.3974705  83.5401382
  72.2788925  40.9667587  47.6557388  72.3450241  41.2394142  48.5709000
  72.2334518  40.0113678  47.6931534  72.9456558  70.4777756  65.6938171
  72.9228439  71.0246277  66.4790955  72.0654221  70.5513840  65.3250351
  66.9997253  41.0196800  12.0415163  66.8556366  40.6422844  11.1737356
  67.8148499  40.6195831  12.3443632  74.2421188  22.3024178  62.9361267
  73.9605103  23.2046566  63.0874290  74.8073654  22.0997353  63.6815414
  19.9798393   4.5969553  29.7410831  20.4800072   3.9741218  30.2684765
  19.2121220   4.1037364  29.4519882  51.5936470  62.1290131  64.6562881
  51.6183815  63.0129356  64.2898254  52.0516319  62.2039146  65.4934692
   2.6631312  53.5124550  18.7961769   1.9464122  53.9077835  19.2924252
   3.0323250  52.8577995  19.3889275   4.8068061  62.0170670  49.2416191
   4.4924536  61.9854431  48.3380623   4.6479173  62.9192963  49.5190506
  58.2003250  58.2160759  41.5383568  57.4156609  58.0314407  42.0545387
  58.9131622  57.8122940  42.0333862  55.4579659  69.2547073   3.7423916
  55.7000008  69.0601883   4.6478271  54.8364487  68.5657349   3.5073109
  57.3617897  61.2837067  78.9196625  57.6710510  60.3838081  78.8158798
  57.5295410  61.4900742  79.8391724  12.7250357  52.1439934  87.1927261
  13.2173023  51.6045380  86.5739441  12.1692886  51.5224838  87.6629410
  41.7394104  25.6695747  77.2614670  41.4689560  25.1227779  76.5238342
  41.9050941  25.0492420  77.9713745  64.6918488  25.4196510  37.3539581
  64.1870575  25.3410263  36.5444908  65.1075592  24.5641098  37.4610367
  38.0827827   1.2075895  62.5209999  38.6847801   0.5574315  62.8831100
  38.6042747   2.0077488  62.4575691  26.3783360  64.5392685  56.6981392
  27.2031631  64.2695923  57.1020851  26.2361279  65.4308167  57.0161667
  37.3789864  39.1914215  13.9482965  37.8168831  39.9173279  14.3927526
  38.0864525  38.5881424  13.7207489  25.4847584  45.0068741  61.9748840
  25.9712620  44.5700455  61.2757988  25.4532719  45.9252968  61.7070351
  70.1620331   3.3190975  23.8368568  70.8372192   3.9967661  23.8033180
  70.4258881   2.7538371  24.5628700   8.4578562  49.3584251  70.2017288
   7.7371593  49.2877998  70.8276978   8.4937286  48.4999237  69.7799225
  73.6617508  37.3378296  78.0343399  73.9069366  37.9146118  78.7578278
  73.6423950  36.4627151  78.4216766  73.1828003   4.0403976  67.6786499
  73.3150940   3.8052869  66.7602539  73.3015976   4.9899025  67.7023163
  18.9284210  59.6051102  75.8094711  18.0326214  59.6037827  76.1467743
  19.1543064  60.5321541  75.7333374  61.0532951  12.8176317  23.3291016
  60.3788757  12.1445103  23.4201832  61.5683098  12.5397215  22.5716343
  29.7588081  22.5357456   4.5352459  28.8308830  22.3271809   4.4271350
  29.7838955  23.1378765   5.2789130   4.7358871   0.1414140  12.2273092
   3.9580777   0.6129486  11.9291506   5.0649128  -0.2979119  11.4431114
  14.2627106  41.4876213  24.1411610  14.0586529  42.4138908  24.2700653
  14.5818548  41.4357986  23.2402210  21.3861408  67.5337753  34.4640083
  21.8760910  66.7295532  34.2924957  20.6252575  67.4785919  33.8858681
  85.4801254  15.6978865  24.3346272  84.7089157  15.2818842  23.9493790
  85.2295990  15.8734827  25.2416191  58.6064644  50.2383385  29.3705406
  57.7846336  50.3694878  29.8434315  58.4366455  50.5847588  28.4945335
  57.9226379  57.5612297  17.7649994  58.6462784  57.1461296  17.2956753
  57.8595276  58.4362907  17.3822269  70.3195496  26.8034573  47.4354858
  70.6284103  26.2078171  46.7528076  70.4742050  27.6779423  47.0782928
  37.7952843  59.9875412  35.5678787  36.9032669  60.3214149  35.4726601
  38.2009239  60.5682335  36.2116814  68.7093353  59.3542023  59.6308746
  68.0179214  60.0160980  59.6226234  68.2421951  58.5194321  59.5966873
  37.9519386  10.3870916   3.0907860  37.1096306  10.7435751   2.8085198
  37.9739113  10.5434370   4.0348759  15.4117718  24.9290237   2.7545931
  14.5824070  25.4062061   2.7807536  15.1650381  24.0128231   2.8808005
  10.5012150  64.9653320  16.9123001   9.6635485  64.5343552  17.0820274
  11.0172396  64.8055115  17.7024956  44.9142151   3.2539182  17.0609856
  45.2364159   2.6809006  17.7567348  43.9894066   3.3867249  17.2691288
   7.0236769  57.0953598  12.2180166   7.8730717  56.7183075  12.4473486
   6.7710414  57.6032295  12.9890394  75.8948593  36.4256248  29.8374081
  76.6182251  36.7925491  30.3456726  75.8711090  35.5018501  30.0870228
  15.1319132  26.0030098   5.7951679  14.3995657  25.4488182   5.5254087
  15.9063616  25.5652771   5.4418235  78.4443970  11.2915812  17.2740517
  79.2141037  11.2412863  16.7072582  78.5749283  10.5951309  17.9175987
  68.0214157  66.4471359  57.6643066  68.0172195  67.2927780  57.2158661
  67.4114609  66.5596161  58.3933716  79.0867386  34.7241554  70.2510071
  79.2207336  35.2743034  69.4792404  79.8830872  34.8404236  70.7692184
  79.9836807  30.6572514  82.6053696  79.7080078  29.8930378  82.0991974
  80.8436279  30.8822422  82.2502747  66.3867416  39.3534927  83.4129028
  67.1134872  39.7517281  83.8919449  66.7789917  38.6072388  82.9596100
   6.5664830  47.0069466  51.6283340   6.1502533  47.1576729  52.4770164
   7.1744823  46.2843742  51.7847137   0.3461241  31.0455437  70.2759552
   0.2348777  30.2030678  70.7165070  -0.5381670  31.2932415  70.0059433
  65.2440109  42.5390625   6.7224722  65.4865646  41.9485779   6.0092225
  64.5048599  42.1068573   7.1503596  67.8885422  43.8069382  15.5768652
  66.9834595  44.1141548  15.6285419  67.8177795  42.9046173  15.2653503
  71.5326080  41.7990799  11.6416845  72.2170944  42.4235725  11.8819418
  70.9185486  42.3084679  11.1128340  21.8316097  48.0622597  62.2173576
  21.1774902  47.3647690  62.2605782  22.2917786  47.9082718  61.3922729
  68.0228043  67.1423950  71.8686905  67.9959946  68.0780945  72.0686264
  68.5226593  67.0857010  71.0543442  21.8685017  59.8657265  37.2727280
  22.7448730  60.2466240  37.2168427  21.3452606  60.5328865  37.7169685
  10.4000120   4.4915514  26.7090855   9.6709690   4.1342602  27.2161064
   9.9826880   4.9482403  25.9786682  28.4798145  68.8223114  27.2800694
  28.8900700  68.9414368  28.1366501  27.6360893  68.4136505  27.4733486
  35.8937531   3.9767938  64.7074509  35.8784065   4.5397720  63.9334679
  36.8048058   3.6918516  64.7783356  58.2275009  57.5160370  76.3615265
  57.9957962  58.4308281  76.2012100  57.7586555  57.0280304  75.6845779
  15.4237089   2.4379592  74.5619202  15.0126047   2.1485152  73.7473984
  14.8549995   2.0962253  75.2518616   9.8873568  23.1777744  62.1328011
  10.8259163  23.0219707  62.0276184   9.8006525  23.5285587  63.0191765
  57.7701225  70.3609467  41.0669174  57.3661957  70.9741898  41.6809273
  57.0316658  69.9052734  40.6628380  40.2563744  39.9593239  55.1578102
  40.1059837  39.1046371  55.5616989  39.4105263  40.4036713  55.2155190
  57.1171417  71.0695114  50.4134865  57.2004242  70.8307114  51.3366737
  56.7053833  70.3078842  50.0052948  84.7509384  24.8425198  68.4546509
  83.9804611  25.4028606  68.3618317  85.4248428  25.4195347  68.8140106
  24.6449814   7.5455480  43.6293640  25.2923260   7.7277088  44.3105354
  23.8041229   7.7553039  44.0358047  82.9495697  22.2158947  10.5700064
  82.8796692  23.0788918  10.1618624  83.0539246  22.4001694  11.5034866
  29.1401691   8.5648050  73.6767960  28.3730373   8.1083460  73.3312759
  28.8084450   9.0552483  74.4288940  78.9639740  41.9488907  21.4035206
  79.8561630  42.0236282  21.0649452  78.4460144  42.5269852  20.8433743
   4.4196477   1.6375098  76.3548965   4.3012161   1.4652145  77.2889862
   5.1399374   1.0632337  76.0948563  81.0023041  44.6333046  68.8524094
  81.8722076  44.4230347  68.5128632  80.5212708  43.8070030  68.8069153
  53.0656891  40.5218544  29.1839294  52.7974625  41.0187340  29.9568443
  54.0127068  40.6513443  29.1327152  40.9194946  21.2302361  70.5333176
  41.2196541  21.1342583  69.6294785  39.9873581  21.4335670  70.4558182
  18.5677242  45.2107964  59.4934273  18.9188366  45.9897118  59.9249840
  19.0633583  45.1452980  58.6771622   6.6771131  37.7730255  87.6443710
   6.5214567  36.9436531  87.1925507   6.1742554  37.7018204  88.4557266
  36.3736687  41.4313927  71.1846085  35.8086205  41.1626472  70.4602280
  36.7965431  42.2320518  70.8741989  55.6404266  39.8438377  19.5518990
  54.9999962  40.4986610  19.2738953  55.4490013  39.0771751  19.0116978
  73.6751251  14.9550552  22.9988995  73.4630432  14.7661572  23.9129944
  72.8275909  14.9685221  22.5542316  63.6217842  63.5342865  81.6191483
  63.2222481  64.0923309  82.2863693  62.9292336  62.9206581  81.3740616
  61.5602264  19.8030453   6.5711603  60.6344147  20.0459518   6.5611939
  61.8168297  19.7994061   5.6490040  34.2382393  44.2019463   1.4413996
  34.2575645  43.5540314   2.1457188  33.5973969  44.8513680   1.7308875
  30.2291393  71.2555618  36.9057350  30.5661011  71.7051849  36.1307945
  30.3057175  70.3250046  36.6949615  25.9682369  26.2584972  67.5724564
  25.0175877  26.3451099  67.6431580  26.3009796  27.1439285  67.7191696
  62.4233055  12.3530712  65.5047150  61.9738312  11.6457176  65.0422745
  62.9375420  12.7929859  64.8277664  80.8943176  57.2554588  81.6964569
  81.3766403  58.0551491  81.4864731  79.9775925  57.4796867  81.5365295
  28.2432766   2.6940975  43.0094910  28.3965054   3.6186345  42.8145943
  28.1425762   2.6633706  43.9608841   6.5790815  16.5226860  59.7715225
   7.4917002  16.8079414  59.7269287   6.2098923  17.0147743  60.5048599
  33.9568787  20.6111107  74.3358154  33.2737846  20.5431747  73.6687393
  34.3265915  21.4852867  74.2118835   6.0068240  15.8555536  55.5553284
   6.8735285  15.9826584  55.1694527   5.8143620  16.6859913  55.9907150
  38.2710876  42.1158028  57.9756660  38.2462044  41.2707863  58.4246140
  38.0711098  41.9080734  57.0629272  29.9099350  45.0482063   3.8717000
  28.9907131  45.0745735   3.6060519  29.8915005  44.7028351   4.7642307
   1.1112274  68.8531952  79.7607880   1.9337907  69.1169357  79.3484039
   1.1908993  67.9055481  79.8695831  82.3617706  32.4091339  84.1529312
  82.3112259  32.8165703  83.2882462  82.8658142  33.0286598  84.6805267
  12.3315105  35.9994354  84.9639893  11.8544302  35.2270012  85.2672577
  11.7707558  36.3763847  84.2859879  84.2495270  49.8607483  40.3674202
  83.6014328  49.1762772  40.2009850  83.7327347  50.6596756  40.4716873
  35.5355949  20.2508221  14.6007757  35.4921761  20.6369324  15.4755697
  36.3958511  20.5070553  14.2683077  82.0556259  57.3231850  58.0996399
  81.3275604  57.4759064  58.7019882  82.0798874  58.1063271  57.5497932
  84.3094635  58.8003998   4.1751680  84.6784134  59.3561897   4.8616128
  83.3836288  58.7194786   4.4043231  29.8561707  70.8326416  77.4886627
  29.5134125  71.6408234  77.1070938  29.3516178  70.7149887  78.2935333
  50.0046959  27.8778954  35.5714188  49.3038559  27.4050560  36.0202866
  50.4083710  27.2233620  35.0014534  49.3532104  19.2052536  29.6030903
  49.9645500  18.5622902  29.9623833  49.1623802  19.7901478  30.3363819
  31.7794361  63.0453987  33.4127274  32.0463066  63.6842270  34.0737228
  31.5067654  63.5754013  32.6637459  52.7419891  21.9619675  53.4739456
  52.0067596  21.5304203  53.9091873  53.0100098  21.3474941  52.7907028
  18.2250557  67.7932434  65.9079590  18.7916832  67.7202988  65.1399460
  18.4309788  68.6521759  66.2768173  20.6987820  71.1819153  23.0557423
  20.6274853  72.1184006  23.2405224  19.7936516  70.8707886  23.0426159
  28.6824265   9.6745443  58.7931671  28.6790829   9.7928762  59.7430191
  29.3985634   9.0605221  58.6308174   0.8346817  32.5028534  74.7414246
   0.9198186  31.6353626  74.3458939   1.6067262  32.5878334  75.3008575
  72.5693359  27.7317104  57.2899170  72.1507568  28.5865993  57.3908348
  71.8425751  27.1236763  57.1544685  53.1860504  30.1145134  14.1807766
  53.6085854  29.2634125  14.0653572  53.9116859  30.7299862  14.2850771
  60.1684189  46.0829773  47.0067482  60.5852394  46.9411621  46.9292221
  60.6234016  45.6606636  47.7353592  70.0900421  10.7456484  36.8078499
  69.9703598   9.7970486  36.7623940  70.6362991  10.9547215  36.0501404
  31.6529636  69.6919937  13.4051323  32.5925865  69.6148605  13.2396240
  31.5162659  69.2273941  14.2307816  76.2899399  53.6816063   4.8255067
  75.5270844  53.7136917   4.2482190  76.4460144  54.5945587   5.0671396
  56.5286674  26.0601425  21.0773544  57.4794731  26.1662064  21.0465355
  56.3539200  25.7201042  21.9548893  30.6895103   2.6235905   4.3659186
  30.5831871   3.2645650   5.0688262  30.1661777   2.9711010   3.6437061
  19.1217461  47.7777023  58.2026749  18.3589134  47.9315453  57.6453133
  19.3479252  48.6431618  58.5433350  61.3139534  18.2342091  22.8451099
  60.7983704  17.4332371  22.7510185  62.1859589  17.9296284  23.0962391
  44.5402451  44.5222015  37.6069412  44.2630348  44.5448494  36.6910439
  45.2578430  43.8889694  37.6244049  46.2187347  14.6669455  86.5542679
  46.7052422  15.4262695  86.2333832  46.1747513  14.7937145  87.5020218
  12.1164761  51.1546631  63.7814026  12.7965536  50.5641861  63.4572639
  11.3403578  50.6012306  63.8684883  11.2898092  27.1225643  83.2223206
  11.7310953  26.4059315  82.7663193  10.3869410  26.8215199  83.3244629
  30.2031689  40.0882225  70.6106110  29.3387375  40.3422432  70.2873993
  30.1735306  39.1322060  70.6478424  49.4293594  68.3086548  68.7306747
  49.5278168  68.5031433  67.7986298  48.7998505  68.9573669  69.0455170
   5.6949763  54.7979469  26.0397568   6.0949306  55.5479126  26.4800053
   5.4429255  54.2091064  26.7510738  79.0176239  18.3154907  74.1635284
  78.9907913  18.6214809  73.2569504  79.2171402  17.3817978  74.0953674
   4.5606618  52.3920021  15.8677082   3.7892945  52.8288841  16.2287598
   4.9487081  51.9354668  16.6141853  34.9721298  60.8264809  35.7354431
  35.1264610  61.4316597  35.0100670  34.1469841  60.3941765  35.5152702
   2.6412256  29.2799664  68.6792526   1.7993534  29.5888634  69.0140152
   3.2843757  29.8779583  69.0600357   4.1558847  54.3838005  78.3936844
   4.5507283  54.6627922  79.2198181   4.3153644  55.1125031  77.7938614
  30.0937748  52.7210426   6.4182930  30.1471119  51.7718506   6.5297451
  30.9308243  53.0482864   6.7476773  23.2304783  68.4490814  29.0415401
  22.5239124  68.5159836  29.6838188  22.8020039  68.1328125  28.2461720
  62.0489693  22.2510376  56.9878502  61.7858734  21.5177975  56.4316368
  62.9897957  22.3410873  56.8363037  61.1555367   7.7596288  68.9886093
  60.7620316   7.7289286  69.8606415  60.4680405   7.4401369  68.4042282
  35.6746788  68.4865494  76.0537567  35.2443199  68.2463150  75.2332077
  35.8124352  67.6535797  76.5047760   3.7403779  31.6010857   6.5749474
   4.0729246  31.4353752   5.6927996   3.7582879  32.5541000   6.6625657
   2.5724974  24.9822445  82.0432892   2.8738728  25.4933643  81.2921829
   1.7848128  24.5377083  81.7299652  81.1394272  35.7961922  71.6144257
  81.5241013  35.6620293  72.4806061  80.6271133  36.6000137  71.7017746
  29.0694599  27.8119736  65.0962296  28.8926811  27.1137829  65.7267151
  28.2104740  28.0326271  64.7361069  47.0951614  67.0021896  46.1463661
  47.9928131  66.9806442  46.4780159  47.0416832  66.2543793  45.5512619
  66.8071060  14.0913420  46.0935402  67.5449600  14.2770395  46.6743279
  66.0791931  14.5904999  46.4639740   5.6828904  71.0780716  75.1918640
   5.9378533  70.6747971  74.3620453   4.8011479  70.7451706  75.3590088
  25.2913647   8.3441572  83.9848480  24.6413212   9.0216064  84.1712265
  24.7738400   7.5718441  83.7569656  36.3233414   8.6206436  17.7992153
  36.2694244   8.4294100  16.8628635  35.5512238   8.1976471  18.1749077
  54.2724876  15.4741488   2.1931159  54.2265472  14.6760798   1.6666114
  55.1728592  15.7806721   2.0853655  57.6015549  66.9083481  65.3651428
  56.7496109  66.8249817  64.9368057  58.2371025  66.7932739  64.6586914
  48.9207611  41.2071114  75.5643768  49.0417900  41.6448212  76.4069901
  48.1361465  40.6718292  75.6830597  71.4606476  29.0405598  46.4951096
  72.0110703  29.2922592  45.7535515  70.7398758  29.6703014  46.4830246
   5.5924163  21.1097622  22.7874413   5.0971146  21.8095684  23.2130928
   5.2779665  20.3068466  23.2029858  34.3576889  18.2807980  85.4990768
  34.9101524  19.0515385  85.6293564  33.8193474  18.4978771  84.7379608
  48.3640366  71.5618744  60.3774986  49.0234184  71.4160538  59.6991310
  48.2895851  70.7186508  60.8243408  59.4991035  25.7885437  12.4328575
  59.1999474  26.3856487  11.7471447  60.4375458  25.9613724  12.5082808
   7.4139171  43.3438797  36.6050072   8.3451729  43.1538391  36.4915161
   7.1192689  42.7137222  37.2625160  28.7913036  67.9926910  41.5022392
  28.7906380  67.1325836  41.9222870  28.6899986  67.8037338  40.5693588
   5.2291870  28.9960365  64.4401627   4.9891820  29.8999863  64.2364349
   5.2903032  28.5663643  63.5870018  79.6882858  61.1687698  60.0593262
  80.3063354  61.6694412  60.5918427  78.8527756  61.6219330  60.1724472
  11.6130838  46.2205772  70.3303375  11.0709085  45.7984505  69.6639404
  12.4203310  46.4520378  69.8709793  27.2552834  69.4574051  78.9253387
  27.1392593  70.2245712  79.4858932  26.3887882  69.3022232  78.5493927
  51.0897522  67.6626816  26.2240505  50.8803825  67.1447144  27.0012932
  51.9989738  67.4391785  26.0250607   4.4051185   8.2478075  78.7356110
   5.1255555   8.6670542  78.2650375   4.8181572   7.5300927  79.2157288
  56.7184258  59.0463142  23.8010349  57.3598709  58.3580666  23.6246872
  56.0805550  58.6354103  24.3845673   8.4295731  48.1908989   9.8631039
   7.7029190  48.2716560   9.2452974   9.1913719  48.0056114   9.3139572
  20.7505379   0.9206566  46.5382385  21.4957142   1.0517467  47.1245461
  20.9332428   0.0890164  46.1009445  74.9901047  47.2899208  42.6699181
  75.0292053  48.2264519  42.4759827  74.3533325  46.9423904  42.0454407
  59.4058266  18.5709476  35.9821892  59.5468254  18.3803368  36.9095612
  58.7669182  19.2836971  35.9786110  63.1026344  60.0094414  53.9633102
  63.4164543  60.9065895  54.0767746  62.2337761  60.1070938  53.5737190
  69.1252670  53.8402100  68.5438995  69.8236771  53.5186195  67.9737778
  69.3045349  53.4367676  69.3932114  78.3537216  43.9874268  53.7932014
  79.1984787  44.4199867  53.9177132  78.5740356  43.1357613  53.4159012
  36.5954895   2.1524403  51.3759193  36.4021416   1.7417314  50.5332069
  37.1217117   2.9203134  51.1529999  29.7733784   5.4389296  19.9883728
  30.2942429   5.2827411  20.7761135  29.4739857   4.5693803  19.7228909
   8.1849194   0.4661388  76.5137177   7.7393241  -0.3578276  76.3168488
   8.5113764   0.7701758  75.6668320   7.5670595  27.7329178  14.6438971
   6.7576933  28.2278957  14.5167990   8.2615156  28.3390198  14.3858204
  66.2180710  11.7333193   3.5493441  65.8543015  12.2637606   2.8404462
  66.8068085  11.1189671   3.1109445  26.1906948  62.6905365  37.5221786
  25.8060913  63.5451698  37.7168922  27.1342659  62.8506508  37.5057564
  59.2467194  61.8969879  12.8460903  59.4881210  61.2747726  13.5322428
  58.8882523  62.6479874  13.3190985  26.3118172  45.3286819  50.1289864
  25.7473869  44.5735397  50.2945595  26.5319977  45.6587105  51.0000954
  82.3317337  33.7022667  51.7130127  81.7798157  34.4579964  51.9142342
  82.7298965  33.9144592  50.8688164  83.5365829  17.8167648  24.4115334
  82.9411163  17.0994816  24.1943741  83.6976700  17.7185478  25.3499565
  66.7215042  66.8260651  79.1025238  66.8733292  65.9318466  78.7966614
  65.7717590  66.9365387  79.0576553  25.7817688  33.6166954  65.3164444
  25.0209293  33.8271179  64.7750778  26.0151329  34.4457092  65.7341843
  47.1121330  62.3294373  22.4582596  47.6493988  63.0921211  22.2440338
  47.5084724  61.6111298  21.9651279  82.7439423  52.7953110  79.8462906
  83.3079681  52.9113197  79.0816727  81.9135284  53.1996040  79.5949097
  74.3381729  66.1603088  13.3005619  73.6098557  66.7810898  13.2803755
  75.0218201  66.6092453  13.7978640  75.1882629  34.1678810  65.9079514
  75.8789520  33.9366646  65.2868881  75.5442810  33.9262390  66.7629929
  73.4079132  54.2146759  62.0132790  73.8924408  55.0284119  62.1521988
  72.9955215  54.3247566  61.1565132  57.6826439  20.8833408  78.0596161
  56.8236427  21.2531681  77.8557205  57.8742599  20.3025379  77.3232803
  38.9583931  35.0354385  60.0415459  39.6525879  35.1595306  59.3942986
  39.1505241  34.1861115  60.4389839  76.6717072   6.0482368  48.2568436
  76.9875031   5.3126402  47.7320557  77.4085007   6.6587873  48.2812653
  37.4516640  53.3397331  46.8253174  38.2070580  53.9269867  46.8526688
  37.3439827  53.0457268  47.7298622  44.7256126  66.3454895  23.9485550
  44.0501633  66.6063919  23.3225117  44.5621796  66.8905487  24.7182484
  83.5195618  16.6295452  60.6982727  82.8803177  17.2136402  61.1062317
  84.2174759  17.2112617  60.3970146   9.8639669   2.2711990  50.7304878
  10.7112713   1.9010905  50.9781303   9.7239590   1.9695451  49.8329163
  28.8728161   8.2575741  11.7182064  29.1161022   7.3321905  11.7448444
  29.4605522   8.6779099  12.3459921  48.4852676  67.9373169  80.1986847
  47.9474144  68.2135239  80.9407501  49.0866432  68.6677704  80.0537338
  37.5655975  64.9521866  74.5457458  36.7047920  65.3530197  74.4249954
  38.0763321  65.2503204  73.7930832  78.7202911  63.9553680  32.2427597
  78.0167160  63.5407486  31.7434502  79.1288681  64.5604477  31.6237431
  52.1406517  41.7634315  40.4043465  51.5654640  41.0068550  40.2903786
  51.5441856  42.4987183  40.5451012  46.7774277  28.3142738   0.8585358
  47.3271065  27.6391563   1.2564083  47.3941727  28.8882999   0.4042753
  57.1870117   8.5542154  43.0205460  57.8311920   8.9673147  42.4455566
  56.4366989   8.3788223  42.4526596  12.3526726  62.8897896  86.1854172
  12.4055033  61.9621239  86.4153748  11.4152565  63.0612602  86.0955429
  62.9662628  23.9932060  16.9045181  62.0793571  23.6635227  16.7598114
  63.5282707  23.2268257  16.7903214  69.4808197  47.3863831  68.6255646
  68.5460587  47.5783653  68.5507736  69.8626404  47.7379608  67.8213043
  64.9375916  48.1938095  50.6873207  64.2068558  48.6481247  50.2679672
  64.6290817  47.2943726  50.7971802  57.8403206   0.0944729  17.9162979
  57.9535294   0.8710733  18.4643002  57.7312965  -0.6242579  18.5390110
  28.5981655   1.8936678  82.5833282  27.8304958   2.1887221  82.0935822
  28.3397903   1.9691346  83.5019073   5.4982615  34.7914734   4.7291017
   5.4526525  35.6832123   4.3842053   5.6541543  34.9049759   5.6666765
  20.7655773  13.4563351   9.0807095  19.9153328  13.0192699   9.0328579
  21.4037266  12.7516804   8.9690857  74.0807724  46.1039352  50.9286232
  73.6712875  45.8085136  50.1154366  74.5084915  46.9280014  50.6957970
  85.4291229  56.5360565  25.2649937  84.5181961  56.6409874  25.5396385
  85.5155182  55.6021729  25.0736008  53.5660706  55.3429947  55.1871529
  54.2627716  55.2477455  54.5377159  54.0100403  55.2501297  56.0300636
  68.3813858  63.4604721  58.1036377  68.2999802  64.4118271  58.0363388
  68.8653030  63.2053337  57.3181686   2.5641432  32.6934929  56.1997719
   2.9843221  32.4973183  55.3623962   1.6888932  32.9999390  55.9625778
  80.5801239  29.5217018  68.2166214  80.1395340  30.0586567  68.8752441
  79.8686142  29.1532116  67.6929779   6.9393072  15.4373217  43.1613045
   7.3773527  15.5033169  44.0098305   7.2943945  16.1652813  42.6511879
  27.6581116  49.0275345  85.8907013  26.8132534  49.3814697  85.6128922
  28.1926537  49.8000145  86.0744781   5.8801503  63.6556129  87.0313644
   6.1278114  62.7543335  87.2377548   6.5398035  63.9471321  86.4020004
  34.3712692   5.6847973  88.6833191  35.0170097   5.6782346  89.3898697
  33.9301529   6.5298786  88.7698441  51.5308723  64.2540817   1.1272728
  51.8339615  64.1931229   2.0331707  50.6151009  64.5233307   1.1987106
   8.0573101  57.8821869  70.4116287   7.6072841  58.1334877  69.6050568
   8.8669863  57.4668655  70.1147079  81.8902969  49.9218521  65.4079514
  81.3385544  50.6494141  65.6951141  81.3863983  49.1380959  65.6271362
  62.6955147  24.6546364  84.2671204  63.1825562  25.2003384  84.8845596
  63.1592789  24.7604485  83.4364777  54.1762314  17.8413830  58.3470154
  53.3274956  17.5884075  58.7101669  54.0074501  18.6699448  57.8984261
  29.9458599  12.2445002   4.6438322  30.3681889  11.3904867   4.5514712
  29.0722408  12.0445652   4.9800568  10.3610649  12.4398708  75.3895798
  10.9986353  12.8087473  76.0008621  10.8789673  12.1928358  74.6234283
  26.6410065   9.4045439  44.6763153  26.1253281  10.2036982  44.5683250
  27.5507565   9.7006731  44.6464615   9.8870516  27.2703304   3.3989303
   8.9570818  27.1574459   3.5955119  10.2839928  27.4961319   4.2401695
   1.6551236  53.2719307  78.7037582   1.1601421  53.7130814  78.0133820
   2.5179000  53.1179657  78.3188629  68.6781540  67.7991867  30.2056789
  68.9410019  66.8877182  30.0777302  68.9460068  68.2410660  29.3999310
   4.0953951  43.2877579  60.4389420   3.6476431  43.5734177  61.2352791
   4.2630606  44.0965309  59.9552002  42.8815536  55.9981613  47.7974129
  42.9076424  55.1747322  47.3100548  43.8010330  56.2397728  47.9088287
  72.2213364   8.9204893  62.6084251  72.7423782   9.1446562  63.3794594
  71.8225250   8.0778580  62.8255730  22.2781754  13.3742657  87.1333847
  22.0644455  13.5371218  86.2146759  23.1832218  13.6720877  87.2251740
  52.8983994  52.0011482  14.2453785  53.5108490  52.1356392  14.9686003
  52.7159996  51.0615654  14.2575645  78.8568268  65.0689621   2.8411591
  78.9645844  65.5842590   3.6405873  77.9138260  64.9166183   2.7796843
  24.9338627  57.5784378  44.1524277  25.4824829  56.8297577  43.9184837
  24.0385685  57.2428970  44.1066666  34.7806206  55.4115295   8.4608707
  34.9068718  56.1972542   7.9289613  34.9767265  54.6865196   7.8674603
  34.7046432  27.8896675  68.7442245  34.6893768  28.1586609  69.6627197
  33.7847252  27.8884315  68.4796906  53.6832962  52.4359550  25.7785034
  54.0259094  53.3245964  25.6827526  52.7502670  52.5566978  25.9548836
  56.8497810  23.5688057  74.7573395  56.1335602  23.3523998  74.1603241
  57.5551720  22.9700222  74.5121536  43.0907059  33.3625145  78.5618591
  43.8297310  33.0635986  78.0320282  42.8732147  32.6119461  79.1146469
  57.3337517  48.0570564   9.0823631  56.8861542  48.2651024   9.9024878
  57.6524887  47.1626701   9.2036600  74.5986710  12.2801771   9.2568092
  74.2949448  11.3740444   9.3107262  75.5475769  12.2089605   9.1531973
  84.0571060  11.9191341  21.0484047  84.6160049  12.5054531  21.5583954
  84.1828384  11.0592413  21.4496632  64.3196487  49.6985931  39.6671562
  64.8746948  49.9719734  38.9368019  64.6901398  50.1437531  40.4292564
  47.7185936   3.5484397  20.7605400  47.6777077   3.1895187  19.8741226
  48.3421402   2.9848852  21.2186089  74.0940781  29.9473763  17.3245106
  73.4504776  29.7201118  17.9956017  73.8403549  30.8242588  17.0365200
  74.0571136  68.9018021  39.1806755  74.0799942  69.8023987  39.5041542
  74.5867386  68.4087219  39.8072510  86.7888641   6.2806940   6.5516658
  87.1238174   5.6070881   7.1435232  85.8496094   6.1049032   6.4957938
  14.1516285  55.8451958  10.7136784  13.4334602  56.0855980  11.2990627
  14.7204409  55.2905998  11.2476311  77.5510178  11.0986166  74.1807938
  77.1465378  11.1676960  75.0455856  77.0280457  11.6763353  73.6249390
  33.3784294  70.0332870  52.7567139  33.9535751  69.5769348  52.1425591
  32.8264618  70.5853806  52.2028618  70.3235855  57.6590691  20.8102951
  70.9488754  57.8427200  21.5113754  70.7592926  57.9645653  20.0146465
  10.0781326  45.3833885  81.9907761  10.2888718  46.0499916  82.6445770
  10.6373377  45.5956421  81.2434616  46.8647575  13.5824051  10.0263691
  45.9971542  13.3031101  10.3187561  46.8056183  13.5868263   9.0710077
  83.5024033  27.6285515  73.1893082  82.7699127  28.2406635  73.2601166
  83.7974625  27.5027599  74.0911636  72.1263428  22.8215885  86.9651260
  72.7440948  23.4362850  87.3610611  72.1454010  23.0309601  86.0313034
  54.4375153  51.2303162  72.9351578  53.7886047  50.7840996  73.4792480
  54.7544365  51.9494934  73.4815750  26.4290371   7.4111147  54.6892853
  26.4995747   8.1857710  54.1314659  27.3299179   7.2222471  54.9519157
  59.7818604  23.8195686   4.0549111  60.2783966  24.4129391   4.6184669
  60.4378128  23.2166672   3.7049549  63.2202988  38.7086182  34.8793602
  62.6576843  39.4234657  35.1771698  63.9856033  39.1457863  34.5059700
  50.4882278  47.5369530  42.3592873  50.3401909  47.0152245  41.5705414
  51.3096085  47.9985390  42.1904640  41.9550552  37.3002357   9.1651239
  42.2324104  37.5012131   8.2713041  42.6446152  37.6674919   9.7181702
  27.7202778  52.1423569  75.5509644  28.4147186  52.6603813  75.9579468
  28.1829433  51.5229721  74.9865723  78.7457504  51.3267975  22.5802441
  77.8129120  51.2287903  22.7711620  79.0635986  51.9370346  23.2456875
  68.8049927  63.2461777  42.7354927  69.3449249  64.0332947  42.8072968
  68.3317947  63.2037048  43.5664635   1.4414833  34.5966988  62.4015541
   0.9199887  34.0277023  62.9676933   2.0321209  35.0539017  63.0001717
  51.8108521  44.6201210  10.8814039  51.1460075  45.2678642  11.1151619
  52.3963776  45.0833397  10.2823915  53.0889435  32.4964828  69.6501312
  52.3398933  33.0512390  69.4324112  53.1590538  32.5519066  70.6031494
  66.9286423  25.1901016  41.8303108  66.8875504  25.4232197  42.7577820
  66.8646393  24.2350960  41.8203278   5.3906989  20.6041851  29.9969063
   5.8344383  21.0911446  29.3025017   5.3344450  19.7087994  29.6632099
  62.4348221  15.0960083  33.1486893  62.3405914  15.0183201  32.1993103
  63.3680687  14.9560556  33.3089943  16.5716515  54.3372803  71.0972672
  15.7333460  54.7971687  71.1417313  17.1341877  54.8044624  71.7149429
  26.4400635  22.9804726  76.4454498  26.2655735  23.5905113  75.7287598
  27.2482204  23.3037205  76.8437195  25.6739292  51.0202484  51.0363426
  25.1342659  50.3614731  51.4733925  26.4294758  50.5321579  50.7090073
  48.2080078  10.5020790  42.9685516  48.0253677  10.0979328  43.8168106
  47.3476448  10.7539663  42.6330452  11.1443930  57.0552139  54.4035492
  10.4108362  56.4592781  54.5551643  10.7524862  57.8110352  53.9660873
  17.9512501  60.5973053  25.4753685  17.9813251  59.6476974  25.5918465
  18.8219700  60.8264542  25.1504536   7.0355062  43.0615158  62.1116333
   7.8578210  42.7523460  62.4916916   7.0736427  44.0138092  62.2005615
  57.9347458  56.4390221  26.8686829  58.0984840  56.8755302  26.0326920
  58.3562126  57.0009956  27.5189018  83.5531998  31.7209644  67.4256287
  83.5700378  30.9121704  67.9372940  82.7052155  32.1155663  67.6292038
  83.7413864  34.8266945  70.4193649  82.9173203  35.3047256  70.5122833
  84.2858810  35.1458664  71.1389999  56.6390877  24.6808586  61.8350410
  56.8090401  24.8064861  60.9014664  56.5348549  25.5672760  62.1809235
  52.9668198   8.5528812  16.5504875  52.3478889   8.3660212  17.2563477
  52.5237617   8.2513657  15.7573795  51.2955704  41.5785904  83.1621628
  52.2186852  41.4712791  83.3914566  50.8247490  41.0615997  83.8158264
  18.4055214  16.3171215   0.5609055  18.0535812  16.8712559  -0.1357332
  18.8709373  16.9234047   1.1371359  80.5916824   8.5735950  14.5813913
  79.6628952   8.3430004  14.6018629  80.6005173   9.5305777  14.5629797
  63.5963364  18.7189369  87.8352966  64.1137695  18.0285969  87.4206619
  62.8042336  18.2752209  88.1384888  33.1843987  20.7139454  84.0243530
  33.0442848  21.1388569  84.8705521  32.5382271  21.1166191  83.4442291
  72.3431854  52.2241592  83.2520599  72.1821976  53.0809135  82.8567200
  73.1225128  51.8960266  82.8035049  17.4861240  31.5271931  82.4776154
  18.1424809  31.6764431  81.7970657  16.9221249  32.2996674  82.4399490
  65.1624756  70.8541107  56.2504082  64.8149338  71.6781769  56.5915222
  65.9912796  71.0964279  55.8373642  77.8103256  43.5032959   1.4116721
  77.8290634  44.0691223   0.6398421  78.7189255  43.4772682   1.7116822
  86.1682587  39.7580681  23.0814056  85.7198105  39.4659119  23.8749866
  86.5494461  38.9604797  22.7142849  40.1502190  70.5097122  36.3860245
  40.9334373  70.1475372  36.8003044  40.1967773  71.4487762  36.5655594
  40.8636971  64.8402100  21.4318027  40.2730370  65.3432922  21.9923916
  41.1581268  64.1154785  21.9834461   9.1717062  11.1073580  46.8265343
   8.4201736  10.5163574  46.8728981   8.7912607  11.9637527  46.6313896
  65.1606522  32.3003769  55.3062859  65.5171890  31.4378548  55.0937538
  65.7641525  32.9175682  54.8926582  78.8377075  14.3823862  14.8459635
  77.9347153  14.5294065  15.1274242  79.2148285  15.2599068  14.7829409
  10.7334585  51.6314735  14.9628382   9.8066416  51.5186501  14.7518578
  11.0063934  52.3890762  14.4453669  79.1910095  20.0536747  25.9932766
  79.7188187  19.2867088  26.2155628  78.2858276  19.7564659  26.0857525
  52.0006294  67.9555664  13.9479589  51.1573296  68.0293961  13.5011654
  52.1201820  68.8035660  14.3755560  38.4570541  17.7172413   5.5810165
  38.3875542  18.4334736   4.9498153  37.5845413  17.6550274   5.9697070
  11.7974644  59.7861099  14.3536348  11.8058233  59.2537117  13.5581999
  11.4338894  59.2084198  15.0246925  34.4665604  36.7841454  79.3813705
  34.7250290  36.6040497  78.4774933  35.2481079  36.5872116  79.8977356
   5.5677581  25.4940948   2.4737864   4.7469335  25.7838345   2.0756283
   5.3798542  24.6122990   2.7952828   2.2701581  31.3604660  58.5369530
   1.4033177  31.7483349  58.6568604   2.5553896  31.6723576  57.6781158
  73.9083862  16.6867771  26.2275009  73.4716034  15.8396282  26.1392078
  74.5588989  16.6951847  25.5253716  55.2784576  47.2858620  55.1783791
  55.6878052  47.8639793  55.8221550  54.7780991  47.8737602  54.6124725
  77.1343536  40.4171486  83.4669418  77.0953522  40.6658363  82.5434341
  77.6888275  39.6370430  83.4817047  57.6078568  48.7308884   6.3665237
  57.8325729  47.9090881   5.9301949  57.4942665  48.4905701   7.2860761
  19.3051567  19.6276703  86.2170715  18.3886623  19.4395256  86.0149078
  19.3278503  20.5724716  86.3689423  85.3875656  36.1436310  17.4198551
  85.3301620  36.6048279  16.5830555  84.5270004  35.7392502  17.5299892
  72.5256805  46.0908470  13.4187441  71.6791229  45.9528885  13.8436451
  72.9189301  46.8193626  13.8992128  58.5498085  52.5480003  45.3706665
  58.0637474  53.3309593  45.6294136  58.4202881  51.9354935  46.0947456
  64.1214752  12.2534523  73.2860260  63.4560165  12.2652454  73.9739609
  63.6982727  11.8097563  72.5509949  30.8711796  18.5939102  81.6730957
  31.4588871  18.8228016  80.9530716  31.3883858  18.0102272  82.2281189
  38.4484177  41.4784164  64.4706192  39.2605667  41.6681557  64.0008850
  38.6838913  40.7831955  65.0849915  78.2314758  18.2457409  28.4448814
  77.6399536  17.6930199  28.9555969  78.5570450  18.8915119  29.0719509
  65.3463745  38.5275612  69.4506912  66.0599365  38.9007034  68.9331665
  65.6661148  38.5525627  70.3525620   5.1647344  14.0003862  30.7511940
   5.9010572  13.5785837  30.3083153   4.3899369  13.5663671  30.3940563
  58.0897942  14.2669601  89.4711227  59.0281525  14.1244936  89.3469391
  57.7985001  14.6703529  88.6534119  34.3389473   7.4608741  19.2014809
  34.1140518   8.3377476  19.5125237  33.5739212   7.1816282  18.6984997
  17.1292076   0.4237014   7.1085916  17.0477543   0.6876645   6.1921196
  17.0752792  -0.5317637   7.0883465  72.2775116  52.6772003  57.2697983
  71.7042007  53.4437027  57.2653770  72.0743179  52.2308693  58.0918312
  82.7203522  37.7234421  88.5451889  82.9479294  36.8357086  88.8215408
  81.8032684  37.8257866  88.7995834  54.4872169  46.4058876  80.9243469
  54.2636261  46.0155487  80.0794373  53.9276314  45.9511299  81.5538635
   8.7020197  67.9734802  79.9203339   9.6586590  67.9590149  79.9497147
   8.4732447  67.3301544  79.2494888  37.8926620  54.0235863   4.2481003
  38.5761490  53.4824066   3.8528757  38.0307732  54.8941650   3.8749440
   5.0580320  31.6179428  64.1315918   4.5792155  32.1228447  64.7888870
   4.5102391  31.6644650  63.3480148  35.5219650  13.7154417  88.3583832
  35.3411102  13.0233850  87.7223129  35.3739395  14.5288105  87.8759384
  27.3786354  24.0673313   0.6810073  27.6167393  24.8020096   0.1155099
  27.6904621  24.3225307   1.5492636  63.1152611  45.9096909  18.6448746
  62.2926407  46.3109512  18.3646698  63.5700264  46.6038094  19.1219730
  23.9640598  38.8197746  70.1892242  24.2139893  39.7422752  70.1367035
  24.0593472  38.5981750  71.1155319  31.4309483  36.2095604  68.6546783
  31.1581612  36.0537987  69.5588684  30.7798481  35.7490044  68.1253510
   3.7546377  26.3091526  17.4520473   4.3295274  26.1307163  16.7078056
   3.8235683  27.2543201  17.5867290  38.8398438  57.6015015  40.0637779
  38.0247040  57.7736893  40.5350838  39.5274811  57.7464523  40.7136803
  72.3387985  35.8595352  49.3772850  72.0351868  35.3574257  48.6210175
  71.6463318  35.7526093  50.0294228   5.1897869  54.9504585  69.7580185
   6.1392689  54.9149284  69.8740082   5.0694051  55.2855682  68.8695145
  23.6513176  28.3601151  69.6080017  22.9612694  28.9793739  69.8458786
  23.2291031  27.7528019  69.0004425  76.8258362  47.7769470  22.1579895
  76.5736084  48.5405197  21.6387863  76.3506241  47.0482483  21.7587337
  53.6568298  60.5012779  58.3173141  53.3332405  61.3614922  58.5848160
  54.6099815  60.5859375  58.3410263  25.8331089  40.9791412  15.6697035
  25.2703495  41.4912300  15.0889292  25.8866692  40.1186638  15.2538414
  43.2565804   9.4630766  14.9691048  43.4148712   9.5558624  14.0296555
  42.5405312   8.8307829  15.0300417  22.4820042  60.0074806  18.2198467
  22.0697594  59.2004051  17.9117622  22.7771320  59.8021584  19.1069622
  63.0976486  54.4207954  28.4754982  64.0400772  54.5784416  28.5321636
  62.7043037  55.2899475  28.5534801  28.6197815  47.0665131  64.4479370
  28.7941532  46.1579857  64.6937027  27.6668930  47.1472015  64.4894562
  82.8125000  47.0795364   0.2113585  82.3297501  46.5422783   0.8394830
  83.2900085  46.4481163  -0.3267190  55.2086792  16.6199856  63.8365364
  55.7846680  17.1083183  63.2483215  54.4291267  16.4378986  63.3117752
  17.0864410   6.0016117  72.1757278  17.1745052   6.8892794  71.8285599
  16.9418221   5.4554858  71.4030228   8.6339550  67.7108688  19.6489525
   8.0481157  66.9555893  19.5982227   8.2249184  68.3694000  19.0874691
  61.1785431  27.6975842  88.8104553  61.0055885  28.5757179  89.1498718
  60.3258324  27.3856945  88.5074081  24.7852898  68.6411514  77.9779358
  24.6538601  68.7724762  77.0389404  24.0756378  69.1336746  78.3903046
  13.5483770   5.9319520  83.8531570  13.2325716   6.0816045  82.9620361
  13.6513500   4.9822831  83.9144592  75.6166458   9.1538458  61.5342636
  74.6749878   9.1269226  61.3645821  75.9027863   8.2451248  61.4416199
  68.4599304  51.4439163   6.0413895  68.2376785  50.9807129   5.2337513
  68.2184448  50.8361053   6.7403049  12.2717028  40.8385429   1.6934092
  12.7149467  41.1616974   2.4778442  12.4981661  39.9092712   1.6560037
  61.4196091  43.8029556  19.8150272  61.9952965  44.5191498  19.5469189
  60.5912819  44.2302666  20.0330009  70.1791992  67.2565002  21.0555725
  69.6913834  67.6565170  21.7754707  70.3738861  67.9840317  20.4647808
  56.8008995  37.2221146  81.6546402  55.8626366  37.0867157  81.7871552
  56.9901428  36.7892189  80.8221664  21.2919827  43.8863220  40.9611511
  20.5998993  43.3448524  40.5815849  20.9230728  44.7694130  40.9780426
  21.8842392  17.2140827   8.1699295  21.8739662  18.0615349   8.6148453
  20.9876614  16.8892307   8.2526999  60.0105972   1.8267822  24.5272446
  59.4850464   2.6153851  24.3925800  60.5909958   2.0472665  25.2557755
  12.5906353  23.6072102   7.6782646  11.9348936  23.5112991   6.9875875
  12.9351978  22.7233315   7.8058081  38.6356468  32.5865288  62.4662819
  39.4935532  32.2500076  62.7250824  38.0634460  32.3767014  63.2043800
   3.2070892  40.2586212  44.0678711   3.8057227  40.2124367  43.3223953
   3.7803845  40.3179932  44.8320961  18.0744190  43.9519234  19.5717926
  17.1964245  43.8918457  19.1952972  18.0044861  44.6394424  20.2341042
  19.0065346  68.4492416   7.7202787  19.2340679  69.3022461   7.3503637
  19.6941109  67.8613815   7.4073997  50.2191429  38.7511368  88.3644333
  51.1278000  39.0492439  88.3231125  50.1933975  37.9817238  87.7956009
  82.2840881  51.2999001  84.4570847  81.3291702  51.3343925  84.4007416
  82.5869904  51.7735672  83.6824036  50.3633537  15.2195473   5.5638747
  49.9571152  15.3918037   6.4133039  49.9453087  14.4149170   5.2572165
  56.9793968  34.7220802  49.8473015  57.7181473  35.2255363  50.1893692
  56.2744827  35.3631554  49.7559204  50.9864960  26.0483704  34.0340309
  50.4320755  25.2692585  33.9911995  51.6246834  25.9271412  33.3310013
  16.8692265  68.7922592  22.5955009  16.1483936  69.1303024  22.0641251
  17.3709087  69.5696335  22.8409367   8.1608200  29.1620312   0.1997736
   8.9965801  29.6021137   0.3548953   8.0002270  28.6636295   1.0010457
  77.9037857  34.0461388   5.4912343  77.2150269  34.4322357   6.0323181
  77.4344711  33.6214828   4.7731490  71.2670441  19.5709648  36.5429115
  72.1515503  19.5584526  36.9085922  71.1675873  20.4538555  36.1867561
  51.4835930  27.4792900   8.1837702  51.3908653  27.8251667   9.0714655
  51.3870010  26.5323067   8.2843914  43.5042343  42.1349945  14.5227852
  44.3474045  42.4087143  14.8838596  42.8563499  42.6241150  15.0299721
  85.6211777  65.6628113  44.7641830  86.5602570  65.6477356  44.9489174
  85.3727341  66.5821152  44.8611183  69.2459488  13.9792633  10.1442337
  68.5987473  14.5723934  10.5257549  70.0714340  14.4612303  10.1943665
   0.4834364  66.4055939  68.3163605  -0.3995264  66.0398178  68.2632599
   0.8363323  66.3089066  67.4318542  45.5139885  65.4589233  34.9058075
  44.6339989  65.2901764  34.5690918  45.6390724  66.4005585  34.7878571
  85.9852753  13.2287350  74.2135620  86.2176895  12.3671312  73.8673630
  85.1428528  13.4310951  73.8066101  61.6498604  53.5222778  10.4444523
  61.4026108  52.7012787  10.0189419  61.5868721  53.3350716  11.3810511
  36.8468742   7.1692405  30.9048996  37.8026390   7.2111545  30.9363155
  36.5617523   7.5950441  31.7133732  21.9016190  69.9079285  67.1292419
  22.8548851  69.8585587  67.0579910  21.6283951  69.0093613  67.3140411
  50.9618149  11.3716745  61.5207863  50.0418625  11.6208220  61.4322319
  51.4470367  12.1724606  61.3219566  48.5754356  62.5169144  78.2394104
  49.3062477  62.9213104  78.7069702  48.1664886  63.2395859  77.7632294
   4.1982460  46.8652916  50.0057449   3.9055345  47.7642708  49.8561020
   4.9553990  46.9531784  50.5847321  56.5012512  31.1120739  12.1056385
  55.7910652  31.5372906  11.6249523  56.5809288  31.6192493  12.9135103
  84.5952759   3.6610582  74.8451767  85.3190002   3.1469367  74.4872208
  84.7213745   4.5375452  74.4817200  49.6691322  40.7860947  85.3769379
  49.0680275  41.4956665  85.1501923  49.3745499  40.4885139  86.2376938
  82.0433960  41.0438995  45.8223381  81.1274719  41.1820526  46.0636482
  82.5357437  41.2704544  46.6113243   3.6968005  56.5155945  32.7202797
   2.8023179  56.2501526  32.5065651   3.6243603  56.9318848  33.5791664
  29.2876587   0.3172452  86.7518921  28.4254875   0.6947631  86.5776062
  29.6499386   0.1368677  85.8844528  70.8392258  42.9481659  72.0214539
  70.9725876  43.8929520  72.0978012  70.1072006  42.8581352  71.4113159
  15.0926323  46.4435158  58.2350349  15.0442209  45.5608330  57.8679390
  15.7633448  46.8836327  57.7128487  28.2068462  53.2776642   0.8387990
  28.9853420  52.7929649   1.1131029  28.4971771  54.1883698   0.7882547
  72.3694839  52.3351173   0.0918171  73.0173187  53.0238953  -0.0569301
  72.8874588  51.5360451   0.1888850  85.2961578   7.7091327  41.0774765
  84.7995453   7.3982902  40.3205223  86.0780411   8.1134052  40.7013626
  70.1673508  30.5904465  10.5484467  70.6757812  31.3984756  10.4790192
  69.4613724  30.8033733  11.1587610  42.8068848  63.0001411  10.9251661
  43.2561798  63.8400803  10.8309650  43.3262215  62.5218849  11.5715342
  34.0331192  61.9780197  70.3422318  34.6544952  61.6866951  69.6749649
  33.5824051  61.1788445  70.6150131  19.7247562  45.1836700  53.6909523
  19.0529079  45.3687897  53.0347672  19.4824734  45.7261543  54.4414482
  73.4867020  42.9754219  17.9472618  72.8250809  43.5735779  17.5998573
  73.0228119  42.1461678  18.0628757  73.3761139  39.3526001  23.7015705
  72.7761765  38.6868973  24.0379391  72.9353790  40.1836472  23.8786221
  84.9163818  15.8711672  11.3857660  85.8136444  15.7001486  11.6719646
  84.5349731  16.3926048  12.0920658  19.7838936  14.1628151  22.1637173
  20.2461395  13.5753584  21.5658436  20.4614162  14.7561207  22.4880371
  35.3117294  70.5531693  19.7667580  35.3980064  70.3814087  20.7044601
  34.3759804  70.4555283  19.5904770  18.3242931  12.7890320  12.6187277
  18.5712814  13.2812958  11.8358450  18.7615719  13.2462664  13.3370275
  54.3526039  15.7730341  69.3148956  53.9522705  15.1192522  69.8880692
  54.4439697  15.3287640  68.4719772   4.7564483  31.1381493  81.6822128
   3.9699230  30.9693031  81.1634674   5.2396665  31.7930241  81.1783600
  48.4053001  26.5821667  27.4531460  48.4480400  26.6059666  26.4971962
  47.4871140  26.3937531  27.6472301   4.2088928  29.2865200  61.1373253
   4.3297668  30.0225220  61.7372589   4.4450345  29.6364899  60.2782631
  55.1946182  14.4230690  44.8757401  55.3461914  14.8193054  44.0176849
  55.1688461  13.4818068  44.7037125  36.2763062  66.2604904  77.9252853
  36.8964157  65.6391525  78.3069077  35.4788170  65.7492371  77.7879868
  19.9312706  67.4676056  53.9803314  20.8580532  67.2285843  53.9935875
  19.8779373  68.2503738  54.5286560  70.4074020   6.9407229  27.3842659
  70.4434204   6.8682313  28.3380375  71.3236771   6.9229650  27.1079388
  63.7133522  20.8908024  86.3609314  63.0932503  21.4453373  86.8344193
  63.7827187  20.0992355  86.8946381   4.3947964  58.9993629   8.2573175
   5.0423880  58.6387215   7.6516814   4.5567317  58.5410614   9.0819206
  74.1156845  19.3892403  47.5343742  74.0962677  18.4655437  47.7846527
  73.2552032  19.5506878  47.1474266  73.1842346  32.6343994  83.7100983
  72.9633255  31.8563709  83.1981354  72.3377838  33.0097351  83.9527435
  56.8189888  16.6636696  70.2527084  55.9631767  16.3504257  69.9599762
  57.0581093  17.3372459  69.6160431  41.3533897  29.9582920  65.6211548
  40.4661942  30.1966267  65.8900604  41.4692574  29.0643616  65.9431686
  19.8837395   3.4074085  40.9112816  20.4726620   2.7055843  41.1884918
  20.3831978   4.2108245  41.0572205  31.9684982  28.7904186   1.5183917
  31.1877518  29.1296616   1.9560909  32.7000160  29.1692963   2.0058000
  60.0932922  11.7215967  40.4668198  59.9296608  11.6581669  39.5258484
  59.4201622  12.3220825  40.7870407  42.8550606  50.4594917  22.2039967
  43.2455025  51.2872314  22.4844170  43.2424011  50.2907982  21.3450775
  66.3064041  29.6445255  15.7628508  67.2239685  29.4482861  15.5736580
  65.8199768  28.9232140  15.3636885  82.5717392  26.8746510   7.2554593
  81.8472214  26.8245087   6.6319232  82.8555832  25.9672489   7.3663001
  82.3730774  33.9976845  11.0753851  82.0741425  33.2823029  11.6367188
  82.2982788  33.6516075  10.1860771  16.1491909  13.3729620  68.4591446
  16.1570358  12.4587116  68.1757431  16.1060162  13.3272800  69.4142761
  50.4086685  21.3351173  78.2075119  51.3047829  21.4551735  77.8931961
  50.2551270  22.0830173  78.7848358  77.8351898  54.3739243  48.9288177
  77.1946945  53.7970963  49.3450699  78.6142120  54.3045998  49.4806824
  78.1718826  59.6596832  87.6579590  78.4908752  59.0408478  88.3148651
  77.6668243  60.3007584  88.1581345  50.3979416   9.4907827  68.9058304
  50.3859444  10.3754988  68.5406342  50.1758003   8.9237919  68.1673126
  34.3999062  19.9038525   9.4597034  34.1912727  20.1449432  10.3622437
  33.6769829  20.2602444   8.9433718  73.7198868  66.1294098   9.2566986
  73.8244781  67.0701447   9.1141949  73.1312256  66.0650711  10.0087414
  68.4437943  31.9053440  66.3673782  67.8070679  31.8796101  65.6531372
  68.0673828  31.3428001  67.0442047  60.5339546  16.1809998  19.0526066
  59.6880531  16.6160908  18.9459419  60.3954086  15.2996769  18.7057533
   3.1467278  39.2558327  66.6907806   3.6407814  38.4939537  66.3879852
   3.7693748  39.9810104  66.6392136  22.5107059  32.6803055  64.2826080
  22.0753098  32.0263290  63.7358208  23.2645321  32.9622307  63.7644386
  42.8102875   3.9480608   6.3511782  42.8051033   4.0447068   5.3988838
  43.5737953   4.4487481   6.6385808  52.0657997  17.1290607  14.6712036
  53.0219879  17.0887699  14.6536245  51.8051567  16.3923969  15.2240372
  47.0200386  49.4401321  50.5963936  47.0643005  50.3956375  50.6322556
  46.3934326  49.2554817  49.8967514  17.7349224  49.2561607  21.5506382
  17.8733311  48.9983139  22.4620056  16.8841324  48.8816452  21.3223324
  62.8888664  32.2201881  72.6889343  63.3166008  31.4530544  73.0694351
  62.6023941  31.9298058  71.8229980   0.7998674  66.6003876  42.1250877
   1.0945939  65.6935883  42.2092018  -0.1344150  66.5313339  41.9286690
  36.1529961  58.3968124  20.8770618  36.3489990  59.1794434  21.3921356
  36.9984894  57.9601250  20.7737484  35.5369453  51.7518234  33.9926262
  35.8361549  52.2645798  33.2417679  34.8866310  51.1511459  33.6286087
  77.3939590  58.8038597  42.6694450  77.4285278  59.5647163  43.2492180
  77.1588211  59.1646271  41.8145828   3.4668036  66.4428101  23.6178226
   3.8660369  67.1187210  23.0701122   3.5438428  66.7810364  24.5099545
  54.2458115  65.4596710  86.2316589  53.5454025  65.7254791  86.8274841
  54.7234306  66.2684937  86.0475082  59.2853317  31.7256775  67.1885147
  60.1879692  31.4155636  67.1156693  58.7718391  31.0863400  66.6947479
  73.0963669  31.7762108   2.5080009  73.9748611  31.4569988   2.7143345
  72.5769730  30.9824009   2.3802025  40.0085716  19.5007858  82.2056503
  40.1908531  19.4228725  83.1420975  39.0537071  19.4739132  82.1444626
  70.7739182  24.5825024  26.4011879  70.5481491  24.6483593  27.3290482
  70.2397766  25.2537346  25.9764900  12.8899508   5.6933289  26.6809368
  12.0812445   5.2517352  26.9402084  12.9129648   5.6106186  25.7275944
  34.8149681  55.8959541  46.9750443  35.0624390  55.4898071  47.8057251
  34.7380676  55.1633720  46.3637810  69.3813324  37.8527451  35.5697174
  70.1119537  38.4419823  35.3820229  68.6106567  38.3136940  35.2383347
  24.2698898  41.4283066  84.8555908  25.1664753  41.7632332  84.8693237
  23.7259712  42.1919250  85.0486450  60.6753769  50.3472557  19.9051361
  60.4692192  49.4133797  19.9451809  59.9943504  50.7656708  20.4317913
  15.6450157  47.3431244  66.1795883  14.8519049  47.5777512  65.6977615
  16.2124634  48.1092720  66.0944366  14.1225767   2.3540845  44.5843811
  14.4253979   1.8836066  45.3610268  13.6144876   3.0873029  44.9314651
  86.0850372  34.3423424   2.0640743  86.4890900  34.3937225   1.1978576
  86.1752625  33.4233971   2.3163235  61.0220490  39.3046074  70.6773682
  61.5679665  38.5337448  70.5225067  61.3545341  39.6730423  71.4958649
  18.0237827  46.1764488  85.0616531  18.9264164  46.3081589  85.3517151
  18.0743847  46.1937485  84.1059494   1.1920558  55.1768875   4.3642626
   0.8732267  55.8957100   3.8184793   0.4136668  54.6499481   4.5450282
  23.4737034  70.8383560  37.6047287  24.1728973  71.4213943  37.3090401
  23.0729790  70.5162277  36.7973366   9.0845089   7.3641815  84.5460587
   9.3490915   8.0182114  83.8991623   9.8857937   7.1707745  85.0326462
  44.7591858   3.1418571  20.8843575  45.6163750   3.2126162  21.3044186
  44.8071404   2.3314519  20.3772316  55.3156128   6.9117537  21.0634174
  54.6706810   6.6675587  21.7272434  54.9513626   6.5808029  20.2424278
  53.2912254  50.7549400  80.0461197  53.0317078  50.3915062  80.8927612
  53.5294228  49.9912453  79.5205154  67.3836746   7.2746625   4.5492134
  66.7893448   7.2412081   3.7996249  66.8882980   6.8775558   5.2655544
  18.0266094   9.9493685  81.9761505  18.2329178   9.7940674  81.0544357
  17.9907341  10.9025364  82.0562515  40.2126083  68.5068283  54.2543755
  40.6072350  68.6210938  55.1189232  39.2937126  68.3085938  54.4348335
  41.9090500  10.2987890   0.4073599  41.3484497  10.0704250  -0.3341306
  42.6506920   9.6972857   0.3410832  10.5963488  48.0946655  19.7300968
  10.0623550  48.2818298  18.9580517  10.9340239  48.9485321  20.0004940
  59.5388031  56.1535225  32.4071846  58.8010750  55.6112747  32.1279831
  59.9480629  56.4399452  31.5906677  53.0943527  29.5810814  60.8338776
  52.9427147  29.8007526  61.7531090  52.5558205  30.2046204  60.3466263
   6.9091654   4.8844714  44.4118118   6.7152944   3.9900155  44.1314621
   7.7752199   4.8265934  44.8153343  84.1980209  57.7637901  45.3527336
  84.3889923  58.0053673  46.2590485  83.2505112  57.6290703  45.3353310
   9.3957033  25.1939240  67.0167007   8.5231962  24.8415070  67.1921005
   9.2437954  26.1147938  66.8042068  49.5715675  22.1258640   7.8778005
  50.4430733  22.0135460   8.2574015  49.1038818  21.3236961   8.1102381
  24.0659733  18.6081200  60.6281662  24.3195477  19.3978901  60.1504707
  23.8260326  17.9818020  59.9452438  39.8199196   6.4452481  62.6686745
  40.3062935   6.8791695  61.9676857  40.1125107   6.8815737  63.4688263
  55.7846069  40.9384956  49.1143341  55.6473351  40.0746307  49.5030861
  56.7210770  41.1040535  49.2231750  50.3231239  36.5303078  54.4782524
  49.9839249  35.7978020  54.9926567  50.2373199  36.2443542  53.5687981
   9.2120552   4.7167425  50.9427643   8.2597876   4.7732821  51.0216408
   9.3839073   3.7901347  50.7751427  46.9454803  42.6613998  25.2490597
  46.3888588  43.3002701  24.8038063  46.6463814  42.6755829  26.1582203
  28.2420750  45.0791588  48.0626755  29.1665058  44.9545670  48.2774658
  27.7812424  44.9201698  48.8864365  85.2820740  13.1727810  30.9863358
  84.9126740  14.0257845  31.2147236  86.2288742  13.3134680  30.9884434
  56.1456413  51.7724037  66.4556198  55.6692581  51.2682190  65.7960052
  55.5258179  51.8664322  67.1789551  45.3298988   3.7068715  14.3641615
  45.3215332   4.6131101  14.6722097  44.9664116   3.2030149  15.0923357
  71.5034332  68.8615875  41.8077202  71.5420990  67.9655685  42.1422119
  72.3951340  69.1941757  41.9101524  26.2973824  43.1769943  64.3197021
  25.7573338  43.5723953  63.6354218  26.3394833  42.2497826  64.0857391
  78.7065277  13.7429409  18.6283951  78.3919983  13.0009308  18.1119442
  79.3873978  14.1408815  18.0859051  58.1214485  47.6242447  28.8105736
  57.2571411  47.6582489  28.4006405  58.2244530  48.4815025  29.2237720
  84.9152756  38.3816147  15.0125265  85.0275955  38.6731071  14.1077347
  84.0122528  38.6141090  15.2287140  84.2908478  62.8161201  84.9341049
  84.6081390  62.0749931  85.4501343  83.3769989  62.9191055  85.1996384
  44.6533051  57.5787010   9.1691504  44.2067795  57.8886604   9.9570398
  45.3573303  57.0192909   9.4972410   0.8634358  14.5693674  14.1300793
   1.0484561  15.3972387  13.6866512  -0.0088565  14.6886005  14.5057411
  28.0208473  29.9055347  15.9682045  27.9913101  29.3091393  16.7163143
  28.4207783  29.3908386  15.2672234  63.3452492  50.9597740  10.3924866
  62.4783630  50.8649063   9.9978476  63.9550667  50.8041649   9.6712770
  22.0859737  28.5769386  84.8797455  22.9824524  28.7095604  85.1879196
  21.9269886  27.6408730  85.0011368  11.1632757  22.3729992   5.5333142
  11.2945547  21.5470753   5.0676455  10.3661203  22.2353706   6.0450110
  26.4536362  61.1858215  64.0532074  26.8292809  60.8158226  63.2543221
  25.8303318  61.8426552  63.7428932   8.9274263  20.7318916  32.0717506
   8.6098833  19.8878841  31.7507381   8.1526308  21.1537628  32.4431648
  69.5700226  52.7271957  37.4093704  70.0035400  53.2704086  36.7511787
  68.6379089  52.8007698  37.2044754  43.3108940  28.3457165  78.0819550
  42.8069725  27.5368156  77.9926453  43.1529808  28.8177853  77.2643661
  82.9444656  45.4104805   7.9023032  83.8924103  45.3081818   7.9869514
  82.8194580  46.3416328   7.7191119  79.8615341  56.8771400  78.2164612
  79.7871017  57.7317734  78.6410675  80.4608994  57.0245743  77.4848480
  15.5970106  16.2668781  17.9535484  16.4347839  16.6185322  17.6523743
  15.8350430  15.5322132  18.5190945  38.4391441  60.1335869  68.0229263
  38.8725243  60.2032700  67.1723099  37.5363998  59.8944550  67.8129272
  43.6418304  45.9153442  26.7908115  43.8348503  45.1245880  26.2871456
  42.6906204  45.9052773  26.8972664  72.3055420  61.0480232  70.0003891
  71.6068268  60.6325760  69.4949875  73.0778656  60.5090485  69.8293228
  17.6697845  17.1522560   5.7431445  18.5619602  16.9875660   5.4379678
  17.5650063  18.1013241   5.6758952  15.1348372  43.8427963  33.8898735
  15.6765223  43.1074944  34.1764679  15.5451384  44.6113701  34.2863312
  80.4375839   6.6979461  29.1353455  80.5809250   6.2176175  28.3198891
  79.4867783   6.7912979  29.1943703  38.9753189  52.4029541   6.2094765
  39.6702347  53.0462646   6.3490038  38.4496231  52.7687378   5.4980836
  32.0069084   7.9091945  38.0590286  32.3173180   8.1106386  37.1762505
  31.5208645   8.6894436  38.3258705  51.8667412   3.9417737  49.9238701
  52.3284225   4.7746062  49.8265495  51.2842827   3.9007475  49.1653900
  70.4629135  43.4766121   9.8679628  69.7801895  44.1117935  10.0839834
  71.0897064  43.9694862   9.3383923   0.0745368  34.8931847  81.8941879
  -0.4496798  35.4350128  81.3044052   0.9232308  35.3340874  81.9336243
   5.6476626  42.6557121  24.6036720   5.4388742  41.7482719  24.8254604
   4.9933248  43.1735344  25.0726433  80.8909531  55.2338524  13.1222401
  81.4825287  54.5288200  13.3852825  80.6275635  55.6451607  13.9454556
  46.0916290  54.8840828  63.1093788  45.5002327  54.1841431  63.3860817
  46.1686325  54.7719994  62.1618881  77.5280914  46.5776176  13.3119621
  78.2010803  46.4014244  12.6544847  78.0129547  46.6708107  14.1319923
  66.6394424   5.1810274  38.5603828  65.9094391   4.5656843  38.6287498
  66.6718445   5.6101584  39.4153862  70.4102478  57.0078888  14.9535036
  69.7595367  57.0932503  14.2567110  69.9014740  56.7694473  15.7284412
  20.0419598  54.2187996  35.9884453  20.9474945  54.3376389  35.7018890
  20.0309849  54.5439377  36.8886642  75.8212433   1.6088125  49.8145905
  76.4012375   1.1784080  50.4427490  75.8737259   2.5381181  50.0379028
  27.5331650   4.8998871  21.5598831  28.4740639   4.9744997  21.4005890
  27.1961460   4.4381123  20.7921505  20.3367443  22.2994919  84.4103394
  19.9882526  21.9400501  83.5945053  21.2552204  22.4867496  84.2165146
   1.4923970   1.5270345  81.5403595   1.0687445   1.5181243  80.6820602
   1.9312689   2.3766739  81.5820236  33.5196190  15.2289028  66.4046936
  33.9160194  15.9219246  65.8766632  33.8495636  15.3837471  67.2897873
  44.7159805   5.3233876  25.1072083  45.4027061   5.5843363  24.4935760
  43.9072800   5.3749456  24.5977173  16.7571354   8.3274593  13.5073414
  17.1893978   7.4777126  13.5928507  15.8224926   8.1267157  13.5560904
  62.3207054  14.9927082  30.5175018  62.9899483  14.6520348  29.9239635
  62.0096169  15.7926826  30.0938320  34.4935112  66.3565903  81.4606018
  35.0733490  66.2237167  82.2105103  34.2530136  67.2820282  81.5048065
  28.1700802  64.4597092  59.4867592  28.3491230  63.8528824  60.2050438
  28.7126198  64.1428223  58.7646332  34.0101433  50.6008873  78.1467896
  34.6960716  50.1223640  77.6812210  33.2164917  50.0867729  77.9983368
  52.6625099   4.0727272  45.9131546  53.4058075   3.4697027  45.9231224
  51.9175415   3.5392239  46.1899719  49.5370140  68.0660934  38.7434807
  50.4248199  68.1586838  38.3978462  48.9731636  68.4097824  38.0505333
  81.7212982  12.0691395  11.5999136  81.5681610  11.2250319  11.1753368
  80.8449478  12.4051790  11.7878761  67.8583832  44.2509155  21.0753231
  68.3407135  44.6203651  20.3356628  67.2052536  43.6781693  20.6732998
  75.7408829  19.9761162  35.9467354  76.4253769  20.6083298  36.1658478
  75.5036545  20.1835785  35.0429001   9.0541430  60.9919777  10.8202724
   9.0372133  60.0388222  10.7340574   9.7985926  61.2676582  10.2854576
  66.2967682  56.7011909  69.0262146  67.1182785  57.1339493  68.7936859
  65.9649734  56.3559380  68.1973953  28.7806969  23.7988071  77.2758179
  29.4220219  24.2427311  76.7209625  29.3082008  23.3020973  77.9013138
  40.3588562  59.2119865  62.6906204  40.6288528  59.8863373  62.0672531
  41.0405388  58.5427856  62.6297264  56.3615913  28.5296459  14.2624693
  57.1662102  29.0041981  14.0536156  56.5870895  27.6081448  14.1351118
  43.3931427  21.5478992   7.4223084  43.7914963  20.9303722   6.8089514
  42.5796051  21.1235638   7.6949420  69.0747681  21.4528809  18.1288700
  68.4843216  22.1724510  18.3520756  69.8323441  21.8799534  17.7289677
  34.4045143   1.7665819  64.5467224  35.0201912   2.4905682  64.6608276
  33.5775604   2.1895907  64.3155441  45.4926987   9.8782434  10.3723450
  45.0552063   9.6291752   9.5582218  46.4165306   9.9552603  10.1339397
  82.0960236  17.6540222  70.2790833  81.8401718  18.5361423  70.0095749
  83.0271072  17.5984840  70.0640488  56.4854736  43.9986954  85.9168015
  57.0906181  44.1281967  85.1865540  56.4622955  43.0501823  86.0433426
  34.4759865  28.6119480   5.2212081  35.0650253  29.2536221   5.6180973
  33.6110382  28.8364811   5.5642500   5.7576532  19.9952278   0.8476180
   5.6893435  20.9213257   1.0798039   4.9346013  19.7991943   0.3999697
  33.0492020  46.2716675  50.4319344  32.8047218  45.5841599  51.0514488
  33.0846519  47.0688705  50.9605560  28.6738186  47.1498756  20.4594059
  29.4460220  47.1491966  19.8937778  28.8155479  47.8837891  21.0573330
  10.3756456  40.3329659  12.5651865   9.7811909  40.9875565  12.9317474
  11.2502031  40.6887131  12.7227468  30.8453979   1.2365640  34.5377045
  31.5111637   1.8476273  34.8532791  30.9418030   1.2481323  33.5854416
  14.4956875  60.7737961  88.5307312  14.5766048  60.8837929  89.4781418
  14.5485620  61.6632347  88.1809692  55.8294983  54.5395851  12.6552286
  55.7032547  53.6936455  12.2254858  55.0377312  54.6627617  13.1788368
   1.3430176  60.7006226  34.2775650   1.3049263  60.6786880  33.3213730
   0.4891706  61.0418663  34.5435143  71.1052628  35.8109360  21.3197708
  70.8165207  36.6630478  21.6465111  71.3700333  35.3307610  22.1043491
  10.6697159  15.9401836   5.4182053  10.2759256  16.8123245   5.4412827
   9.9408979  15.3437080   5.5892949  44.9494095   2.8304882  78.5085373
  45.3059082   2.5891397  77.6536179  45.6529312   3.3232987  78.9309464
  71.7888870  34.7236214  60.6547546  72.6025391  35.1880531  60.8509827
  71.4265976  35.1844215  59.8980255  75.6820679  69.8871155  59.5046082
  76.1647491  70.7134323  59.4834480  76.1485367  69.3214264  58.8892670
  12.1695566  60.0140839  23.5044003  12.1926689  60.9579773  23.6617508
  11.6019316  59.6701126  24.1941242  62.4257240  60.8285942  17.4028511
  63.1168823  60.4937630  16.8315182  62.2382240  60.1053352  18.0011635
  56.7828598  60.3528595  88.8560638  57.6148033  60.7537880  89.1077728
  56.3493652  61.0170135  88.3201447  35.2981567  28.9259949   0.4431697
  35.0655403  29.0256538   1.3663114  34.5151520  29.2033825  -0.0324263
  86.7992706  15.8534212   3.8782074  86.7675095  16.6804047   4.3591676
  86.6685944  15.1818457   4.5476413  33.9017715   7.5899525  63.4760742
  34.2033539   6.8775330  62.9123917  33.7476196   7.1749959  64.3247681
   0.0156964  38.3773155  62.1938782   0.2988917  37.8598480  62.9477081
   0.1999407  37.8198700  61.4378738   2.8189309  17.0926476  53.7145157
   3.1045632  17.6307659  54.4528084   2.5760093  17.7242947  53.0375824
  41.8574944  45.5253525  84.8189468  41.0646515  45.9514427  85.1446533
  41.5753517  44.6410904  84.5850525  52.1473427  25.5638237  72.8333435
  52.3901596  24.7771568  72.3450546  51.1968727  25.6221581  72.7362366
  14.8910217  17.3057842   3.8197255  14.4081345  18.0380135   4.2029910
  15.6788616  17.7052517   3.4509890  81.8362579  17.5049210  73.1973495
  81.2185211  16.8270569  73.4714584  81.9435577  17.3649139  72.2565384
  76.4622421  66.3547287  31.0957241  77.3948288  66.1689606  30.9861698
  76.0392761  65.8921509  30.3722935  23.8973293  28.0252285  13.0016890
  23.8465347  28.4311924  12.1363306  24.4822292  28.5959873  13.5000458
  39.0734673   6.9309630  85.1604919  38.4597893   6.8068113  85.8845215
  38.5439644   7.3130021  84.4605637  83.8214035  28.3062954  39.2919540
  83.0489883  27.7438965  39.2343750  83.4876633  29.1888161  39.1306725
  35.6880646  58.2171288   1.9171143  35.4930382  58.9847870   2.4546056
  35.2839127  58.4083939   1.0707633   2.2663534  27.0739346  66.4187241
   2.1272287  26.1403503  66.5777740   1.9824536  27.4996281  67.2276840
  30.5283260  47.7234497  74.7351837  30.4380455  46.7766800  74.6269989
  31.1953392  47.8244057  75.4142532  42.6814423  37.5054207  61.2915268
  42.9166794  36.7091637  61.7678375  43.4629631  37.7193985  60.7819481
  28.4951077  38.1485329  66.1918640  29.4131603  38.3683853  66.0335159
  28.0056038  38.8829308  65.8213501  31.9511604  22.9901104  80.1434631
  32.7144737  23.5110264  80.3929291  31.5467987  23.4840851  79.4302216
  28.3834076   0.7383056  50.3376312  28.4786625   1.5866070  50.7706947
  27.6543732   0.3173456  50.7931900  46.9531517  59.8039856  46.4603424
  46.9895401  60.4528999  47.1630669  47.6197815  59.1586037  46.6955376
  54.2419968  61.3084068  23.5770836  53.5718956  60.6258469  23.6132755
  54.2847519  61.6496849  24.4703541   3.9554038  28.8167534  18.0338955
   4.2824039  29.5692635  17.5409126   4.2320223  28.9823322  18.9351711
   1.0924374  40.5741959  56.8057251   0.4654601  40.9690971  56.1997681
   1.5232987  39.8905220  56.2927132  44.6471176  59.8593788  61.4801941
  45.5922890  59.9907494  61.5551949  44.5564804  58.9937019  61.0819206
  77.5936737  45.4411774  51.3319740  77.2762299  46.3438454  51.3575287
  77.7614365  45.2202568  52.2481003  10.5797720   1.6177301  48.0545921
  10.7483711   1.0577760  47.2967949  11.3589811   2.1694653  48.1228027
  48.1936455  56.3382607  49.0637817  48.1269073  56.1019821  49.9889565
  47.2979164  56.2685471  48.7335625  20.6599045   0.2995501  63.2702179
  19.8731041  -0.0309043  63.7037811  20.4413681   0.2910053  62.3383369
  78.0414581  62.2489891  73.0320969  77.1163101  62.4180717  73.2102661
  78.4524536  63.1130295  73.0594788   8.4980860  45.2966003  52.1505890
   8.8849545  44.4818420  51.8300667   9.1103201  45.9779625  51.8728294
  57.3426704   8.5561123  81.4176331  57.3462906   9.4178123  81.0008698
  57.8336639   7.9968443  80.8156509  71.9721832  57.9080009  60.2973442
  71.8712997  57.5463181  59.4168663  71.2420197  57.5378761  60.7934265
  65.5869217  47.1467323  36.7115021  66.0901489  46.4504776  36.2893333
  66.1913834  47.5261040  37.3494110  83.7628708  58.6369209  30.5960903
  84.3327713  58.8809090  29.8667660  82.8914871  58.9273415  30.3266869
  84.0438004  55.7273598  53.1416130  83.6293030  55.1425667  52.5072289
  83.3202744  56.2377815  53.5052223  64.6200714  10.8795004  77.1970444
  64.5854950  10.9650059  78.1497879  64.9849396  11.7112904  76.8950043
  68.1515884  15.7683687  26.8069324  67.7828522  15.2329521  27.5094929
  67.6860199  15.4847775  26.0201340  65.8427048  51.5460930  23.2076187
  65.8704987  51.1564522  22.3337536  66.7397308  51.8391800  23.3678246
  22.5258198  69.2279129  79.5300598  21.7134457  69.0233307  79.0669937
  22.7233868  68.4351654  80.0288010  56.7036781   0.5357165  42.8583603
  57.3803024   0.7952679  43.4836998  56.7095718   1.2284667  42.1978340
  50.3255157  53.6883049  11.7112684  50.3160553  53.0958214  10.9595356
  50.0495262  53.1440201  12.4487047  55.0387001   0.7426602  78.8528214
  55.2115059   0.4414355  79.7448044  55.9051476   0.9272043  78.4902649
  40.7293930  35.2113113  14.4417229  41.5174675  35.1560783  14.9822035
  40.5526428  34.3068962  14.1828375  81.3575974  34.0424843  41.1874275
  82.0769730  33.9720650  41.8149376  81.7840576  34.2535172  40.3568687
  51.0475883  69.4183884  47.3831558  50.1228218  69.5724945  47.1900482
  51.1060181  69.4763336  48.3368111  20.2065582   6.7112551  21.8758106
  20.3796329   6.1658792  21.1084499  19.2550220   6.8146725  21.8864594
  53.1239738  44.9949760  82.7408295  52.3124847  44.8243027  82.2627182
  53.3364220  44.1599846  83.1578293  26.1706600  20.4290276  69.9375610
  25.3036366  20.5088253  70.3352203  26.1774139  19.5531540  69.5515213
  11.0848961  69.5106201  28.8868580  11.4179831  69.9080124  29.6914482
  10.3459873  70.0642471  28.6343765  56.5859756  45.6536446  53.4406433
  56.5258904  46.2122574  52.6656761  56.2522354  46.1973381  54.1542587
  40.2102661   9.7719831  87.4300690  39.5001640  10.2221994  87.8875504
  39.7943993   9.3943901  86.6550140   6.1123877  54.8758965  15.4234781
   5.3535209  55.1055565  15.9597712   6.0989466  53.9195061  15.3865271
  74.9477005  35.8995590   4.2832046  74.5087357  36.7349777   4.1231594
  75.5417328  36.0769806   5.0125093  41.9346237  71.1444626  13.2795410
  42.7546043  70.8205261  12.9068069  42.1615067  71.9956665  13.6539850
   0.3053759  20.0083370  24.9030609   0.3771025  19.3733616  24.1903934
   0.9828474  19.7462769  25.5264282  68.5139389  13.4732218  41.1239090
  69.0856934  13.7699556  40.4158974  68.7004395  12.5379944  41.2063599
  20.4690933   3.9520466  16.1402550  20.7114468   4.2478685  15.2627659
  19.5391846   4.1657190  16.2167263  43.1081848  51.0786667  17.5231266
  43.8160706  50.5994110  17.9537582  43.0290298  50.6669350  16.6626377
   8.3993263  16.1167297  69.2761688   7.6103601  16.6587200  69.2793121
   8.3458223  15.6205807  68.4593430  16.9404373  33.3201180  73.8600235
  17.0214348  33.3232613  72.9062653  16.9538097  32.3931923  74.0984802
   1.1065506  32.1925926  85.0817261   1.9667451  31.9050274  84.7757721
   0.4902984  31.8126698  84.4555206  80.6517410  54.7007675  82.7698441
  80.8472366  54.8967209  83.6861496  80.7085495  55.5472069  82.3265076
  44.6638031   1.6348875  24.5269547  44.2609482   1.1775061  25.2650204
  44.2110863   2.4775100  24.4913998  66.3126373   3.0744610   5.6722517
  66.0563354   3.6812572   4.9777460  66.9573135   3.5590346   6.1878195
  69.4331207  31.8345375   1.9188846  70.2202148  32.3663979   2.0364888
  69.2468109  31.4863930   2.7908456   8.3300104  22.5078354  74.8690186
   8.6629820  23.1390381  74.2310944   7.6633282  22.0139256  74.3917160
  86.3186493  48.6566010  44.2093277  87.0482025  49.2563934  44.3649940
  86.5164032  48.2531891  43.3641167  82.1602707   4.4353347  22.7733459
  83.0049515   4.7626581  23.0825367  82.3520889   4.0456624  21.9203548
  60.5035858  24.6800842  27.8628082  59.5906868  24.9030552  28.0448189
  60.7506943  24.0854626  28.5710411  51.2677307  36.6561852   2.8021741
  50.6692505  36.3406868   3.4793117  51.8820992  37.2217178   3.2701018
  26.7741528  17.8508034  26.6888847  27.0560074  17.7892818  27.6015759
  26.1359138  18.5641365  26.6828747  63.0295067  65.1338043  64.5944214
  62.9428291  65.7337646  65.3352127  63.5791206  64.4231644  64.9247894
  60.4014931  33.9070320  -0.0025539  61.3221626  33.6452789   0.0064251
  60.1683159  33.9944496   0.9216861  68.7847214  20.9316349   6.4841723
  68.8619003  20.7662563   7.4238138  69.5042419  21.5312099   6.2866130
   5.6621652  30.6219387  44.1802902   5.6299763  30.5102844  45.1304092
   5.5675154  29.7355385  43.8316193  13.0782967  44.7440262  27.6198101
  12.8331099  45.2024803  28.4235115  13.8711720  44.2607002  27.8521423
  24.4695206   2.8360891  50.8684540  25.1222801   3.2873135  50.3331680
  23.6519241   3.3015616  50.6920967  50.3310432  29.3181858  68.6600876
  49.9928780  29.5843487  69.5150909  51.2783089  29.4368305  68.7296677
  61.7641449  15.2779694  80.6001816  60.9279900  15.7427759  80.5680847
  61.5318985  14.3581438  80.4728470  33.2928658  63.7629433  43.8999634
  33.5783043  64.2286148  43.1138954  33.3767776  62.8367386  43.6734009
  53.9412651  37.4934845  78.3405762  53.6914024  38.0692406  79.0632858
  54.8941956  37.4292068  78.4040222  75.5511856  46.3813858  65.8547287
  76.2601547  46.0481110  66.4047470  75.9555969  47.0795021  65.3396378
  47.7625923   1.4422568  15.1863079  47.8330536   0.5195170  15.4308853
  48.0068817   1.9195410  15.9792480  18.0790081  64.1070786  35.7884445
  17.8399162  63.5925255  35.0175323  18.3534184  64.9535599  35.4357376
  19.4665890  59.2807693  83.0646286  20.0129547  58.6650734  82.5761261
  18.5924664  59.1754036  82.6890717  22.2893696  19.7141018   9.4051142
  22.6992016  20.4202747   8.9055252  21.7534142  20.1630287  10.0589104
  71.3162537  50.8888130  63.0778313  72.0657349  51.2631683  62.6148300
  71.7013397  50.4251022  63.8214149  42.3478851  59.3563271  88.6122742
  42.1940651  60.2699661  88.8527603  43.1625862  59.3747330  88.1101227
  83.5670547  26.6454773  24.5872936  82.8699188  27.1667480  24.1891594
  83.2475204  25.7442875  24.5427284   2.9617512   5.5238733  27.7888641
   2.1200817   5.1922808  27.4760227   3.1389611   6.2858429  27.2372932
  14.7616930  39.3613853  46.0807037  15.1283722  40.2376900  46.1984520
  15.0583420  38.8724899  46.8483047  56.2614250  26.9056282   3.1980510
  55.5528069  26.5275688   2.6773193  55.8358383  27.5793648   3.7283201
   0.1158632  63.3872871   0.2675225   0.2804097  64.3226395   0.3870066
   0.6805048  63.1362305  -0.4634920  68.4232788  18.7715378  65.8876190
  68.7306976  18.3633518  66.6970139  68.6729584  19.6915970  65.9735336
  81.2805786  55.9983559  54.5604630  81.0377045  56.2511826  53.6697769
  80.4460144  55.9148216  55.0217209   0.2797148  21.0250816  65.0239944
  -0.3758191  20.6748886  64.4207764   1.0233586  20.4279213  64.9425964
  72.3107071  61.9404449  31.1728630  72.2835617  62.8319168  30.8253307
  72.7778625  62.0216560  32.0043716  55.9896355  59.4827614  51.3269081
  55.3342285  59.8237724  51.9354973  56.4435539  58.8003654  51.8214035
   6.3755436  60.7713776  71.0658493   6.5797038  60.1213188  70.3935547
   5.6891432  61.3123169  70.6753693   3.0989184  44.3363495  23.3349495
   3.4406796  43.9105034  24.1211338   2.5295746  45.0305519  23.6668606
  17.5945911  12.3398409   9.5893698  17.8085022  11.6484623  10.2158422
  16.9593716  12.8900928  10.0475750  74.2490768  21.6010971  60.1952553
  74.2965622  21.6073456  61.1512566  73.5814514  22.2538013  59.9843369
   5.6050620  68.7731247  58.1071815   6.3839560  69.3086548  58.2580795
   5.9465675  67.9394379  57.7838249   6.8765144   6.8365107  19.5386982
   7.3735299   7.3653250  20.1628475   6.8798280   5.9562087  19.9145832
  40.9613609  30.7108784  86.4282303  40.1151009  30.8317223  85.9975662
  41.0638161  31.4881783  86.9773560  18.7904549  43.0459480  16.1422367
  18.7472210  44.0011520  16.0981026  19.0412941  42.8590889  17.0468884
  52.7371712  38.7323151  14.0320387  53.4948502  38.1500778  14.0882101
  51.9970016  38.1889572  14.3024845  49.7619972  61.8122063   1.5050302
  50.1017456  62.1825409   0.6903799  48.8707314  61.5373383   1.2897958
  85.2445679  12.8048239  47.9175262  84.7171249  12.1287413  48.3429031
  85.2023087  13.5522165  48.5140610   3.7331698  25.4646702  55.0929031
   3.9283569  25.6772804  56.0055504   3.1545405  26.1692238  54.8013153
  75.5634384   2.3182380  13.6122723  75.5930557   2.3557830  14.5682764
  75.2647934   1.4301203  13.4165916  11.6436253  54.2899704  49.1569481
  10.9231176  54.0592461  48.5705452  12.4136267  54.3219604  48.5892258
  18.6922741  65.5129700  19.1444931  18.8498573  65.6707916  20.0753498
  18.2127571  64.6849136  19.1197681  66.8659286  10.7816248   7.4517951
  66.0674591  10.3192043   7.7064352  67.4139557  10.1087236   7.0479364
  71.8138885  19.7802677  55.4429817  71.7819443  19.5674934  56.3756866
  71.8943329  20.7337399  55.4174500  13.2088633  25.6718636  73.8077011
  12.8353443  24.8469772  74.1179886  13.9220905  25.8566837  74.4187469
  47.8446312  70.0887604  22.5769806  48.2770844  69.7935410  21.7756939
  48.2355118  69.5567245  23.2700768  63.0859337  38.1115417  22.2147083
  62.2242622  37.7801170  22.4675121  63.4109116  38.5557442  22.9978466
  52.5085678  21.7294216   8.6109228  52.6611710  21.3218517   7.7583795
  52.4290733  20.9932632   9.2175388   5.2534423  41.0153427  62.4448547
   5.7353878  41.7925072  62.1620560   5.7822714  40.6506195  63.1544647
  71.6893158   9.0442915   5.9917316  70.9551239   9.0415716   5.3775735
  71.2818680   9.1481066   6.8516402  70.3170319   5.0226998  60.4861183
  70.0946426   5.8711066  60.1027374  70.3048935   5.1762028  61.4308510
  63.8522720  50.0890312  56.2894859  64.3242874  50.9170685  56.2012482
  64.3981934  49.5632591  56.8740997  16.9613247  44.2775421  41.3363113
  17.4271259  43.6903954  40.7408981  17.2311497  43.9956970  42.2103767
  79.8685303  41.4001045  78.0582428  79.0587387  41.5151863  77.5610275
  80.5649719  41.5799561  77.4266968  51.7898788  36.8240776  22.9398727
  51.3044777  36.7901993  23.7641735  51.8280411  35.9136429  22.6468010
  56.2032318   1.3214868  48.3189278  56.9965172   1.5986141  48.7773247
  56.0896454   0.4047037  48.5696068  53.7997780  61.8797379  85.0865173
  54.4066620  61.6357384  84.3876648  54.3629570  62.1931534  85.7942123
  43.3222084  11.2592678   5.2032638  43.9653015  11.9583988   5.3210835
  43.0392036  11.3450851   4.2928929  72.0583344  54.9640617  82.1760483
  72.6707153  54.7599716  81.4692383  71.6032181  55.7518654  81.8786163
  68.7746048  61.0941963  85.7616425  68.9761505  62.0299377  85.7618637
  68.7927094  60.8450775  86.6856766  68.9304352  11.4068012   9.4228001
  68.1778030  11.4353495   8.8320742  69.1095657  12.3246431   9.6270342
  54.0180054  28.5780125  77.5075760  54.9204979  28.6772594  77.8106995
  53.5134010  28.4197578  78.3054199  58.0793686  51.4062500   8.6895180
  57.6270638  50.6678276   8.2816114  57.6002579  52.1775475   8.3865576
   6.9112959  34.8754654  88.0398102   7.3596263  34.0797882  87.7532272
   6.9762297  34.8562927  88.9946136  20.4110413   6.5218081  11.7822952
  20.1446991   7.0914626  12.5039511  19.6065655   6.3725214  11.2855425
  28.6489410  13.3801317  16.0496616  28.7841091  14.3257990  15.9890394
  28.0992279  13.2659702  16.8249130   8.3582678   6.4471307  88.5678406
   7.6505737   6.3950548  89.2102432   8.9176693   7.1562858  88.8846970
  24.3182068  52.5721245  85.4019928  23.6871014  52.9727821  85.9998322
  24.0777245  52.9089737  84.5388947  68.9069290  61.6932755  40.3677368
  69.2506790  62.5461884  40.1020126  68.4506760  61.8650055  41.1914940
   7.6237035  19.0978794  21.6741829   8.5776701  19.0336704  21.6288338
   7.3828883  19.6274452  20.9140511   0.9877915  39.8096313  15.8447886
   0.8862017  39.0692978  16.4429665   1.2416546  39.4116554  15.0120821
  75.8699112  39.8661652  31.3138046  75.5262909  40.6948280  30.9799252
  75.3886795  39.1949806  30.8299046  20.7350750  32.5468102  29.1603661
  20.8201332  33.4506683  28.8569946  19.7964993  32.4312096  29.3085060
  68.8807678  61.8769531  49.6544685  68.5931931  61.8502541  48.7418785
  68.6403961  61.0199127  50.0065117  30.5651665  22.5277710  71.3615417
  30.8668251  22.4177647  72.2632828  29.6591015  22.8244858  71.4466019
  62.1864815  55.5913277  33.3890228  61.2762527  55.8200760  33.2009010
  62.6724434  56.4030304  33.2433739   8.4058466  16.1389446  48.4932060
   7.8813138  16.5825787  47.8266602   8.0058680  15.2732439  48.5757332
  15.6395864   1.7867870  30.0744896  15.4128428   1.9827944  29.1654243
  14.7992973   1.7696975  30.5325890  45.1870575  38.1115456  60.1276817
  45.4338646  37.2080345  59.9302254  45.5264664  38.2653122  61.0093803
  85.1534424  71.7505035  16.4566402  84.3607101  71.2619095  16.6781979
  85.6897659  71.1273041  15.9665194  11.1038828  47.8551369  82.6889801
  11.8494005  47.4273682  82.2677307  10.8913908  48.5888252  82.1121063
  38.5571823  55.7015533   7.6652260  39.2323990  55.0328407   7.5506091
  38.9464455  56.3339157   8.2692337  26.7364597   0.2129249  40.6873589
  27.1757603   0.6885687  39.9823723  26.1138783   0.8431901  41.0498352
  73.6951599  32.8343964  12.9933329  73.7490082  33.6005898  13.5645418
  73.8928833  32.0938454  13.5666733  49.3979836  12.7710361  20.2348328
  48.9240494  13.6018467  20.1977615  48.7368546  12.1089420  20.0329018
  76.0969162  13.3781643  85.3862686  75.7396011  12.7405663  86.0043564
  75.3291779  13.8356028  85.0434036  83.3405380  44.2259674  15.1515713
  82.7269974  43.5450897  15.4276257  83.1920624  44.3147812  14.2101374
  86.5726318  10.4530563  18.5332966  86.0436096  10.9375811  17.8995724
  86.6364288  11.0375109  19.2886600  74.0320435  44.9644890  84.9323654
  74.3047791  45.1928864  85.8210068  73.7658691  45.7969933  84.5420990
  78.6132355  38.5633698  38.7567635  79.5675964  38.6073036  38.6975670
  78.4047928  38.9917564  39.5869827  44.4076004  55.6214104  12.5116768
  43.7679939  56.3069763  12.7043734  45.0534782  55.6920013  13.2145939
  73.0013580  58.1534424  40.5527344  73.6862488  57.4871559  40.6094170
  72.5937271  58.1521950  41.4188004  35.9044418   1.1343999  38.4589539
  35.5479355   0.2461515  38.4467773  35.9566193   1.3588282  39.3880081
  58.8246460  32.9827499  74.1216202  59.5929680  33.0386429  74.6897659
  58.2234001  33.6430435  74.4662247  16.9011116  63.2066956   0.2053543
  16.4343529  63.1022720  -0.6237801  16.2196712  63.4387169   0.8362551
  83.2166367  51.3828964  19.1216869  82.3158569  51.2842255  18.8133011
  83.1293869  51.7374916  20.0064926  62.5307426  49.4346275  12.7122297
  62.6596413  49.9132576  11.8933716  61.8527336  48.7902870  12.5088558
  60.4182014  39.4675369   2.2176862  60.7620163  39.8123856   1.3936095
  60.3948555  40.2246017   2.8029552   3.1593623  46.8559189  46.5564003
   3.1778789  47.4267998  47.3245087   3.3936479  47.4289742  45.8263664
  72.8245239  53.5335579  64.5964050  73.6863937  53.8667068  64.8462448
  72.8332672  53.5405579  63.6392670  84.4212723  25.5305958  65.9304962
  84.4771576  24.9264393  66.6708374  84.9230576  25.1047497  65.2354431
  41.0403214  70.6277390  52.2794876  40.8738289  71.5654526  52.1835823
  40.4276505  70.3438568  52.9579239  30.6274719  50.5027885  61.2369881
  31.5574856  50.7136421  61.3197632  30.4544029  49.8962173  61.9569550
  12.5485144  15.5251217  23.8514366  12.0523100  16.3426914  23.8913422
  13.1027985  15.5430326  24.6316166  85.1973190  44.2029915  38.0773582
  85.0741501  43.3987541  37.5731087  85.5314941  43.9061661  38.9237976
  16.1493225  44.8047943  74.9612427  16.9334965  44.3833504  75.3129425
  16.1605244  45.6844444  75.3385010  79.6572647  29.7550316  24.7554188
  79.4259186  28.8411140  24.9211426  79.2671127  29.9501495  23.9033985
  52.2515907  31.8966904   5.1419621  52.2456398  31.6540375   6.0678754
  52.0009193  31.0951519   4.6826882  78.2673798  68.0868454  65.1822357
  77.3450165  67.9209442  64.9873962  78.5799561  67.2711792  65.5736771
  12.7390413  12.3081207  63.1998329  12.3600721  12.2688856  62.3217278
  13.4978456  11.7260408  63.1594467  46.3509750   2.1705184  84.0937805
  46.2850952   3.0237212  83.6649017  45.6931343   1.6307111  83.6555099
  59.4612808  12.9899158  66.1647339  60.4158325  12.9303589  66.1258087
  59.1756172  12.1071396  66.3999634  41.4819603   8.6245337  31.6589775
  42.1803932   9.2590294  31.8197098  41.5074348   8.4745626  30.7139416
  67.8637543  34.0512238  73.8403473  68.1222458  33.8354836  74.7363815
  68.3911667  33.4700127  73.2923965  63.4318161  45.4083252  88.4256516
  64.1040649  45.0446320  87.8494186  63.8466568  45.4396133  89.2877197
  57.2358055  53.2719650  62.4872437  56.8095665  52.4149704  62.4980927
  58.1292648  53.0914078  62.1950798  55.8675499  11.6611948  55.7348404
  54.9916153  11.7295952  55.3549843  56.2024117  12.5578823  55.7276726
   6.2471914  10.3214035  10.3161840   6.4312453   9.6117859  10.9316511
   5.3661413  10.1347332   9.9919357  85.6672821  65.1706085  80.5556641
  84.9136200  65.7509537  80.4488220  85.3247986  64.4201965  81.0412750
   2.3599062  61.1815186  75.1302643   2.9349298  61.3650169  74.3873596
   2.6740513  60.3458900  75.4756165  78.5517273   4.0339351   3.6021514
  78.1295395   4.8618040   3.8315465  79.4415283   4.2806616   3.3499522
  55.0117188  12.1507006  81.6338043  55.5818100  12.4414663  80.9219818
  54.2908173  11.6997366  81.1942978   5.7631669  64.7660980  72.4647064
   6.5106792  64.7227020  71.8684082   5.0132728  64.9417419  71.8963470
  74.9191971  20.7244320  33.3620987  75.3587875  21.5344200  33.1034279
  74.1655426  20.6629772  32.7751923  46.3404694  30.1607933  76.5153885
  45.9388618  29.4350739  76.9931717  46.5318375  29.8006783  75.6494064
  81.1369858  58.6950569  29.3526268  80.6821365  57.9760475  29.7912254
  81.0524521  58.4982948  28.4196892  36.6515961  21.2780190  88.6198730
  36.2558098  21.0562935  89.4627380  37.0586891  22.1323051  88.7637634
  36.3341866  58.5409088  12.9498215  35.8114243  57.9166832  13.4531078
  35.9178581  59.3874626  13.1118374  38.7994652  34.9390488  78.9277420
  37.9654922  34.5095062  78.7374420  39.4287949  34.5066528  78.3505020
  49.4093094  51.6671181  39.5909386  48.8479156  50.9140167  39.4067879
  49.7626762  51.9168968  38.7371407  17.7645893  35.9414940  63.3205872
  18.4650745  35.9781265  62.6692734  17.9147701  36.7056847  63.8770866
  21.8677464  59.3660927   4.1938539  22.0753956  59.7387428   3.3369727
  22.7134628  59.2988510   4.6371083  70.0783463  65.8155823  37.6820526
  70.7882385  66.4373169  37.5216484  69.2889709  66.3561020  37.7129211
  59.6677666  32.1432190  70.0727768  59.5661011  33.0907593  70.1625824
  59.3204231  31.9464493  69.2027969  73.9784088  52.5328369  25.5718288
  73.6507645  51.6785316  25.2906685  74.3498993  52.9196548  24.7789898
  16.4938259  68.2249985  89.0531235  16.2272854  69.0258179  88.6015854
  17.0093327  68.5310364  89.7993317  55.0754356  68.2143631  85.8848114
  55.6439972  68.8675842  86.2925720  54.2109146  68.3815689  86.2601471
  58.8197937  -0.1139476  13.6068115  58.4652290   0.3138491  12.8273840
  58.8650627   0.5820603  14.2623692  38.0436707  69.5905685  14.8120852
  38.1560173  70.2578583  15.4890833  38.0747948  68.7600250  15.2869148
   5.8501768  35.9268761  75.0609665   6.6214819  35.4228287  75.3203049
   5.7666125  36.6008873  75.7354736  81.9890747  48.8711586  26.4492188
  81.5607071  49.2459450  27.2188110  82.0532074  47.9358711  26.6424961
  84.2558136  68.3368683   4.3683457  83.7482071  68.9617920   4.8860674
  83.7211685  68.1806412   3.5898991  70.2171631  22.8206310  15.1625462
  71.0803833  23.2224560  15.0644140  69.6070862  23.5581455  15.1521864
  15.5205050  51.1061859  16.2155647  14.9734907  51.2237625  16.9922123
  15.1220589  51.6718178  15.5541019  30.1316051  64.2342072   8.7586927
  30.8844738  63.9227104   8.2563057  30.1019611  65.1754150   8.5870333
  29.8906002  49.4681702  43.0937157  29.9544106  50.2391319  42.5299950
  30.7516899  49.4012566  43.5063667  85.2608414  19.5740967  56.0402412
  85.4490662  20.3319054  56.5938911  84.7305374  19.9257336  55.3251419
  59.4575119  22.6161671  79.4215164  58.7590523  22.2288570  78.8938980
  60.0235100  21.8783302  79.6483994  74.6200409  51.3808823  70.8144760
  73.6660080  51.3379364  70.8793640  74.7834244  51.9094696  70.0333710
  59.6489029  22.5237331  54.5401001  58.8463936  22.8505898  54.1334381
  60.3522339  22.8527660  53.9803696  34.3237686  45.6847229  81.3489075
  35.0175705  45.7661362  80.6945038  34.7791061  45.7409744  82.1889877
   6.7252684   8.7763405  62.4079971   6.6293941   9.3572531  63.1627045
   7.6094980   8.4193707  62.4913177  24.8430996   5.2854886  17.7442093
  25.0113945   4.6227784  18.4140778  25.3672066   6.0390153  18.0157623
   1.5427095  27.1241207  14.2679100   1.3774568  27.8010292  14.9242010
   2.4627552  27.2400894  14.0306358  40.8957672  61.8946877   7.0201321
  41.0450325  61.3424530   6.2526760  41.3379250  61.4362946   7.7346992
  52.9591255  69.1420898  72.2282486  52.7925987  70.0737228  72.0848541
  52.3052673  68.6962509  71.6897964  60.9930038  -0.1596563  58.0047073
  60.0387573  -0.1858817  58.0751534  61.1962242   0.7622039  57.8462563
  63.5377846  22.2810001  48.7064095  64.4074097  21.8810272  48.7035942
  63.6754417  23.1508503  49.0814323  84.5480957  33.3481216  88.1182938
  84.2969284  32.6573792  88.7315063  85.4731522  33.5088959  88.3044357
  51.0265541  19.8708115  88.1264496  50.2749748  19.9052258  88.7182083
  50.9665833  20.6782627  87.6159058  48.9807129  51.1612244  26.3322659
  49.7746315  51.6957207  26.3169270  49.2954636  50.2689323  26.4771061
  47.0155411  69.8451004  18.4267807  47.0943260  70.7466049  18.7387276
  46.0793953  69.7287369  18.2645454  77.1556549   1.5842462   4.4164062
  77.4281387   0.7633709   4.0063491  77.4518890   2.2641585   3.8112664
  85.9730911  70.3629303   3.1511126  86.2497025  70.8083954   3.9519119
  85.6102524  69.5303116   3.4533174  50.7984467  27.8137913  28.0110531
  50.0319786  27.3250885  27.7111759  50.4363022  28.5990715  28.4214401
   0.6575577  66.3908539  89.2608261   0.0211039  67.1019974  89.1870804
   1.2386343  66.5106277  88.5096664  53.7719269  41.8352280  18.9060688
  53.5760460  41.9932671  17.9825497  54.0550079  42.6864777  19.2399445
   5.1176400  40.3781738  46.1490364   5.0665097  39.4241219  46.2074089
   6.0069647  40.5882492  46.4339943  33.0502586  59.9208565  32.1275749
  33.8063049  59.3813744  31.8960896  33.1768303  60.7334061  31.6377029
  38.6180763  49.9531479  61.5392723  38.1002426  49.6953888  60.7766151
  38.0076675  50.4458084  62.0878334  19.9131355  24.0852757   2.3386838
  20.7589931  24.5331459   2.3516557  19.2834454  24.7692299   2.1108022
  35.2497139  67.0218735  19.3558636  36.1956215  67.0412750  19.2105560
  35.1256752  67.4796600  20.1872940  76.6108627  17.4230671  71.0718002
  77.1795807  18.0720177  71.4861069  75.7235184  17.7407799  71.2388611
   6.2843900  52.8767586  54.2525177   5.3351960  52.7827835  54.1723175
   6.4784851  52.5933990  55.1459732  33.8926201  56.4593353  18.4674568
  34.0832977  56.9702034  17.6807632  33.1517639  56.9104424  18.8722591
  38.1092911  38.7135658  61.0470238  37.4423027  38.6155548  61.7265472
  38.9076424  38.9370155  61.5254936  59.5861244  19.2356396  65.5580750
  60.4438248  19.1376095  65.1445847  59.7440529  19.0509377  66.4839096
  72.3473740  39.3702126  44.0710449  72.9578171  38.7908401  43.6150627
  71.7201233  38.7782631  44.4862289  41.1973419  10.5665922   6.7607360
  41.9880943  10.6563168   6.2288647  41.5112190  10.2371483   7.6028633
  36.8489799  23.9988403  13.4061775  36.2779961  24.7570648  13.5298967
  36.5666733  23.6196976  12.5738401  44.9770889  67.6038208  43.7713242
  45.3738022  68.0602493  44.5132942  44.0356369  67.6480942  43.9384766
  66.7608185  35.2595520  70.7135086  67.3308640  35.5862312  71.4096222
  66.3307953  34.4943924  71.0953979  53.2858200   3.3663256  68.1145935
  53.7899742   2.6088061  67.8175659  52.4094658   3.2263634  67.7559204
  75.7696609  51.1785774  22.9658546  75.1669006  51.9207420  23.0117626
  75.2554626  50.4767418  22.5667839  43.2688293   6.7048516  10.9171429
  43.9676514   6.4137678  10.3313522  43.6957741   7.3223124  11.5110207
   2.6842213  44.1031036  35.8956680   2.6557486  44.3111038  36.8295631
   2.9995852  44.9060898  35.4809494  39.3344574  61.9395180  56.4960899
  40.1395493  61.5407906  56.1658249  38.6835632  61.7628555  55.8168564
  74.6823120  16.2612057  84.2849503  73.9776077  16.5693092  83.7151184
  75.2894974  15.8146343  83.6949234  42.8361511  66.4322281  65.4853439
  42.6403046  65.6536865  64.9640503  43.4677620  66.9210663  64.9577789
  60.2365685  41.5563736   7.3026924  61.1885948  41.4624214   7.3351545
  59.9025345  40.6841927   7.5123363  85.9437332   1.8664998  71.0828934
  86.4369202   2.1088192  71.8666534  85.7775345   2.6975782  70.6380157
   6.7942371  50.2133484  88.8119431   7.6400132  49.8010406  88.6361694
   6.2507415  49.9746284  88.0610352  71.0156174  14.6373749  70.2050934
  70.9573135  14.1436901  71.0230865  70.6975098  14.0310440  69.5362091
  18.2401943  57.9081955  26.0863705  18.8414497  57.4540482  25.4960518
  17.4636917  57.3491631  26.1139259  67.0754395  15.3656082  24.1138306
  66.3193741  14.8046732  24.2869167  66.7598267  16.0016327  23.4718857
  15.3469048   8.8192701  81.8935242  14.9564714   8.6472111  81.0366745
  15.9853821   9.5135889  81.7307358  60.9707527  35.2320671  72.3929138
  61.5437622  34.6736526  72.9183350  60.7495728  34.6978722  71.6300583
  21.7511616  66.2312546  61.0769386  21.8391743  65.5640259  61.7575912
  21.6871319  65.7343750  60.2613144  70.8147964  41.2319641  53.8525581
  71.0927200  40.3206215  53.9444656  71.5640564  41.7429085  54.1587753
  70.1131287  60.1883736   3.1492276  69.7848587  60.6591568   3.9152765
  70.0258713  60.8126602   2.4288933  74.2825546  54.2127953  30.3620281
  73.8410034  55.0540619  30.2456970  74.3050613  53.8307648  29.4846592
  31.5352211  66.6336441  23.0675526  31.0887375  66.3592911  22.2665443
  32.4038544  66.2363052  23.0056839  50.6139984  54.9210854  17.1227627
  50.1706772  55.3712463  17.8418274  50.0403214  55.0526276  16.3678951
  49.3983231   0.8961850  25.4791050  49.1596375   0.1956965  26.0862122
  48.5915070   1.3980670  25.3633575  71.4738998   8.6116896  11.0524902
  71.6831741   9.2975426  11.6865597  71.5724716   7.7949505  11.5418291
  23.9541340  47.1248627  35.0859909  24.4482269  47.2861519  34.2821922
  23.0744781  47.4509163  34.8959160  58.1497154  68.2218018  29.1882114
  58.3765182  67.8985291  30.0601540  58.3493652  69.1574020  29.2202225
  62.5513153  16.3386173  43.4670181  62.3679619  16.2697601  44.4039650
  63.5011597  16.4455490  43.4160652  17.3859577  24.3256149   5.6593580
  17.6126289  24.0451145   6.5460210  17.5972805  23.5719776   5.1083527
   8.2518368  52.9387970  73.1978378   8.6927834  52.4016800  73.8560944
   8.8021936  53.7177162  73.1164551  17.0670338  61.8062553  71.4435883
  16.9409714  61.9386406  72.3831711  16.8594322  60.8826523  71.3018646
  66.8957291  71.2355270  30.3847485  66.6107483  71.8795242  31.0330448
  67.5860519  70.7406769  30.8261318  49.4571877  47.4187393  77.7700500
  49.4917221  47.5741577  76.8261795  50.1883583  46.8254013  77.9420013
  63.9170265   9.2691240  53.1491470  64.8451538   9.4418287  53.3072319
  63.5012627   9.3952913  54.0020561  35.4403381  54.6823883  71.6681671
  35.5821457  54.7789421  70.7264633  35.7514267  55.5063972  72.0429535
  24.7694874  68.7373199  75.0932922  24.2016945  68.6232224  74.3311691
  25.5528908  69.1642609  74.7465439  75.8956757  17.9421940  19.7411442
  76.1813126  18.6073799  20.3673782  76.6577225  17.3733997  19.6316357
  80.6352310  28.0053539  19.7275658  80.4893570  28.8784771  20.0917187
  80.9274673  28.1658249  18.8303032  48.7639008  21.5056877  34.5215683
  48.9377022  20.6317596  34.1718864  47.8128662  21.6001835  34.4683418
  41.3481827  58.8009491  85.1129227  41.4695549  57.9593353  84.6733932
  41.1247864  58.5702209  86.0146408  56.7549019   9.0834017  84.1100159
  56.9887276   9.0877438  83.1818314  55.8962936   9.5052547  84.1426926
  52.7180595  37.8662987  20.4482746  52.1881142  37.8451576  21.2451077
  53.2358589  37.0620155  20.4835911   3.0042605   0.9163275  20.7061119
   2.3790107   0.8084732  21.4228134   2.4839962   0.7877477  19.9130001
  29.7239227  25.0026093  84.1077499  29.1004963  25.2594299  83.4283295
  29.7501221  24.0469646  84.0599136  62.2661896  40.3033447  67.9001160
  62.1234131  41.0985985  68.4133606  62.5548630  39.6534042  68.5408020
  69.5313797  11.3365002  82.4967041  69.1281815  11.1126823  83.3354950
  69.1484451  12.1826344  82.2650833  53.2597771  19.0268459  27.8740101
  53.5726509  18.4161968  27.2065907  53.3926277  18.5653591  28.7020264
   3.2639854  27.1957588  83.5893478   3.0396674  26.2668304  83.5345154
   3.4588845  27.3408451  84.5151978   5.4852443  67.4435196  14.7143431
   5.4663157  66.8924637  13.9319038   4.6337037  67.8806458  14.7200928
  70.2463303  55.3088989  19.2595711  70.9804764  55.7328415  18.8151264
  70.0887604  55.8512077  20.0324287  26.3301048   5.0331979   4.7015128
  25.9595108   4.6171570   3.9231799  25.7336235   4.7906075   5.4097443
  79.7407684  34.0655060  85.4439621  79.8359909  33.3352661  84.8324738
  79.1088333  33.7543335  86.0920792  47.2315102   1.4100472  80.1844940
  47.2081985   2.1351933  79.5601120  46.4226990   0.9255565  80.0191956
  85.7308655   3.8307021  65.9188690  85.2330399   3.7497344  66.7324066
  86.0158920   2.9382377  65.7226562  28.6577148  24.4571495  55.8188667
  29.2851048  24.9775257  56.3206863  28.0309906  25.0972996  55.4817314
  19.2612095   3.7695529   4.8126526  20.0131741   3.7876573   4.2206602
  18.6248207   4.3601532   4.4096255  14.2778826  57.6737099  79.2342453
  14.0077543  57.1009560  79.9520340  13.6857500  57.4524536  78.5154572
  56.7494736  66.5377731  13.0203981  56.3959351  67.1302338  12.3568974
  57.2256622  65.8749084  12.5203075  16.9870548  18.8572922   2.7208331
  16.6500416  19.4051819   2.0119817  17.9143314  19.0870228   2.7809634
  49.7089424  14.8471107  36.1883278  50.4458809  14.9659357  36.7875252
  50.0252953  14.2161474  35.5417709  36.6934166  50.1912613  81.0855103
  35.7639160  50.2127914  81.3131104  37.1462364  50.3620834  81.9113464
  50.7729149  71.0386200  89.0616608  51.0644150  70.2621994  89.5395966
  50.0817642  70.7178040  88.4823303  41.2098503  42.1448936  63.9491158
  42.0392342  41.8026009  64.2825699  41.0859108  42.9705048  64.4173355
  12.2144299   2.0877230  26.6133595  11.6163969   2.8164933  26.7791367
  12.3540401   2.1030860  25.6665192  68.6581650  61.0062981  77.9549026
  68.3952789  60.4506569  78.6886520  69.0687637  60.4046059  77.3339233
  58.1814194  11.6861019  73.2089081  58.6633987  12.4537125  73.5166473
  58.0367470  11.8517542  72.2773132  30.9335709  22.0052586   2.3240893
  30.4692497  21.9610481   3.1599627  31.1370564  22.9338341   2.2119606
  48.9690361  71.6211166  45.2727928  49.2920189  71.1698990  44.4928436
  48.6986351  70.9169769  45.8621178  47.1896973  27.6473064  16.1912479
  46.7802086  27.0437260  16.8111191  47.9094772  28.0433254  16.6824913
  12.1304226  12.4166031  57.3992805  11.2242603  12.6136980  57.1620979
  12.3399582  11.6233873  56.9061928  53.9638786   7.5973768  54.0549583
  54.8523102   7.6019697  53.6987343  53.4471817   8.0885763  53.4162254
  80.9336548  62.6386452  46.4677429  81.6610107  62.9177322  47.0238876
  80.1525421  62.9699669  46.9108200  55.0855408  35.0592194  16.0616131
  54.5293312  34.2826729  16.1235905  55.4450989  35.1671867  16.9421196
  41.9799614  23.9999046  83.9957504  41.7446442  24.8604622  83.6489105
  41.3562393  23.3987942  83.5884781  68.1230240  33.8748283  82.2896881
  67.3867950  33.9802742  82.8922501  68.0530930  34.6202774  81.6933212
  57.8228073  43.2796707  47.8129730  57.4898834  43.5592003  46.9601784
  57.6620255  42.3363342  47.8353653  80.8336029  62.0206909  51.5581779
  80.3036270  61.3255806  51.1680832  80.9607162  62.6513519  50.8494148
  41.8555946   4.7967730  71.5846252  41.2629814   4.4073520  72.2275848
  41.5745277   5.7096233  71.5218811  39.8010712   7.1526365  72.2327042
  39.5438690   6.2472234  72.4067841  39.6849174   7.2572751  71.2883530
  45.2144814  20.9756031   9.6864767  44.4719353  21.1252346   9.1012697
  44.8210411  20.6380596  10.4911518   7.9952130  44.8463860   5.3828721
   8.1344137  45.7735100   5.1897449   7.0924978  44.8002510   5.6978469
  78.6106491  41.1519623   4.0378408  77.9864273  41.8561058   4.2132416
  79.3077316  41.2842903   4.6803293  76.3814621   0.6041984  10.7077246
  75.7251816   0.0426877  11.1203127  77.0016708  -0.0058133  10.3084030
  16.9551125  42.4182320  30.3947220  17.6351280  42.4006538  29.7212944
  17.4174175  42.2129364  31.2073460  12.4307489  15.8691206  11.1636562
  12.6568155  16.7991047  11.1476412  12.8675280  15.5031796  10.3945370
  86.6139832  11.0264692  46.4547539  86.6230011  11.5836878  45.6765137
  86.2170944  11.5709829  47.1346169  17.6096039   6.6428490  29.9336605
  18.1264076   5.8486810  30.0694618  17.3261223   6.8972187  30.8118210
  32.7875710  41.4375381   2.8676240  33.0130539  40.8588982   3.5960255
  32.9110146  40.8984070   2.0863855  60.6614876  28.9658623  55.2860336
  61.5989838  29.1398830  55.2020912  60.5486832  28.0844688  54.9301491
  80.2524414  64.7379379  49.9872780  80.4695053  64.6652908  50.9167061
  79.3388901  64.4575729  49.9320526   1.3058672  14.3763905  27.5860882
   1.3189275  13.9682217  26.7203732   1.0474881  15.2828989  27.4196091
  26.6558304  17.7159290  32.2088776  26.8781109  17.8455257  31.2869072
  27.0054359  18.4898052  32.6506081  26.9258595  58.1785927   5.6785426
  26.3140793  57.5211945   6.0098853  26.9403820  58.8550644   6.3555970
  26.8939857  13.0186110  73.9392166  26.6770134  13.0203257  74.8714981
  26.2965603  13.6590919  73.5530853  72.8279572  55.0083961  35.5926666
  71.8732529  54.9535370  35.6346436  73.0953293  54.1999092  35.1555214
  63.3410950  32.7007370  12.9983244  63.2975693  31.7907887  13.2921486
  62.4267273  32.9781799  12.9418373  35.1289024  52.9813118  79.0575867
  34.7287216  53.4966850  78.3572464  34.6122818  52.1760559  79.0875626
  38.6103554  49.6841888  44.3829155  38.6033859  50.1586342  43.5516014
  38.1927910  50.2817497  45.0032349  46.1334534  55.3246155  14.6156492
  46.0102081  54.4183311  14.3333492  47.0435143  55.3621559  14.9099455
  71.0239410  69.6618423  15.4117746  70.4491043  69.1330490  15.9651041
  71.0606766  70.5126953  15.8487320  18.1388054  63.8146210  46.7817345
  18.4188404  63.7770157  45.8671837  17.2395706  63.4867783  46.7705498
  77.4673767  17.7903042   4.0743017  78.1395035  17.9841900   4.7276654
  77.4533234  18.5624237   3.5087345  55.8606682  46.4025917  87.3231430
  56.1308365  45.5399704  87.0083008  56.3931084  46.5498085  88.1048508
  83.3407059  54.0880318  51.1204643  84.1253815  53.7871017  50.6622581
  83.1577682  53.3994865  51.7597427  25.2670383  37.1268463  63.9927788
  24.4680843  36.8265533  63.5595016  25.1182880  36.9467239  64.9210358
  44.6315994  48.8688812  63.9127274  45.4439278  48.6266251  64.3573303
  44.1140022  49.3126564  64.5845795  67.3092270  56.8633995  65.3130646
  68.1189880  57.3367882  65.5039215  66.6662674  57.5501480  65.1364288
  35.0660400  54.0743904  35.8250237  34.6878128  54.7472153  35.2589149
  35.2802658  53.3546524  35.2314606  11.9593163  10.4107838  24.3071556
  12.7778015  10.4147797  23.8108711  11.7010202  11.3314533  24.3505344
  21.4266491  21.0799618   0.8112312  21.3958263  20.2952156   0.2640069
  21.3801727  21.8069382   0.1902817  31.3768635  20.7939949  69.5317917
  31.2348595  21.6416245  69.9532089  30.5626202  20.3132153  69.6804199
  76.4724503  11.8198891  47.1190758  75.5404358  11.6421480  47.2455101
  76.5500946  12.7693148  47.2128563   8.3887768  25.3041897  13.7745028
   8.1228456  26.1763573  14.0657711   8.3145590  25.3372116  12.8207550
  38.6736259  68.7717896  75.2324600  38.5759888  68.5078430  74.3175659
  37.7975922  68.6724701  75.6051941  21.0626183  69.8760071  45.8940392
  21.9744034  69.5857925  45.8684502  20.5603218  69.0747986  46.0423355
  49.8432465  24.0582790  23.7501907  49.1577950  24.7161465  23.8668118
  49.8063011  23.8362198  22.8198376  44.5811005   4.1101780   1.4143250
  44.7671242   3.1727509   1.4677815  45.3793373   4.4923487   1.0496404
   4.0396280  60.2427673  11.9409523   3.3699663  60.7198868  11.4509068
   4.8233433  60.7874947  11.8681707  44.0329857  38.9390907   7.3601131
  43.4547997  39.3042564   6.6903477  44.5743790  39.6779823   7.6379008
  49.0428276  69.3355560  35.4244194  49.4127197  70.2068634  35.2821617
  48.1328773  69.4118652  35.1373634  65.5948257  67.1675797  42.0080299
  64.6773605  67.0104904  41.7848434  65.6609116  68.1185989  42.0941887
  72.4406052  52.9041252  46.0905418  71.5076523  52.9383507  45.8792076
  72.8731232  53.2890587  45.3283157  22.9688358  66.0238571  11.0389099
  23.8656826  65.7631149  11.2484608  23.0247936  66.3843994  10.1539736
   6.8846803  15.3557053  88.9049149   6.1847568  14.8283463  88.5199051
   6.5367808  15.6335583  89.7522583  83.6595612  38.4389763  71.4896393
  84.5772476  38.4901695  71.2223129  83.2138672  38.0420990  70.7412567
  47.9269447  35.3376350  17.0897751  48.1705284  34.5265694  16.6436062
  47.5700607  35.0507278  17.9303398  81.6645279  59.5476990  66.9505005
  80.7724533  59.8921700  66.9926071  81.6251526  58.8616409  66.2841568
  59.1867867  52.2943878  81.1355743  60.0205650  52.5101814  81.5532837
  58.8300743  53.1395073  80.8621445  69.3276138  70.2796478  75.7757339
  68.5271378  70.6617126  75.4158859  69.0529022  69.4309540  76.1228409
  10.8311415  32.7620163  17.4101315  11.7449551  33.0469208  17.4075279
  10.7986526  32.0556335  16.7649975  60.0234947   9.3881464  54.4973640
  59.5824471   8.5624666  54.6972733  59.6215630   9.6826286  53.6800766
  35.8839684  70.7127304   6.2253184  35.5753670  70.6481781   5.3215318
  35.1439781  70.4125748   6.7530956  53.4367142  58.5272980  86.3516617
  54.2280884  58.9586792  86.0293732  53.6362953  57.5924644  86.3018188
  46.8534889  48.6754227  70.5617676  46.3658752  47.9918823  71.0213699
  46.5713120  48.5992508  69.6502838  84.0440674  38.0226936   4.2922487
  83.3518524  38.4907074   4.7591867  83.6009598  37.2720490   3.8967462
  67.0749207  70.1134262  26.4217682  67.8973007  69.8781357  26.8513680
  66.5059891  69.3566742  26.5627308  39.0082321  11.1457424  70.3366928
  38.7499809  11.7710924  69.6595840  39.4772911  11.6730309  70.9833603
  76.5491867  19.1288013  26.1342545  76.8425598  18.7217255  26.9493961
  76.2026443  18.4029999  25.6152630   7.1701198  64.6719666  54.8280487
   7.2970419  64.3093109  53.9513474   6.9262662  63.9186363  55.3658752
  41.4751282  53.8314285  66.3867493  41.9312134  53.7279358  67.2219162
  40.6915970  53.2883797  66.4728317  67.7999115  42.8658409  28.5648422
  67.0048981  43.3972397  28.6073399  67.4893875  41.9874001  28.3454170
  31.9461918  49.6430206   5.5844841  31.5590553  49.8190231   4.7269402
  31.2685642  49.1613617   6.0588861  38.4994926  50.4067574  83.1963577
  38.2016144  50.6874886  84.0616226  39.4225502  50.1860390  83.3207855
  68.7315750  41.1597328  14.5734186  69.5105286  40.6812096  14.2897263
  68.1269150  40.4791946  14.8691998  64.8073349  26.3870773  29.3152714
  64.0186081  26.4639778  28.7783947  64.6430740  25.6280785  29.8748894
  68.6978836  35.9525604  19.3243179  67.9052353  35.6215324  19.7466393
  69.4020386  35.7409248  19.9371891  56.4846992  17.6394463  29.4240150
  55.5814285  17.4515610  29.6790352  56.9173851  17.8881454  30.2408142
  85.6689606  54.2052803  23.9447269  86.5015945  53.7898293  23.7203350
  85.3999481  54.6516228  23.1418304  14.0882387  24.2510548  61.1024742
  13.9026928  25.1890926  61.0589981  14.9389458  24.1550789  60.6743164
  14.1568213  42.2796173  88.6973724  13.9140053  42.5726242  89.5756760
  14.8677692  41.6550522  88.8412552   3.5362535  46.2343597  28.3208466
   2.7294452  46.7412987  28.4119949   3.2418821  45.3262787  28.2503891
  67.1238480   7.1831946  54.6456680  67.4993134   6.8687229  55.4680786
  67.1521225   6.4238162  54.0636215  10.3988037  70.4609604  20.3310432
  10.9970512  69.7909851  20.0001850  10.0834951  70.9091721  19.5462360
   6.4497619  19.1467381  45.0495186   5.9367228  19.7941952  44.5659676
   7.3373618  19.2369804  44.7027397  55.9067917  30.1983280  89.0202637
  55.8016815  29.6694260  88.2294159  55.1701126  30.8091507  88.9995651
  15.3218994   4.2594075  52.9626808  15.3321762   3.3526728  52.6561546
  15.6727591   4.7642460  52.2290154  79.6840363  21.3749733  50.2868347
  80.1215744  21.9701996  50.8955193  80.3931580  20.8543549  49.9095612
  74.7457275  65.0860596  72.1896057  74.7915649  65.5064697  71.3308945
  73.8691864  65.2953415  72.5122604  64.2618408  68.8963547  71.4158478
  64.6115570  68.1036987  71.0088730  64.6900787  69.6140823  70.9492569
  18.6848965  26.3796883  77.0092087  18.9675617  25.4820194  77.1839142
  17.8376560  26.4537830  77.4484406  34.3946152  65.2082901  27.8353729
  34.5539703  64.7713623  28.6719933  33.4654274  65.0591507  27.6604404
   3.1395626   7.4056807  24.6549892   2.3445060   7.7381120  24.2383270
   3.5538986   8.1811867  25.0333366  47.9109306  31.3320961  81.5464706
  48.4310150  30.7860432  82.1360245  47.2506638  30.7379341  81.1897507
  18.2232456  54.0507736  39.8832893  19.1035404  54.3660622  39.6785812
  17.6425037  54.7495384  39.5821304   3.6797135  14.2380857  40.2175827
   3.0218494  13.7142162  39.7604103   3.2150152  14.6013994  40.9714355
   9.9522800  47.7550392  50.9161224   9.4099913  48.5226517  50.7346611
   9.9425430  47.2563629  50.0991402  33.9012871  22.0365677   3.6580460
  33.7530022  22.4952793   4.4849844  33.1037102  21.5252628   3.5214131
  85.2224350  62.2978554  15.3905687  85.4847183  61.4375687  15.7182093
  85.7322388  62.4144402  14.5888548  64.7433395  68.0020905  45.4481812
  64.9031448  68.0809631  44.5077133  65.2089539  68.7444534  45.8333206
  14.8743372  36.8043671   9.9158554  15.4572916  36.7172852   9.1616592
  14.1861649  37.3998680   9.6191549  33.5207062  58.5602417  16.7489853
  32.5713005  58.6488991  16.6652870  33.7809677  59.2909164  17.3098888
  44.8500061  51.8703117  67.3223267  44.4656105  52.7453842  67.3744583
  45.6617355  51.9349174  67.8254700  33.0452080  41.8410606  64.0726700
  33.4478683  41.3713684  64.8030701  33.7575836  42.3607292  63.7002449
   0.9136263  12.6559982  53.3034286   1.2689294  12.4246063  54.1615944
   0.9275324  13.6129808  53.2885551  53.8835411  34.1799850  37.5513306
  54.5351028  33.4795876  37.5851326  54.2975845  34.9143639  38.0046387
  52.4675941  41.0459290  86.9894028  52.1287613  40.4232941  86.3461685
  52.9089813  40.5009308  87.6408539  31.1558743  53.7234917  13.3794146
  31.0671864  54.6471291  13.1443396  32.0271606  53.4794502  13.0671043
  24.9359665  41.6500320  10.8537788  25.6555119  42.2785873  10.7954464
  25.1307831  41.1349297  11.6366892  57.9959221  58.1344032  67.8811569
  57.4775047  57.5621414  67.3154755  58.2760925  57.5694122  68.6012421
  62.4061661   5.8346038  49.0491791  63.2166290   5.3764358  48.8267670
  62.6371269   6.3777122  49.8027840   9.1780405  16.3866100  87.7610626
   8.4144249  16.0313740  88.2159576   9.4289036  17.1530380  88.2767029
  21.1221581  51.7745667  86.3044205  21.0861893  50.8195648  86.3583374
  21.4897518  52.0482292  87.1447906  82.5925827  47.2752991   5.9792628
  83.3277969  46.7813873   5.6162963  82.5081711  48.0361366   5.4046025
  34.6697769   9.4573097   6.4000134  35.5997467   9.2522354   6.3034353
  34.5972061   9.8329496   7.2774301  35.6428986  55.2110825  28.1525383
  35.1798782  55.8675117  27.6320114  36.1666718  55.7211838  28.7703476
  40.2713890  41.3368759  44.4926414  39.5953560  41.2798920  45.1678886
  41.0452232  40.9420471  44.8945351  46.1455803  35.7889938  60.9155846
  45.5562477  35.0762482  60.6687737  46.9123497  35.3493919  61.2830734
  65.0934219   3.7231133  85.0171127  64.6827774   3.8070474  84.1565552
  64.4429169   4.0698147  85.6277466   2.9792664   9.7552671  31.1508255
   3.9256496   9.6331320  31.0755043   2.8792405  10.4684010  31.7814350
  20.8864384  17.2312527  20.1360264  20.0071716  16.9211617  19.9193134
  20.7498398  18.1093693  20.4916706  32.8689003  20.0635509  71.7372818
  33.7398529  20.2230930  71.3736649  32.2667427  20.3334427  71.0438919
  16.3198242  20.6481514   0.6649277  16.2416706  21.1559219  -0.1427179
  15.4225416  20.5762634   0.9904229  65.9416199  50.9097786  19.0376167
  65.3402710  51.6349487  19.2071514  65.5162506  50.4025192  18.3462563
  57.0901604  48.0017700  32.5286789  56.5921021  47.1901665  32.6259880
  57.9984550  47.7461472  32.6895752  73.8858414  56.5743942  54.4247856
  73.2405319  55.9013367  54.2084389  74.0133286  56.4890900  55.3696136
  47.5065880  51.6200600  54.1402550  47.7800560  50.7186127  53.9704361
  47.1529350  51.5995789  55.0294914  14.6451397  63.9000015  73.8135605
  15.4352541  63.7368851  74.3286743  14.9551592  64.3778458  73.0442810
  27.6295242   7.1779127  84.9928513  27.9996605   7.6142879  85.7601852
  26.8747330   7.7152963  84.7525558   0.4162905  66.5904846  10.3226080
   1.2888759  66.7638626  10.6758299   0.2590257  67.3085938   9.7095661
   3.5486465  44.2083397  63.0887604   4.0100017  44.3849373  63.9086380
   2.9019694  43.5405045  63.3168755  73.4358368   1.6767023  15.5558176
  73.2145996   2.6070740  15.5146704  72.7856827   1.3019588  16.1500359
  29.1042213  62.3841095  81.0101852  28.4106140  62.6915474  80.4265594
  29.2147884  61.4603691  80.7850037   1.5033103  63.7131996  29.4269199
   1.6294113  63.4037209  30.3238888   2.3818245  63.9497185  29.1294250
  19.5066433  55.9904251  57.9222870  20.2916565  55.7082901  57.4528351
  19.3535671  56.8847046  57.6172218  56.2944603  32.2515106  59.2146072
  55.4490356  32.3459167  58.7757721  56.8945389  32.7877159  58.6963196
   3.0496445  26.2816105  30.6775894   2.1158998  26.4652309  30.5744553
   3.4849858  26.9488506  30.1470203  45.3390579  45.8606796  29.1434784
  44.8093987  45.8236847  28.3470325  46.2125702  46.1066399  28.8389950
  50.6404686  17.7249622  25.8310356  51.2585793  17.9487038  25.1352577
  49.7793045  17.8022614  25.4203606  79.5317612  23.3576984  33.7400360
  80.2923737  22.9070396  33.3731499  79.4494934  24.1543503  33.2158127
   5.9142613  57.8985405   5.9145451   6.8274336  57.6141434   5.8762522
   5.8288116  58.5268440   5.1974955  53.5367355  66.5174637  35.3187981
  53.1576500  67.3448715  35.6152992  52.9425583  65.8471985  35.6563339
  74.9421539  56.4555511  20.8271484  75.2893143  57.0959435  20.2061768
  74.0663223  56.2533035  20.4981270  64.1884613  26.5720882  16.6656036
  63.7926445  25.7005672  16.6689548  63.5239449  27.1384621  17.0578594
   3.7398677  14.9461193  76.9710007   4.0985518  15.6847944  76.4791336
   3.0159974  14.6280098  76.4315109  10.7287846  68.7069702  11.6726494
  11.6273642  68.4282532  11.4962864  10.7567806  69.0561066  12.5634632
  63.4551353  65.8101578  18.0263557  62.7394791  65.2386627  17.7480354
  64.1855545  65.5754013  17.4539833  57.9020233  60.0343361  16.5704041
  57.0973434  60.0146446  16.0523949  57.6326523  60.3883057  17.4179745
  70.9319916  22.7254791  39.8856316  70.9547577  22.5396824  40.8243484
  70.4453430  23.5467758  39.8157616  24.6926498   4.5809889  12.1900768
  24.4040413   5.1876488  11.5082407  23.8820400   4.2730060  12.5954065
  37.9241028  20.4352036   4.9785824  37.4406471  20.7618980   4.2197857
  38.1154442  21.2176514   5.4956861  70.5425034  26.7036705  35.8397827
  70.5073853  27.5586147  35.4107513  69.6432724  26.3781605  35.7991104
  77.3197021  52.6075706  13.8128357  76.4336700  52.7363815  14.1513300
  77.8701172  53.1629372  14.3649616   2.7347171  68.9506760  86.8864899
   3.5785494  69.2989883  87.1743393   2.0862269  69.4780502  87.3529282
  55.1203423   7.0143437   0.6751727  54.8969498   7.3400908   1.5470765
  54.9138680   7.7413273   0.0877245  62.8516769  54.2075424  18.7887383
  62.3440742  53.5965652  18.2546234  63.5545540  54.5041924  18.2106438
  48.5690155  41.0837898  89.0265121  49.1616211  40.3333855  89.0706329
  49.1115265  41.7980843  88.6923065  29.4532261  59.7919464  79.7619247
  30.3660126  59.5939598  79.9713440  29.0264626  58.9362602  79.7183228
  65.5065918  47.7875671  43.5051079  65.4113464  48.0914993  44.4077606
  64.6342163  47.8897972  43.1246490  49.5730972  57.1316986  88.3191986
  49.9057121  57.2793388  87.4338760  49.4752197  56.1816521  88.3829498
   2.6031554  40.8656044  22.3179855   1.8935593  40.8952141  21.6762466
   2.6953890  41.7708664  22.6150169  57.9730072  17.7991982  84.8131256
  57.6043510  18.4095554  84.1745453  58.6479073  18.3049183  85.2658844
  77.2809753  69.7945557  56.7094116  77.8292847  69.1350479  56.2843895
  77.9011230  70.3654556  57.1629791  52.4872322  24.4949398  15.5997486
  53.2293396  24.7214470  15.0392113  52.8572617  24.4525471  16.4815140
  86.2908630  50.3843498  37.3580627  86.3601151  49.9897194  38.2273712
  85.4958496  50.9158745  37.3989563  39.2906342  68.9536743  80.1537170
  39.7000504  69.7852325  79.9147034  40.0205345  68.3381729  80.2217636
  83.1031418  28.3244038  65.5498657  83.6500473  27.5764923  65.3095551
  83.1870956  28.9291916  64.8126984  78.7472382  35.4750900  32.6187897
  79.0216370  34.6745758  33.0661278  78.2874451  35.9790764  33.2902222
  69.5042114  33.9536324   6.9433651  69.8881607  34.1388855   7.8003931
  70.0941849  33.3102722   6.5506172   2.7288325  57.8805962  74.3830566
   3.0991561  58.3438377  73.6317291   1.8175465  58.1713638  74.4183121
   6.0715408  53.7707939   4.1346879   5.1293206  53.8760414   4.2665057
   6.1598206  52.9193726   3.7062910   9.3806324  13.6931400  56.5607376
   8.4704199  13.4381294  56.7114525   9.3949423  14.0066299  55.6564407
  63.5749855  28.8777657  58.9509201  63.3745995  29.6683731  58.4499054
  63.7974968  28.2240963  58.2880211  47.4133949  46.7676010  26.2385159
  46.4929962  47.0110550  26.1393948  47.7050972  46.5666466  25.3492699
  67.5455780  30.9845428  58.2155800  67.0697021  31.1035118  59.0375404
  68.3444443  30.5206699  58.4663086  67.7855606  48.4185638  51.2005920
  68.1160202  49.1644516  50.6999092  66.8364029  48.4516144  51.0812569
  33.7850494  50.5639763   1.8345665  34.0082016  51.4645119   2.0700779
  33.3236427  50.6421013   0.9995639  59.0523796  56.1127052   4.8916454
  59.3333244  55.4785004   5.5512605  59.8548660  56.3424263   4.4231601
  31.5214367  18.7313194  12.2967205  30.7914200  18.2127666  12.6349688
  32.2009583  18.0871391  12.0979385  10.9000692  49.2571449  68.9359665
  11.5472851  48.7797890  69.4550781  10.2602978  49.5670586  69.5769653
  67.4148102  65.1454544  52.0690689  67.1268539  66.0481567  51.9332581
  68.1131897  65.0176697  51.4270630  58.5787697  62.2826233  30.5668144
  59.0675545  62.9997482  30.1630135  59.1836243  61.9127998  31.2099419
  56.6516609  62.4245415  47.6858711  56.4479523  62.6730690  48.5875168
  56.7759132  61.4760933  47.7211037  22.8335876   4.6725965  49.6284981
  21.9443302   4.8285365  49.9465179  22.9098873   5.2246385  48.8502579
  34.2450790  62.2196541  15.2652826  34.5761909  63.1088638  15.1391582
  35.0222359  61.6640167  15.2058878  48.1315460  27.1135406   8.8681841
  48.8805923  26.5176411   8.8603888  47.6534309  26.9077911   8.0648746
   6.5862446  32.2881546  83.9337769   6.1687760  32.3042793  83.0725632
   6.1318622  31.5912704  84.4071960  52.5660477  47.4187927   5.7175379
  53.1258545  46.6423683   5.7213898  52.0469971  47.3438034   6.5182843
  62.4150963   9.7442608  25.7547188  61.5418434  10.0066500  26.0459499
  62.5143013   8.8470974  26.0732918  72.9772110  34.4433746  37.0377197
  72.1220093  34.8006744  36.7985420  72.9667587  33.5488205  36.6972771
  38.5165825  71.9565582   6.2506762  39.0892296  71.3060837   6.6571150
  37.6863518  71.4978180   6.1221781  26.2124214  60.1128769  70.9624557
  26.8857479  60.7334709  71.2412491  26.0763817  60.3076134  70.0352020
  29.6827698  49.3025131  71.0362396  29.0064201  49.1225891  70.3832397
  30.0238953  50.1641579  70.7965927  21.3000641  56.5789948  34.2696266
  22.2148533  56.5310249  34.5472794  21.2465763  55.9885483  33.5181351
   1.1886618  30.3324814  73.3076096   0.4103248  29.8808422  72.9813461
   1.8791089  29.6700935  73.2800827  16.9272652  61.5741615  74.0715561
  16.8867645  62.0907631  74.8763580  16.7076817  60.6841240  74.3469467
  47.3269081  50.9706421   2.7144318  48.1389122  51.3113747   2.3392234
  46.9621048  50.4116707   2.0283549   5.0316644  62.0740318  73.5563431
   5.0140705  62.9060440  73.0833893   5.6598597  62.2144699  74.2647781
  83.9037094  39.5353203  77.1237030  84.0168152  39.3128242  76.1996155
  84.4062653  38.8698006  77.5935440  10.5939617  29.7668171  57.6542778
  11.4156046  29.2837486  57.5660629  10.1890678  29.4084911  58.4441452
   3.9538443   9.4082270  60.0278969   3.5312316  10.0751810  59.4867859
   3.7236667   9.6470995  60.9257774  72.6005707   8.6716051  44.7128258
  72.5166550   8.7256804  45.6648064  72.2494202   7.8094649  44.4900208
  63.9069824  51.6827621  35.5729980  64.6001282  51.1108055  35.2433853
  63.7128983  52.2695923  34.8421097  59.0050316  41.4228668  20.8997746
  59.7008781  41.2742500  21.5400410  59.4304733  41.3009415  20.0510292
   4.7221770  50.2907295  47.7836761   5.4330363  49.7023468  48.0380669
   4.3961177  50.6442604  48.6112862  56.5380325  51.7095490  46.8933182
  56.5265770  52.2943611  46.1356277  55.7385674  51.1902542  46.8071785
  11.4909277  63.0381737  15.0207310  11.8432608  62.4160881  15.6572094
  11.1625738  63.7638626  15.5515718  12.8608656  37.9579926   1.2987852
  12.1158695  37.4931107   0.9178706  13.3836651  37.2725105   1.7147495
  85.1628571  43.9108810  45.9570312  85.0104446  44.7783203  46.3319321
  84.2862167  43.5517349  45.8201103  80.9010620  44.6645203  56.8633423
  80.8346634  44.0624313  57.6044998  80.0121460  44.7098618  56.5112152
  62.5384407  60.2388611  83.8804321  63.3554039  60.3643417  83.3976669
  62.4734116  61.0088043  84.4453964   1.6254485  52.4940224  12.5920782
   2.2279325  53.1102295  12.1755028   2.1889930  51.9264984  13.1179705
  86.4001999  33.5489197  64.4664993  86.9272537  33.9970741  65.1280212
  85.7492294  33.0599442  64.9698563  81.5036774  14.5555334   2.3174572
  80.5944595  14.6240082   2.6087818  81.6837540  13.6154337   2.3134918
  54.6405182  16.7309284  87.2515793  55.3930588  17.1978245  87.6147842
  54.6030083  17.0116444  86.3372345   7.5699911  42.4427452  65.0338821
   8.3604841  42.3621559  64.5001602   7.2002020  41.5599899  65.0490341
  81.8665009  12.9293108  70.8140869  81.4721603  13.1417456  71.6600189
  82.7980804  13.1159859  70.9304581  71.8530960  11.1784592  60.5022049
  72.6608124  11.0341959  60.0092354  71.9209900  10.5868645  61.2516289
  71.0449524  47.8397713  37.8101425  71.4314575  47.8921928  36.9360161
  70.4725342  48.6049767  37.8652077  68.8153839  59.5584526  88.1893997
  69.1996155  60.0863228  88.8893661  69.1603699  58.6778069  88.3366241
  71.8854294  69.0031128  56.3543892  71.7185440  68.1034927  56.6355820
  72.8340149  69.0440369  56.2329750  54.4087296  22.8398304  73.5736008
  53.5540199  22.6319237  73.1961365  54.6190147  23.7070065  73.2271652
  49.7838402  68.6019516  74.5046387  49.4864426  69.0996017  73.7429733
  49.4664879  69.1022644  75.2564392  27.4736595  56.9851494   3.1540995
  26.6775494  56.4545441   3.1840577  27.7392063  57.0705032   4.0697589
  52.5928459  52.8375015  58.8695450  53.3359413  53.4031754  58.6596565
  52.3568192  52.4325981  58.0349350  80.9825745  12.6297712  17.5710354
  81.2956161  11.9739609  18.1940517  81.4845963  12.4614515  16.7736206
  20.1993237  71.2150803  83.8598633  20.9555721  71.1071701  83.2830811
  20.5676956  71.1997375  84.7432022  63.6902962  41.6381493  32.9353752
  62.8334198  42.0248642  33.1155014  64.1861954  41.7675438  33.7438164
  54.4659042  65.7192154  45.6744919  54.4585991  64.9330826  46.2205429
  53.9889793  65.4662476  44.8840637  30.0888100   8.4214525  32.3587265
  29.4485664   7.7819843  32.6708183  29.6478653   9.2660999  32.4502144
  58.3573647  15.3329172  66.0634766  58.7346992  14.4731531  66.2496414
  58.8137779  15.6293821  65.2760544  26.5746002  44.4814453  15.9478693
  25.7674446  44.2413063  16.4029121  27.2232456  44.5773315  16.6452198
  38.9499397  48.1455002  57.6181984  39.7390976  48.2440300  58.1508827
  38.8495331  47.1995773  57.5115242  58.9412422  66.9777374  79.5767670
  59.3866501  66.8923035  78.7338257  58.2521172  67.6231155  79.4191971
  37.2834625  57.2345657  47.0694084  36.4807625  56.7282829  46.9445763
  37.5389252  57.5001869  46.1859970  41.5090561  24.0490398  69.0216293
  42.3190384  24.1754494  69.5157776  41.7996101  23.7788410  68.1505356
  85.1998978  28.6413136  32.6890335  85.4732742  29.3466644  32.1025352
  86.0188904  28.2370052  32.9754295   6.0829554  25.5348816  19.6972160
   5.8493447  26.1027679  18.9629383   5.2629547  25.4123573  20.1755657
  77.8929214   2.4884512   7.1978383  77.2034988   3.1300693   7.0268030
  77.7852402   1.8319664   6.5096059  10.1981955  48.2832603  43.3364029
   9.6698942  48.5587883  42.5872612   9.5947533  47.7797241  43.8827896
  77.1082687  51.5092621   6.2152743  76.7349701  52.2863274   5.7992735
  77.0472717  51.6873589   7.1537805   9.0596046  41.5176277  38.3386841
   9.2182016  41.0546570  39.1613235   9.7151451  42.2150078  38.3260880
  49.7508926  14.4055080  67.6046219  50.3665161  14.9757547  68.0651245
  49.4940758  14.9060879  66.8302231  61.6042900  68.8592911   1.3718395
  62.4395142  69.3145752   1.2652891  61.7670441  68.2193298   2.0648003
  63.3261795  16.8282909  49.9925041  63.9586563  16.1586933  49.7320328
  62.5094299  16.3473053  50.1259193  16.6859798   1.5067191  53.1217613
  16.8474789   0.6075124  53.4073792  17.1155014   2.0489655  53.7833595
  45.8260460  42.6693573  27.5942478  44.8708916  42.6964073  27.6506653
  46.1058693  42.3145981  28.4380951  49.1922073  45.1121254  74.7703705
  49.3726120  45.6244125  73.9821777  48.4044075  45.5108032  75.1400452
   6.1952510  66.7988052  89.0497513   6.9883461  67.3314743  89.1088791
   5.7291026  67.1468277  88.2896118  63.4593086  18.6319237  15.3870077
  64.2439728  18.9701843  14.9556026  63.7570000  18.3775787  16.2604618
   7.1653881   4.3701825  21.1496181   7.7330298   3.7026050  21.5347881
   6.7625394   4.8047743  21.9013329  26.6416264  60.2012405  51.1302185
  26.7256584  59.7198601  51.9532852  26.3592262  59.5428200  50.4954224
  55.4193306  35.9375000  59.2398872  55.3482208  35.5804977  60.1251678
  56.3209991  36.2532845  59.1806831  52.6947937  36.6224480  59.8778000
  53.4851074  36.1778641  59.5712280  52.0989914  36.5952568  59.1291275
  80.2988510   3.8434765  17.7346878  80.6591568   2.9929883  17.4835186
  81.0141373   4.2792115  18.1980820  65.4643250  61.6975708  18.6814785
  65.4403763  62.0115166  19.5854111  64.9463730  60.8927040  18.6936684
  77.0166931  60.9216194  78.9404221  76.7878265  61.7888451  79.2747574
  76.3384552  60.7276993  78.2934189  77.1170197  61.7857895   8.6352015
  76.8295288  62.6043091   9.0396824  77.9423218  61.5788689   9.0737133
  70.1026306  59.4639702  53.3658714  70.9524002  59.3511162  53.7917557
  69.7763519  58.5726089  53.2423744  12.3537169  45.2019157  75.3562546
  13.1043653  45.7709732  75.5263519  12.6946497  44.5235558  74.7733078
  68.0107956  17.1440907  61.9040680  68.5079041  16.3748302  62.1822014
  67.7675476  17.5801888  62.7206955   0.2493526  22.6185093  56.1242790
   0.5715741  21.9746323  55.4935417   1.0405519  23.0306568  56.4712219
  29.9346561  35.8405380   6.6610742  29.0017567  35.9067612   6.8649015
  30.1267891  34.9046555   6.7197351   3.0378799  33.8423119  78.7328796
   2.9665148  34.7632484  78.9839020   3.2510562  33.3877525  79.5478439
  82.9627686  52.3416443  52.9659462  83.5439529  52.2252121  53.7175407
  82.2820282  51.6792831  53.0847015  46.2590370  39.6827469  25.1188507
  46.9396324  39.3976288  24.5091534  46.4816017  40.5921555  25.3180447
  63.8850441  53.1531525  40.4206352  64.6593475  52.8526726  39.9448204
  63.8381767  54.0908203  40.2340546  80.8692932   5.1533895  47.6089287
  81.5767059   5.3410025  46.9920044  80.1997452   4.7188325  47.0806313
  47.5510597  64.1805344  45.3287735  46.9353065  63.4951782  45.0692368
  47.8714943  63.9022560  46.1867409  34.7499008  15.7661800  86.2507324
  33.8019676  15.6572142  86.1747284  34.8924637  16.7063446  86.1411896
  46.6445389  64.8158951  72.5681763  46.4441986  64.8712387  71.6338196
  46.8325996  65.7181396  72.8266678  27.9942055   8.6090927  82.4612503
  27.3214798   8.5024271  83.1337814  28.4474487   7.7662683  82.4400558
  69.8434372  13.1970625  30.5011616  69.0212479  12.8681564  30.1377621
  70.5006332  12.9828587  29.8390121  86.8771744  47.2462006  41.8839836
  87.3739624  46.4372787  42.0067940  85.9618988  46.9661522  41.8750381
  55.0898781  54.8021355  42.8348122  54.9756508  54.0872688  43.4610329
  54.2215309  55.1983719  42.7626495  61.5284615  68.1456070  20.7506504
  60.6242867  67.9068146  20.9548035  61.5243950  69.1025467  20.7289486
  57.4354591  18.5472107  31.8734074  58.0500107  18.1510201  32.4911385
  57.9787102  19.1128044  31.3245754  72.0490189  56.1863899  72.5532150
  72.3016968  57.0006447  72.9883881  72.6925430  55.5446053  72.8535919
  75.0793610  20.1013908  44.5567017  74.7313309  19.5166264  45.2298698
  74.3825531  20.1552067  43.9026375  16.1522503  69.6752167  77.9520264
  17.0598183  69.4421768  77.7564545  15.8308249  70.0823441  77.1475601
  18.1132030  65.1083374  38.3084297  18.9558640  65.4666595  38.5872879
  18.2155304  64.9594040  37.3684425   3.5307782   4.2234726  77.5773849
   3.3979802   3.4017687  77.1047287   3.8124590   4.8437409  76.9049606
  74.4183502   9.7275629  23.4638329  74.1541367   9.4789352  22.5780525
  75.2769928   9.3209715  23.5806637  46.6949272  61.0206680  24.8338032
  46.9435272  61.2367477  23.9350605  45.9293594  61.5679741  25.0087185
  27.1148758  63.6377373  45.2280807  27.4516125  62.7430496  45.1792908
  26.6413746  63.7606354  44.4053268  48.1115952  56.7194290  83.4446411
  47.3244057  56.9302940  83.9467316  48.2456398  55.7830963  83.5914154
   9.0497999  12.0645466  81.4243088   9.9996519  12.1695786  81.4789200
   8.7243557  12.3882103  82.2642822  17.0825558  11.8248749   6.6984959
  17.5573711  11.8923674   7.5268841  17.2037106  12.6785183   6.2827473
  47.9793358  38.2653847  71.4227905  48.4829865  39.0759354  71.3481140
  47.0876236  38.5544662  71.6164703  43.4112816  45.7663956  87.2333374
  42.9977226  46.0714531  86.4257889  43.0219383  44.9064255  87.3917618
   4.3310199  48.9341354  68.4297791   5.0147395  48.8548508  67.7645874
   4.7069187  49.5145569  69.0916214  34.9905090  45.3339005  70.3701248
  34.5226059  45.4199448  71.2007217  34.3001900  45.3134804  69.7073441
  75.1514893  12.1445866  81.6451645  75.1370621  11.7055073  82.4955978
  75.2262726  13.0749998  81.8572235  56.4282722  35.7753029  62.4621162
  57.2516899  35.4010544  62.1488152  56.5896225  35.9700394  63.3853073
   6.0005217   2.9192848  25.0931911   5.2642379   3.4324384  24.7603378
   6.5686431   2.7945673  24.3329830  17.2506733  53.1429100  66.2907867
  16.6012115  53.2102737  66.9907074  16.8163872  53.5171318  65.5242386
  77.8311310  46.8677292  42.9195061  78.1567078  47.3776894  43.6612396
  76.8846359  47.0102272  42.9279060  14.0816393  56.6256828  37.9499817
  13.6171961  57.4578896  38.0391808  13.9179258  56.1703072  38.7758522
   6.4179034  10.7175970  46.5227127   6.0415277  11.5786352  46.7048874
   5.6760454  10.1894331  46.2278900  25.9073238  39.3382034  12.4849892
  26.4014778  38.5279427  12.3604097  25.3639641  39.1713562  13.2551537
  83.6409760  31.6991978  64.5392532  83.8676682  31.4118214  65.4237061
  84.1334381  31.1140251  63.9636841  43.4085922   5.3528271  41.4392700
  43.0384178   5.7429428  40.6474304  42.7988892   4.6513481  41.6682281
  52.6077156  28.0395794  84.7921600  52.2789917  28.9382706  84.7692413
  52.0223694  27.5858345  85.3985596  26.9810791   6.9916248  59.5300636
  27.4476624   7.8262429  59.4859543  26.5092106   7.0247064  60.3622131
   6.7766051  42.5136070  51.9528732   6.4828939  43.1194420  51.2724876
   6.0263104  42.4327621  52.5417328  75.1252365  15.5296812  66.6489563
  75.1638107  14.6270952  66.9653168  75.0020294  16.0554352  67.4392929
  22.0660553  16.0080109  22.4436569  22.3825779  15.7068071  21.5919991
  21.6132622  16.8297291  22.2539520   6.3725457  21.9580746  32.3118210
   6.0653806  21.4114323  31.5885906   6.2108369  22.8550873  32.0195045
  27.7277260  53.1110229  28.2954693  27.1150894  52.4886818  27.9035511
  27.6832714  53.8805580  27.7279587  82.4574661  44.5741119  43.7140388
  82.6244583  44.1117859  44.5353813  81.7967758  44.0425453  43.2700233
  57.0257149  32.2758293  68.5308380  57.9102097  32.1853027  68.1762924
  56.5455360  32.7567596  67.8567734  46.2265358  65.9046860  66.5327301
  45.5538330  66.3212128  65.9940262  45.9092636  65.0111313  66.6636047
  78.2242050  56.3156662  63.9044800  78.2791290  57.1566238  64.3583603
  78.0001831  56.5445251  63.0024414  26.1290455  30.7976971   9.0374212
  25.4080048  30.6137772   8.4353390  26.5641022  31.5637856   8.6631670
  11.2420959  70.0360336  73.1746063  11.0519638  70.8124924  73.7011032
  11.5975380  70.3827133  72.3562546   2.8055241   5.2338481  54.3696785
   2.8721814   6.1049070  53.9784660   3.3836553   5.2686787  55.1317673
  56.6070061  15.1732225  72.8917999  56.6703300  15.7681742  72.1446381
  57.4412956  14.7039900  72.8957138  86.2478180  45.3127213  63.3148422
  86.8664856  44.5864944  63.3928070  86.7237015  45.9808426  62.8215065
  41.7546806  33.1850433   6.2661190  41.4943733  33.4758682   7.1401281
  41.4045868  32.2970047   6.1950345  44.3786392  56.9314728  51.6851540
  44.4858208  56.1899719  51.0894051  43.6343079  56.6901169  52.2364731
  47.1470909  71.6749496  69.1287918  46.2111320  71.8589935  69.0491257
  47.2014656  70.9976120  69.8029556  47.2887878  19.7353897  86.3833160
  47.6364517  18.8522739  86.2589264  46.4819336  19.7498608  85.8685226
  31.2544155  33.6519394  69.5960083  31.8079777  34.0252686  70.2818832
  31.8280411  33.5905647  68.8321915  20.1728973  30.1674118  11.2010403
  20.6937332  29.6065292  11.7758198  19.3491650  30.2937889  11.6719208
  73.0639267  63.8037491  69.6227722  73.0934448  63.7496834  70.5779877
  72.5777969  63.0243340  69.3536682  60.6817245  41.7755585  10.6055899
  61.4218788  41.7909317  11.2123585  61.0440750  41.4184189   9.7947960
   6.2897744  70.3211060  72.2157211   6.1344886  69.3972168  72.0193939
   5.4818449  70.7611923  71.9515076  13.3055782  55.1745872  63.0418129
  14.0368643  54.8472137  62.5180969  13.1420221  56.0541306  62.7013893
  19.8924656  67.6728516  41.3375130  19.7680721  67.3604355  40.4413223
  20.7643566  68.0678558  41.3346062  57.3664589   6.6568937  71.5291519
  57.3038139   6.0735097  72.2854385  56.4632721   6.9224553  71.3560486
  22.2881775  54.7844734  86.0040970  21.3492355  54.7238617  85.8281860
  22.3488770  54.8637733  86.9560699  62.8297386   2.6252499  33.4193268
  61.9966240   3.0956671  33.4485970  62.6255074   1.8040310  32.9719772
  51.0362930  31.3125381  22.1573296  50.5654182  30.7820091  22.8000164
  51.1307907  30.7392769  21.3966236   8.4613457  16.7625504  78.7546616
   8.5202656  16.3972588  77.8718719   7.5417538  16.6548786  78.9975357
  84.7740936  26.7892036  13.9669647  84.6315079  26.1177654  14.6341000
  85.3529282  26.3730659  13.3282099  30.8803101  54.8460999  18.1222839
  31.0777912  54.1222572  18.7166595  31.6831055  54.9650917  17.6147499
  69.5840454  62.8885536  46.1927299  70.5024643  62.6347122  46.1016350
  69.1986618  62.2020073  46.7371292  41.5676155  35.3396072  65.5742950
  41.0205765  35.5423698  66.3331604  40.9777031  34.8946342  64.9658356
  76.7683029  36.9649239  55.8289185  76.8031540  36.3001175  56.5167046
  75.9440460  36.7948341  55.3729477  19.7424793  35.4376755  17.8260155
  20.4731369  34.8286247  17.9329243  18.9631081  34.8822556  17.8439369
  86.5074539  46.8986931  19.3558979  85.9322662  47.6630096  19.3212204
  86.9754562  46.9886017  20.1860313  61.6514435  25.3216000  63.8139114
  61.9995308  25.1992569  62.9306793  60.7633667  24.9668522  63.7726250
  78.7972794  25.2498665  51.9522972  78.3414917  25.4766235  52.7628975
  79.0311737  24.3278275  52.0589142  29.2523556  53.5199356  39.5765991
  30.0294456  53.4541130  40.1316071  29.5670280  53.3079834  38.6977997
  57.1780396  61.7856369  23.4681053  56.2657776  61.9647675  23.2402420
  57.1541862  60.9304581  23.8974457  63.7595787  48.9528542  67.6071854
  63.3427391  48.7174416  68.4360733  63.1944008  49.6321716  67.2393112
  62.4296570  67.1224670  32.1806183  62.6452980  67.6863861  31.4378338
  63.2267456  66.6157761  32.3359909  51.8332520  13.8238258  28.9291801
  51.6054688  12.9684362  28.5649624  51.1344833  14.4054356  28.6297112
  35.0311928  54.4390984  49.2807007  34.6148224  54.3436890  50.1373024
  35.8433838  53.9376030  49.3519897  46.5353584  44.6236115   7.5140991
  46.2832794  44.0268173   6.8094530  46.7911835  44.0483704   8.2351294
   2.2124271  10.3213987  52.1742706   1.7042505  11.1321964  52.1986580
   2.0322623   9.9004364  53.0148430  70.9620438  34.2188263   0.9304641
  70.4671326  34.9838715   0.6372111  71.8742905  34.4354591   0.7378384
   8.6691656  14.2869596   5.8685765   7.9483490  13.6666136   5.7598300
   8.8133745  14.3232021   6.8141570  58.5559196  26.0559902  82.0548248
  58.3431587  26.2070942  81.1338882  59.3153877  25.4737949  82.0327911
  52.9393654  11.8565493  25.4690151  51.9835243  11.8265123  25.4277821
  53.2105522  12.0811987  24.5789471  24.5394764  49.2185135  54.0792847
  23.8522816  48.6140785  54.3597336  24.6674881  49.0217171  53.1513214
  74.0922165  21.7661572  10.6490812  73.4132919  21.3804989  10.0953960
  73.9408798  21.3851871  11.5140629  40.4524040  63.5430336  29.4365387
  40.2876816  62.6393547  29.1673546  39.6223221  63.8360558  29.8124771
  73.2312546  22.3753929  74.7696457  73.5564728  21.5120735  75.0248795
  74.0214081  22.8895645  74.6037598  71.9258804  26.5059052  66.6528625
  72.1960373  25.6192665  66.8918533  72.7094345  26.8998604  66.2693634
   6.1676583   3.0351462  18.6000614   7.0830097   2.9734015  18.3270206
   6.2096438   3.2413487  19.5338440  76.3420486  45.0168419  61.6917038
  75.7543564  44.3087463  61.4281693  76.0491943  45.7729759  61.1830521
  16.9357071  47.4727020  76.6550446  16.9036179  46.7652817  77.2990646
  17.3352737  48.2053986  77.1237946   0.8708950  47.1221695  61.2878304
   0.6301093  47.7360725  61.9816475   1.8029996  46.9556923  61.4281807
  28.2193432  69.5585785  21.0603809  27.7772694  68.7161331  21.1656971
  28.9921398  69.4953537  21.6216507  84.4513550  15.7981863  53.7155380
  84.2811203  16.2360592  52.8815613  83.7524643  15.1486254  53.7920532
  43.8091850  48.7219391  19.4154510  43.1184769  48.3754158  19.9803162
  44.4967728  48.0565491  19.4421597  58.7097816   2.1501305  19.6253281
  58.4049301   3.0520821  19.7242279  59.6627388   2.2237222  19.5734940
  86.7045288  30.0313339  31.0823326  87.3440094  30.7413483  31.0259724
  86.1608200  30.1361599  30.3015518  28.9034748   0.7279723  64.7932587
  28.1987572   0.5630813  65.4196854  29.2043724  -0.1436315  64.5363541
  54.4919395  30.9335499  53.0328560  53.6782608  30.7936630  52.5485115
  54.2641068  31.5781860  53.7027588  67.3863754   0.0854991  54.8859711
  67.5015488   1.0356405  54.9000435  67.2318344  -0.1234136  53.9647217
  63.0459824  42.4253120  12.4026232  63.7852173  42.5514259  12.9974861
  62.3075256  42.2242889  12.9775171  43.7260780  13.8461123  10.1854601
  43.0106430  13.4899387   9.6586533  44.1010971  14.5395241   9.6425323
   9.1822243  29.7941360  75.3839722   8.5740604  30.5219326  75.2548294
   8.6549625  29.0107460  75.2273560  86.7229156  35.9506645  19.7742233
  86.6332321  35.0180702  19.9703217  86.3176041  36.0544434  18.9132996
  46.6795578  44.3116608  19.6905136  46.7911415  44.1632233  18.7514992
  45.8161087  43.9494896  19.8893108  29.5888958   8.2042131  52.2105789
  29.8968754   8.5363331  53.0538292  28.6923523   8.5314293  52.1372681
  77.5475693  58.4645844  46.5394211  78.4531860  58.4460487  46.8488503
  77.1843338  59.2690163  46.9097977  74.8331757  64.8391418  40.3516960
  74.9200134  64.1036682  39.7452621  74.0661774  64.6230240  40.8820190
  18.6678352  38.0698967  23.8079205  17.8509521  38.5618210  23.7245598
  19.0514793  38.3799324  24.6282406   0.8013365  28.3353939   5.2461076
   1.2598706  27.6776848   5.7689805  -0.0575868  28.4150009   5.6610117
  68.6652222  58.3773155  68.3760300  68.6441650  58.8504982  67.5442352
  68.6359634  59.0635147  69.0427475  34.2599716  10.3704224  63.0796204
  35.0932274  10.3369751  62.6097298  33.9352303   9.4703093  63.0557327
  60.2555580  18.9061356  17.0658131  61.1333084  19.2492008  16.8982048
  59.9019508  19.4761848  17.7486305  47.6464195  42.8468628  66.5513763
  46.9349861  43.0431938  65.9418259  48.1510239  42.1591454  66.1170349
  34.5107803  32.7440910  80.8046646  33.9175186  32.9595222  80.0850372
  35.3233795  32.4788132  80.3739243  47.3094635  19.4713459  32.0503731
  48.1082458  19.2089500  32.5079002  46.8523979  20.0377331  32.6720886
  53.6732140  31.9216690  25.9466839  54.3817139  31.7696209  26.5720959
  53.9825020  32.6488571  25.4065228  82.8489838  71.2306442  52.3265762
  82.3861542  71.7208481  51.6470718  82.4849930  71.5589600  53.1487389
  28.4821968  20.4889984   8.7193222  29.1750584  21.0690193   8.4034882
  28.3765049  19.8408089   8.0229673  84.6506653  59.6925926  64.9535675
  83.9313812  59.1369362  65.2537460  85.4327545  59.1515388  65.0623322
   0.8176035  62.0891953  37.0664368   0.3279510  62.8557358  37.3645744
   0.6098306  62.0198059  36.1346359  26.1760731  57.7471848  88.8415909
  25.4889545  58.3954048  88.9962234  25.7039566  56.9261475  88.7028885
  67.0785217   5.4353280   0.7153613  67.6989517   5.7389164   0.0526952
  67.5383072   4.7281580   1.1678389  69.4218445  55.9904060  73.2776947
  69.0846634  56.7015610  72.7329025  70.3608856  55.9718132  73.0930710
  74.7202682  56.9627304  48.4380264  74.0827942  57.1117020  47.7396965
  74.6393280  56.0309029  48.6414413  10.1164970  28.9248714   6.0863633
  10.4698219  28.0470142   6.2304449  10.0333881  29.2967033   6.9644670
  65.7084885  51.1869087  62.1141701  65.0845184  50.5274277  62.4174500
  65.1711807  51.8305664  61.6523972  53.8712921  48.0264130  88.3121796
  54.5525551  47.4640694  87.9435501  54.0248108  48.8823357  87.9121017
  69.2971649  24.4321156   8.3929558  69.6904678  24.8906517   9.1354437
  69.3122559  25.0718594   7.6811047  56.4010658  50.1835556  34.4844933
  56.6308212  49.4455452  33.9198799  56.8974648  50.0332565  35.2889977
  54.5491409   7.1982045  71.4573212  54.5587082   8.1154947  71.7306671
  53.9205589   7.1697764  70.7359924  70.9935074  33.3472824  70.6900558
  70.7954865  34.1344147  70.1826706  71.7590790  32.9695435  70.2571106
  15.1218290  10.2452850  24.6489811  15.3190517   9.3145180  24.5440712
  15.6853209  10.6829214  24.0108719  24.1881676  41.6050606  70.2844696
  24.2415581  42.5226784  70.0173416  23.4105797  41.2704048  69.8377151
  73.2091370   7.5730243  28.7161884  73.8766785   6.8871107  28.7041912
  73.7030792   8.3893223  28.6393070  23.6450939  70.5419769  26.7550831
  22.7448196  70.8263779  26.9127426  24.0542793  71.2808380  26.3046570
  61.1018753  67.9233704  15.4922056  61.0766640  68.3453979  16.3509769
  60.2789803  68.1790619  15.0754328  25.5755539  67.0456314  45.7398109
  26.4777069  66.8139343  45.5191956  25.0952492  66.2196503  45.6823654
  78.1882553  41.1968002  15.3721266  77.7818832  41.5371666  14.5751057
  78.3369141  41.9712334  15.9146986  63.9158974  46.0721588  61.4283791
  64.7710266  46.4631233  61.2491341  64.0087433  45.6809235  62.2970238
  16.0798512  57.4845581   7.5528731  16.8186932  56.9591293   7.2458429
  16.4459019  58.3593025   7.6834741  29.0855789  64.7220306  32.2008018
  29.1417828  65.0362015  33.1032257  28.6525211  63.8712006  32.2699318
  76.2711182  64.8383560   1.9212649  75.3206635  64.8935013   2.0204067
  76.4016876  64.2130737   1.2083837  36.0854340  65.5624924  24.3378258
  35.7358856  65.5414047  23.4469833  36.6882057  66.3060608  24.3410587
  69.4965591  47.3005180  74.1242676  70.1705246  47.9273758  74.3870316
  68.9358597  47.7899399  73.5223465  16.5001793  21.5630341  82.9852600
  15.9727163  22.0500202  83.6183929  15.8808956  20.9644318  82.5676575
  25.8737907   1.9128654  81.1983490  25.8930454   1.2184758  81.8568954
  25.6763363   1.4600121  80.3784943  55.3404770  55.7899666  32.2999649
  55.2853127  55.0796967  32.9392662  54.9496689  56.5426140  32.7438316
  74.8854904  22.0449085  38.7068596  74.3249969  21.3401337  38.3822594
  74.6999435  22.7843571  38.1280518   6.8971987  35.5875816  58.2183647
   7.2074599  35.7096710  59.1156197   6.1743970  36.2086105  58.1282883
  80.8947678  61.3418846  64.4960175  81.5351257  61.5612526  65.1728058
  80.6004028  62.1889420  64.1612320  81.0311356  63.0873795   9.5872889
  80.7870178  63.0545158   8.6623249  81.9611664  62.8612022   9.5977297
   6.2302222  70.0862732  20.7280140   6.9143252  70.0518036  21.3966293
   6.7069616  70.1013794  19.8981209  46.4817581  19.7356873  78.0098267
  46.0805511  20.3247757  77.3708878  46.2954674  20.1391582  78.8576126
  79.4495316  11.8476000  53.4400940  79.1272659  11.0395470  53.8393784
  80.4003067  11.8019667  53.5409431  66.2931442  17.5307369   2.1131730
  65.9078064  18.4013653   2.0144060  65.7419434  17.0973740   2.7647953
  49.0930214  44.2791290  30.8426571  48.3559113  44.2607613  31.4530411
  48.8183479  44.8840599  30.1535664  54.0765953  58.6908188  18.5371704
  54.3382759  59.3622093  17.9070988  53.1901207  58.4458694  18.2718525
  53.2010345  50.5396538  66.7624359  53.5845642  50.4750977  65.8878174
  52.5156212  51.2020836  66.6751099  35.2515678  51.8420334  42.5407257
  34.6366463  51.2636223  42.9918861  35.8520546  52.1347351  43.2262726
  33.3336449   0.4834101  11.3679552  33.3332558   1.0154338  12.1636829
  34.1460114  -0.0204472  11.4171171   6.2729287  29.1438828  84.9994049
   5.9384651  28.9246159  84.1297531   5.5223203  29.0256863  85.5815125
  62.7083092  10.0331211  81.0697556  62.4277611   9.9990807  80.1552200
  62.5820694   9.1408167  81.3923798  68.6470795  67.5554657   4.4792595
  68.0770950  66.9260483   4.0374632  68.1353836  68.3639603   4.5065169
  29.3310776  61.5694923  34.2610016  30.0976086  62.0509949  33.9498482
  28.6698627  61.7077370  33.5828323  71.5518494   0.9289378  48.0513039
  72.2571640   1.5760165  48.0440445  71.4386597   0.6877037  47.1319427
  29.4840813  42.0775833  20.5606880  29.5170784  41.8735504  21.4953079
  29.3885098  41.2266006  20.1329899  84.2591553  43.2604599  29.2985096
  84.7206726  44.0747795  29.0982189  84.1011429  43.3004761  30.2417297
  84.6727219  43.8730125  69.2458038  83.8688660  43.3539276  69.2701874
  84.3756638  44.7787895  69.3327103  21.1523304  32.2775879  66.9859238
  21.8266354  32.4969978  66.3429642  21.5790558  32.4044342  67.8333054
  33.2750206  67.0467987   9.3154640  33.9463463  66.9456558   9.9902363
  33.5519943  67.8144379   8.8152094  43.3032532  49.7264252  11.9439926
  44.1603203  49.8847198  12.3397350  43.4720421  49.0815163  11.2570887
  70.3330612  71.3017044  60.8995094  71.2302856  71.1412125  60.6071777
  70.4272690  71.8845978  61.6528931  75.1428986  30.7533054  58.8424416
  75.7356262  30.8721638  58.1002960  75.5228806  30.0283585  59.3387299
  38.1518326   8.0358114  20.7233696  39.0328484   8.3185644  20.9685078
  38.2677879   7.5921054  19.8831844  67.9093475  19.1039524  57.9779510
  67.5256424  19.4688377  58.7753563  67.5832901  18.2046013  57.9450798
   2.0112615   8.4840164  20.2263241   2.5262163   7.6803217  20.2979336
   2.3100328   8.8881226  19.4116669  49.6409874  66.7970810  33.0715294
  49.2638893  66.5377884  33.9122429  48.9568214  67.3196640  32.6531258
  40.6566772  32.8019257  77.0995865  41.4628716  33.2735939  77.3088989
  40.6333847  32.7802048  76.1429214  33.7356339  39.6328888  79.6791382
  33.0295868  39.5616798  80.3215256  33.9175644  38.7289963  79.4220123
  83.8924179  52.3225937  43.6243210  83.1931686  51.6768112  43.7255516
  83.7509079  52.6943550  42.7536888  44.4572983  45.2350883  10.2667131
  44.2023735  44.6881676   9.5236635  44.0274582  44.8307304  11.0203485
  84.7148132  49.5122910  75.6791687  85.4212494  48.9279861  75.4039078
  84.4156799  49.1501007  76.5131760  19.2496738  42.4632988  49.7037430
  18.4438686  41.9952469  49.4850235  19.0000916  43.3873367  49.6940384
  67.4004822  43.6182022  76.9921112  67.4901047  44.0398979  76.1374893
  66.5528259  43.1752853  76.9529266  59.0566711  57.9855804  46.0662231
  58.6528168  57.1203308  46.1331329  58.7065811  58.4716797  46.8127975
  14.4282751  34.5990181  74.3147430  15.1106071  33.9279175  74.2981415
  14.8931494  35.4080009  74.5284500  68.8395691  48.3474655  41.0716515
  69.7259216  48.7041435  41.1299515  68.6235428  48.0948181  41.9692802
   4.6621275  68.0330048  21.7845764   4.6124778  67.5306625  20.9713001
   4.9394073  68.9069595  21.5097218  68.3341293  19.0303230  53.4269409
  68.1824417  18.2985401  52.8288460  69.0359650  19.5345478  53.0153351
  39.6400375   1.9251802  85.7188110  39.1268806   2.5737231  85.2368393
  39.1050568   1.1317533  85.6964417   2.4386683  43.2689018  81.1808929
   2.1121221  44.1089745  80.8585968   2.8570433  43.4789391  82.0158081
  51.9245262   8.5182600   2.4799383  52.3703194   9.3635559   2.4254022
  52.6244049   7.8719330   2.3868606  63.4563866   0.7551773  21.7852020
  63.9975090   0.8602400  22.5677490  63.8731422   1.3137696  21.1290588
  34.0550766  61.3302269  65.5392609  34.9462967  61.4033546  65.1977692
  33.9480324  60.3987122  65.7317581  83.3433990  20.4366932   0.5880111
  83.2896576  20.3111115  -0.3593921  83.3687744  21.3866673   0.7026385
  12.5942049   5.6972923  70.8398743  13.0265961   5.0826697  71.4327545
  11.9278383   5.1730146  70.3956604  22.4071026  19.5632935  53.3481102
  21.7903099  18.9016876  53.6612816  22.4444370  19.4268951  52.4014168
  42.6840096  54.5149956  55.4597282  41.8633347  54.0224113  55.4505424
  43.2880745  53.9647064  55.9582481  25.3241329  43.9508286  55.1188164
  25.5386257  43.7466583  54.2085762  24.4446068  43.5942574  55.2434082
  37.1980858  29.2855396  60.9933243  37.1194878  28.4531651  61.4593811
  38.1383095  29.4644871  60.9795685  66.5896454  57.6978683  14.3928242
  66.7822266  56.8008614  14.1198406  65.7796860  57.6258812  14.8978186
  63.7828674  70.3446884  62.1316071  64.6065445  70.8125000  61.9939880
  63.3525467  70.3608093  61.2767410   3.3773296  10.9259310  79.2572784
   4.1832714  11.4214401  79.4027481   3.6069782  10.0240364  79.4810638
  38.9845352  47.7976723  23.9776382  38.9866028  48.7154465  24.2495117
  39.1006660  47.3066521  24.7910557  64.8914871  26.2063046   0.8319898
  64.0822067  25.7317047   1.0218701  64.9352722  26.2322865  -0.1238552
  61.8114891  52.7874908  69.2280579  62.3675156  52.3738747  68.5677643
  62.4254684  53.1311493  69.8770218  75.5551224  11.5906563  16.4612198
  76.4005585  11.6107273  16.9096184  75.5033569  12.4331436  16.0098152
  85.3660126   2.3940859  45.5830574  85.8568268   2.5812349  44.7828636
  85.5581818   3.1330876  46.1602745  10.0953932  17.6460648  70.9683838
  10.9314318  17.5245914  70.5183716   9.5782776  16.8784256  70.7243500
   4.0191870  34.3287277  39.2708893   4.6580200  34.8830109  39.7191010
   3.4819162  33.9651833  39.9747429  29.6535816  54.7915764  23.6863232
  28.9211502  55.3935127  23.8184128  29.4949970  54.4069061  22.8242817
   6.9313312  57.0031624  75.9960327   7.5700669  57.6026840  76.3818130
   7.0335660  57.1196442  75.0514603  55.3363991  42.2574081  62.3655624
  54.8751717  43.0826759  62.5153580  55.5402260  42.2632751  61.4303360
  47.9631996  58.0678787  13.8969059  48.0591011  57.3596573  13.2601528
  48.3441734  58.8320732  13.4643602  86.9496460  63.3581276  85.0568771
  87.2894363  64.2338181  84.8726501  86.0228500  63.4969635  85.2518616
  73.6823578  69.6823044  45.7676582  73.4961472  69.8891830  46.6834946
  74.6100769  69.8913651  45.6587334  30.3465939  43.9999352  10.8429661
  30.8177357  44.6330833  11.3846140  31.0314388  43.4368172  10.4822464
   4.3745093   4.0560112  29.5983181   4.2146549   4.9717197  29.8266964
   3.8009253   3.8922191  28.8497162  52.6024208  25.0393658  87.4167175
  53.5156593  25.3260937  87.4129562  52.6069641  24.2188339  86.9238281
  48.2230148  44.9007950  54.0396461  48.6303368  44.9152298  53.1735573
  47.3297043  45.2100754  53.8893890  11.0042467  60.2879753   6.8297601
  11.7599783  59.7348976   7.0277700  11.0427361  60.4157410   5.8819065
   3.8437424  63.4807434  12.7096014   3.2411859  63.1593437  12.0388861
   3.7846155  62.8351974  13.4138765  52.1237602   7.4934087  65.0593491
  52.0985832   6.6402855  64.6260071  51.9128494   8.1199703  64.3671265
  22.7179317  52.4747391  11.6139774  23.2500019  51.8077164  12.0478134
  23.1819572  53.2956123  11.7785263  49.7011299  54.3398819  76.8708344
  49.2110634  53.8030434  77.4936295  50.4481506  54.6666794  77.3722305
  30.8806248   4.3908024  28.0784111  31.2376194   3.6352143  28.5451794
  30.5446358   4.0289226  27.2584190   6.5550041  13.7226467  70.7650833
   6.9001312  13.6802378  69.8732758   7.3055420  13.5169125  71.3224030
  67.7658768  41.8026733  60.0411530  68.3758392  41.1052780  60.2815933
  68.2798615  42.3898544  59.4868355  73.4157486   2.6359611  56.9008560
  72.9189758   3.1322925  57.5513229  73.0141907   1.7670704  56.9047241
  36.8404236  25.7941837  65.4650879  37.2839317  26.0523949  66.2730865
  36.7476196  24.8441277  65.5358963  86.7932434  20.7074833  36.1412392
  86.4165344  20.8486519  37.0098000  86.5690765  21.4987431  35.6514549
  58.6041641  41.6834106  63.0030975  58.7561684  41.7888718  62.0639458
  58.0510254  40.9051094  63.0702858  52.3594971  10.4941578   6.5400639
  52.2167435   9.8335161   7.2178578  53.0739441  11.0339146   6.8783903
   2.2003305   6.8727627  11.6735535   2.1157000   7.6868744  12.1698313
   3.0806212   6.5576754  11.8785896  51.8427200  17.2199707   4.7655168
  51.2456512  16.5638409   5.1250138  51.6884499  17.1923885   3.8212330
  39.3170013  46.2643890  88.6359940  39.8120918  46.9616699  88.2059784
  39.8285065  45.4719009  88.4730225   1.0132275  21.8313293  74.4776611
   0.2321697  21.2782745  74.4599838   1.5764573  21.4723511  73.7919998
  73.7401199  24.8211803  63.8336029  73.9671326  25.4708862  64.4988708
  73.4216003  25.3376389  63.0932999  59.2251778  17.9132977  27.4536133
  60.1607666  17.8803902  27.6531677  59.0352020  17.0638714  27.0553474
  51.8972588  44.7528534  28.1004353  52.4208183  44.2843895  28.7505569
  52.2191582  44.4326019  27.2577915  35.1170883  58.7320251  30.3143005
  34.5949936  59.0329628  29.5706024  35.9208298  59.2497826  30.2678413
  47.1081886  19.0927544  71.1193619  46.6741371  19.9364719  70.9929962
  47.8322525  19.2828655  71.7158737  59.0920525  71.4888535  48.5385933
  58.3364220  71.2134018  49.0576134  58.7527962  71.5727158  47.6474686
  47.6792603  67.3596115  18.3292141  47.9426537  67.1264496  19.2194347
  47.4978981  68.2985382  18.3712616  29.6789494  49.9578438  30.1410904
  29.4648685  49.8887825  31.0714836  29.0874748  49.3391113  29.7126522
  56.0896683  46.3132057  11.4756756  55.9560471  47.2609482  11.4882164
  55.8073769  46.0430641  10.6018505  72.7576675  62.7119560  84.7306595
  73.0885315  62.7462769  85.6282043  73.2804337  62.0301895  84.3085938
  47.9630051  49.6017265  86.8650818  47.7243347  49.7522621  85.9504242
  48.7892189  49.1204185  86.8209305  66.2945251   6.3813715  28.1238670
  67.0795593   6.1289768  28.6099224  65.6373978   6.5474434  28.7997627
  31.2205677  61.7793045  62.2068367  30.3957901  62.2646446  62.1863060
  31.8932209  62.4539604  62.2996483  55.3240051  59.9951248   9.9651022
  56.0777435  60.3131523   9.4681406  55.5688744  60.1254616  10.8812256
  84.2273483  68.1710358  46.1356049  83.5820999  67.6316376  45.6785126
  84.2863159  67.7849808  47.0095100  71.3419495  51.2343254   4.8226595
  71.0540390  51.6359215   4.0028663  71.1681061  51.8991203   5.4890361
   7.8566275  52.4617271  22.3998222   8.5485382  52.2593307  23.0295258
   7.5750327  53.3472023  22.6297626  46.0638618  42.1913719  36.8141861
  45.9282417  41.3022995  37.1418839  45.5206985  42.2421951  36.0276604
  67.9173126   5.8305988  71.0870361  67.7584457   6.7724581  71.0246353
  67.0661392   5.4589629  71.3186264  19.5364456  15.6853247   7.6789408
  19.8631878  14.7919254   7.7852883  19.8348503  15.9474039   6.8080211
  39.1483917  48.1568375  37.3913841  38.7355347  48.5066719  36.6018295
  39.9820251  47.7982216  37.0869484  83.9568787  43.9288406  82.2811356
  83.5343018  44.4662361  82.9511108  84.8922577  44.0987740  82.3926086
   1.6638386  16.8366184   6.6276417   1.5027493  17.3255959   5.8206825
   2.4375067  16.3065414   6.4361014   2.5458057  20.9202652  72.3481903
   3.3214226  21.1071548  71.8192978   1.8178521  20.9591675  71.7278671
  82.9568405   0.2762360   7.6484332  82.5762634   0.5390966   8.4864655
  83.4246979   1.0536355   7.3434896  58.2379074  51.8106308  32.5774918
  58.6849289  51.6465454  33.4078407  57.3629761  51.4420891  32.6995850
  86.6795883  38.1799164  83.9318085  87.3088226  37.9866257  84.6267471
  85.8480225  37.8374519  84.2595978   2.6850464   4.4585843   6.3075004
   2.4256246   4.3037786   7.2157774   3.4887726   4.9743590   6.3725557
  55.3509560  54.0837021  30.1764183  55.2803726  54.8227882  30.7805748
  55.0859604  53.3241577  30.6951637  68.7596817  30.0985718  26.3327484
  69.3921890  30.4378700  25.6994705  67.9458389  30.0131798  25.8361645
  36.8759460  56.3736343  78.6491623  35.9500580  56.3182793  78.4127350
  37.1154022  55.4788742  78.8906097   5.9233851  61.7680931  54.0890121
   5.9159808  61.9757004  55.0233994   5.8619509  62.6186180  53.6541939
  13.0238695  33.4548569   3.1091104  12.4091845  33.2545013   2.4032400
  13.3647375  32.6021271   3.3791027  67.3048172   9.6853008  43.0696640
  67.0150909  10.5955849  43.0090752  68.0833435   9.6442680  42.5142860
   6.2748318   3.4118783   9.0014534   6.2701864   3.0924246   8.0991459
   7.0643506   3.9497838   9.0610313  58.8911400  50.2207642  47.9119072
  59.2165909  51.0060806  48.3518982  57.9895897  50.4362259  47.6731339
  68.2022781  10.0269747  84.5120392  68.6113281   9.1632671  84.4580154
  67.2621536   9.8487682  84.4865570  78.8637009  54.7674255  66.7487259
  78.7450638  54.1060143  66.0670395  78.0375519  55.2507248  66.7598953
  23.4882584  40.9229889   6.7890692  23.9314709  40.3816643   6.1357999
  22.8596058  41.4398537   6.2852049  56.7628784   7.7259150  53.3988495
  56.4388580   7.8511930  52.5069122  57.1037407   6.8314953  53.4064331
  84.9867096   8.9247398   0.7949718  84.2083130   9.4815416   0.7775813
  85.1017838   8.6454973  -0.1133305  23.4860706  16.6754513  12.6628962
  22.7460480  16.4858837  12.0861273  23.1075554  17.1870575  13.3778906
   2.2989283  22.9690552  58.4511375   2.3841405  23.9135132  58.3208656
   3.1971533  22.6623707  58.5750999  57.5032845   3.7684534  55.8752480
  57.5577469   4.2606096  56.6944199  58.0826225   3.0180800  56.0076828
  12.9651728  67.4044037  61.6241722  12.4679794  68.2148056  61.5133781
  13.4167957  67.2843704  60.7887917   9.1020365  49.1516075  58.0760193
   8.5647640  49.6232262  57.4395103   9.4909992  48.4339371  57.5761299
  73.8207397  67.5017929  74.1108398  73.3531418  67.0251694  73.4249725
  73.8953171  68.3945923  73.7738419  46.7113419  56.9512596  75.0862961
  46.4089279  57.7724457  74.6984329  45.9491577  56.3734512  75.0483017
  27.6267338  63.9850845   7.7807479  28.4248257  63.7905464   8.2721100
  27.5794163  64.9410477   7.7695045   9.0711641  15.0789804  82.7061768
   8.2184191  14.6576986  82.8137817   9.3312521  15.3235712  83.5942993
  85.8052826  23.8183708   2.7990370  85.0266495  23.3492947   3.0989089
  86.5096130  23.4983292   3.3627133  14.1831579   1.3603959  72.3027115
  13.4855728   0.7385222  72.0956421  14.0417604   2.0889606  71.6982040
  85.9940491  68.3519745  18.5975876  86.7957840  68.3943863  18.0763836
  85.3632126  67.9078979  18.0309486  23.2885056  14.6578569  19.7633762
  23.4652328  15.0540428  18.9101257  23.8255234  13.8655825  19.7754211
  51.8848801  17.8804264  23.1257553  52.6790199  17.4086533  22.8747578
  51.1687813  17.3184490  22.8297482  83.3859711  64.2065201  72.5306396
  83.0332794  64.6969070  71.7881012  83.2617645  64.7868500  73.2816544
  80.3054962  32.7581520   4.3416195  79.7139740  33.2902451   4.8737903
  80.6831512  32.1306801   4.9579711  28.8646336  17.1468010   9.0230122
  29.5698833  17.7666607   9.2090988  29.0266132  16.8627205   8.1234045
  65.0255432  21.5372963  57.6228294  65.5573959  22.3328838  57.6427803
  65.3143234  21.0758209  56.8355064  30.6147327   0.8024185  45.6152649
  30.7365112   0.0071984  45.0965881  30.8973522   1.5110550  45.0371742
  48.7140808  16.9279881  66.5437775  47.8264809  16.6593933  66.3065948
  48.6545906  17.1596985  67.4705963  65.8537903  15.2135963  49.4813194
  65.7609482  15.3237810  50.4276161  66.7492905  14.8965731  49.3638191
  46.6158104  16.5321236   7.9006605  45.6680908  16.4087696   7.9540091
  46.7375603  17.1397915   7.1711750  78.0095062   8.9900427  37.1560745
  77.4490662   9.5875330  37.6511917  78.9004135   9.2819996  37.3491631
  25.2389507  35.4584198  79.6232529  24.4176426  34.9670219  79.6086273
  25.1232872  36.0973511  80.3265457  78.6529541  17.4838543   6.6369200
  78.5389404  17.2611904   7.5608549  79.0348663  16.6977749   6.2464705
  48.9165154  11.0120687  65.1339111  48.2199287  11.2644930  64.5278778
  49.1745872  10.1350374  64.8502731  48.8323898   9.2361183  78.2549057
  48.8238487   9.8829851  78.9603958  48.9231758   8.3948469  78.7024002
  48.9240189  60.4188652  12.0866251  49.8597870  60.4891853  11.8978863
  48.6603661  61.3075638  12.3252468  63.1614990  31.2015171  27.6558838
  63.7556076  30.4930916  27.9036789  62.3600044  31.0253315  28.1486263
  81.4572372  19.0284348  30.0121098  80.8771973  19.7578907  29.7937546
  82.0723648  19.3936501  30.6480885  42.8401566  68.1802521   6.9031038
  43.2732849  67.3353195   6.7817683  43.4149933  68.8089447   6.4665990
  76.0010071  66.3683853  54.5111008  75.1273499  66.1039963  54.7993011
  76.5094681  66.4362717  55.3192406  49.4818420  66.2508469  77.7399750
  49.1958809  67.1575394  77.6287079  49.9604416  66.2506638  78.5689316
   7.1363716  56.4226456  17.7194443   6.6696053  56.4674072  18.5539246
   6.7713604  55.6535797  17.2817936  19.0701618  31.2892075   5.1328382
  18.1587353  31.3131104   4.8413582  19.5052433  31.9661083   4.6144357
  31.9696732  61.5316200  52.7775345  32.2997360  60.7944374  52.2638702
  31.9595642  62.2659035  52.1635628  55.3341599  32.2781067  21.0987339
  54.8711243  32.0183601  20.3022652  55.1525955  31.5743618  21.7216396
   8.3106871  15.4709826  72.4609528   7.7367916  15.4870987  73.2268600
   7.7157998  15.3690634  71.7180176  34.9125328  49.1132889   7.2099476
  34.2468300  48.4689598   7.4505949  34.8276672  49.2022438   6.2606759
   7.1378212   8.3171511  40.8931122   6.4286699   7.8540316  41.3390427
   7.1773038   9.1694736  41.3269539  27.4940357  57.9362068  74.3746109
  26.7109013  58.2022743  74.8564224  27.5807209  57.0004387  74.5564346
  78.9199448  63.3906097  12.0469885  79.1488266  62.6712799  11.4584246
  79.1504059  63.0693893  12.9187298  20.8089085   9.2129717  83.0714340
  20.9346981   8.2781878  83.2344971  20.7223454   9.2807140  82.1205673
  44.5678215  43.4473495  84.4729004  44.0859833  42.7727814  84.9514618
  44.3017311  43.3302803  83.5609131  63.6814919  62.3711777   2.4353023
  64.3081207  62.5292740   3.1413991  64.1985550  61.9567947   1.7445285
  77.0801926   2.4638968  70.3138199  76.6825027   1.6645054  70.6588593
  76.9399033   3.1165683  70.9998016  38.4104385  50.1685181  19.5233860
  39.1782379  50.7216301  19.3792171  38.7702789  49.2957649  19.6816502
  86.3959656  48.8877373  23.1587353  86.4797287  48.0634651  23.6380939
  86.7385712  48.6933517  22.2863464  42.5019150  42.5452614  70.4238663
  41.5558701  42.6288681  70.3045197  42.5980110  41.9389801  71.1583252
   3.0077336  67.0324478  66.0094299   3.2274709  66.7317810  65.1276474
   2.5835643  67.8798981  65.8747635  50.1983643  57.8443222  67.1128693
  49.3356056  57.4304504  67.1371002  50.6138344  57.4862480  66.3283997
  75.9932327  53.2583237  53.8552322  76.5833130  52.9177170  53.1829033
  75.5924149  54.0293388  53.4538460   8.2985468  60.8065376  51.7534142
   8.6564131  60.0585785  52.2316551   8.9836884  61.4730759  51.8037987
  29.1506729  50.5037193  73.9056396  28.9390488  50.2647552  73.0032272
  29.6891766  49.7797203  74.2251282  67.4843979  71.0238571  60.0026703
  68.2957840  71.5168304  60.1245995  66.7904816  71.6743927  60.1099358
  26.2086163  58.4216576  37.6797714  25.5748615  57.9484711  37.1406212
  26.5098057  57.7752571  38.3182716  44.0765953  29.7723942  40.5903320
  44.1621437  29.5351849  39.6669464  44.6616135  29.1685753  41.0479279
  56.4501572  42.4966393  20.5627785  57.3332329  42.2145805  20.8012199
  55.8762283  41.8267937  20.9344578  53.4641724  22.5367718  86.4686050
  53.4104767  22.8516006  85.5662613  53.8414078  21.6601791  86.3943863
  39.5499840  15.0623693  82.4843216  39.8439980  14.1532860  82.5422516
  40.2039566  15.5574999  82.9776764  75.6586990  60.0246735   3.1685307
  74.7895126  59.8266754   3.5171695  76.1489029  60.3557320   3.9210789
  33.3631630  19.3248272  68.4687195  32.7411690  19.6096592  69.1382141
  33.5849190  20.1247005  67.9920044  44.7517548  34.5525436  69.1000061
  44.6352043  33.6038094  69.0494919  43.8662491  34.8967628  69.2167053
  19.9595776  22.9018555  66.2829742  19.3235378  23.4569454  65.8317947
  19.6588116  22.0085869  66.1161041  30.3269806  70.6378632  51.5464287
  29.5970230  70.5188599  50.9387856  30.7645798  71.4330063  51.2423096
   4.2436590  69.2610168  24.8814144   3.9670072  68.7826080  25.6629677
   3.5010362  69.1899033  24.2816753  63.3544312  14.0482836  53.2768211
  62.8150101  13.4975176  53.8441963  64.2070770  13.6135559  53.2613831
  20.2261009  66.7600021  64.0478058  20.5289135  66.0529099  63.4781036
  20.9842281  66.9693222  64.5933914  80.3367157  49.3791428  59.5599670
  80.1518860  50.1475945  59.0200119  80.2562256  49.6940613  60.4602890
  13.5966444   5.9295821  49.9685478  13.1748867   5.9711547  50.8268127
  14.5255747   5.8064289  50.1638718  85.9550247  12.5147133  69.8529205
  85.5163651  11.8174047  70.3403244  85.7977524  12.2997847  68.9335175
  17.8409462  20.9006271  72.3703995  17.8892326  19.9736252  72.1368027
  18.7476406  21.1501961  72.5488739  58.5208015   9.8900118   9.1929245
  58.6194382  10.1482105  10.1093502  58.9049454  10.6134157   8.6975937
  84.5611191  34.4736328  58.1090164  84.0358963  34.9152336  58.7763710
  84.9753723  33.7460442  58.5729599  10.6381130   2.6586404  65.1896439
  11.0920382   2.7253881  64.3495636  10.1757736   3.4920070  65.2789383
  80.8024902  51.0919380  24.9651718  81.4156494  50.5340538  25.4437447
  81.3583603  51.6316948  24.4031239  38.8840790  60.6729240  31.9135895
  38.2077141  61.3445702  32.0010719  38.4998016  59.8925705  32.3131065
  28.4545135  62.1509705  51.6741257  28.5477772  61.9684143  52.6091156
  27.9148941  61.4332352  51.3426132  59.4224625  64.9122391  35.1014977
  58.9564171  64.6591644  34.3046379  59.7758713  64.0909729  35.4433403
  81.6146088  64.4143982  21.5581722  82.3673248  63.8640213  21.7743454
  81.2203674  63.9920311  20.7950172   7.0372548  65.3276443  29.9813480
   7.8768797  65.2554169  30.4352703   6.4049859  64.9351196  30.5833359
  48.7664986  65.0891266  82.2724380  49.4425125  64.8863754  81.6258011
  49.2340775  65.1165237  83.1072083  16.1728058  57.2476425  73.5677032
  15.8507967  57.2795448  74.4685440  17.1239109  57.3164558  73.6507416
  37.7962608  68.0935135  32.7583427  38.0167999  69.0148392  32.6214066
  37.8096199  67.7110748  31.8809624  79.2744141  51.0748863   1.8945111
  79.0995026  51.4025650   2.7767041  78.4091644  50.8746834   1.5374463
  85.9060287  59.9683952  16.6916599  86.2518311  60.3860588  17.4804630
  86.6185913  59.4072075  16.3857841  67.7077026  45.5525589  35.6193047
  67.5162811  44.8918266  36.2849045  67.7657318  45.0587578  34.8013649
   7.0986056  58.7068176  86.1570892   7.5474825  58.1609001  85.5115585
   7.0666695  59.5751877  85.7556686  76.9652176  14.3923855  31.7244778
  76.8686371  13.4424028  31.7910900  76.3500595  14.6480627  31.0371361
  69.7521973  28.0018406   1.4382033  69.9709396  28.9331608   1.4061054
  68.8039932  27.9828415   1.5677347  54.8633575  30.4839077  83.8445358
  55.4704132  29.8055973  84.1405334  55.1323624  31.2700310  84.3198090
  29.1668739  39.9592781  83.6483078  28.6014309  39.5175552  84.2818604
  29.7815456  39.2830238  83.3635406  59.5346107   3.0308568  63.4632683
  58.8089333   2.4066589  63.4625320  59.7009163   3.2037127  64.3899307
  71.2810516  59.7727203  82.3223419  70.8908691  60.6125679  82.5645065
  71.3243179  59.2830200  83.1436539  11.9333582  30.5068626  60.5016632
  12.1282864  30.2991657  59.5878258  10.9865427  30.6464233  60.5188599
  12.3934174   4.5025334  33.4748077  12.9088259   5.2918754  33.3089027
  12.8673878   4.0491319  34.1719513  18.4406013  39.6591835   4.5526562
  18.0080433  39.5958138   5.4041901  18.9126987  38.8314934   4.4616408
  67.9921265  62.1137314  18.0427799  67.2607346  61.6234665  18.4182053
  68.0064850  61.8544426  17.1214790   3.9638991  29.0238056  54.6058846
   4.6189771  28.7484913  55.2472191   4.3926935  28.9031830  53.7586441
  63.4492760   6.8920631  63.1940842  62.9649849   7.1212144  62.4008713
  64.0326614   6.1835427  62.9222488  67.4883804  38.9751205  49.0873032
  66.5683594  38.7235680  49.0065994  67.5719986  39.7561760  48.5403137
  44.9914360  60.1542931   7.7897539  44.6699600  59.4085159   8.2964115
  45.7999992  60.4134102   8.2317019   1.5271491  31.3365536  19.1624126
   1.3815742  30.7446671  19.9004555   1.3410527  32.2073975  19.5134602
  76.9944763  11.4538870   8.3495359  77.0391769  10.7008572   7.7603168
  77.8698120  11.5104780   8.7327089  46.0867653  60.4299278  16.5890789
  46.4210892  60.8253136  17.3941422  46.3203850  59.5045242  16.6617756
  48.4301262  32.2237816  64.5435104  48.4917297  31.2876987  64.3532867
  48.6391563  32.2931519  65.4750290  31.9534683   9.2098608  11.2898588
  32.7156029   8.7487650  11.6402464  31.2663155   9.0656710  11.9404440
  48.9757919  56.7439156  28.7764015  48.1918411  57.2640419  28.5999908
  48.6991272  55.8384285  28.6357498  64.5622711  14.0040197  23.9800835
  63.9806175  14.4220839  23.3451576  64.1349182  13.1724148  24.1851006
  70.4664917   4.8300095  68.1359787  71.4046097   4.6725030  68.0294037
  70.2384644   4.3778343  68.9482422  33.1192436  22.4847889   6.3846459
  32.8065834  23.0421619   7.0972557  33.9327888  22.1052132   6.7167578
  71.0020828  32.1401787  81.2098083  70.2308197  31.9290962  80.6836700
  71.2446518  33.0244751  80.9351959  24.8405151  61.6551476  32.4790306
  24.3619900  61.7602463  33.3013458  24.1723080  61.3961411  31.8444881
  58.7365723   2.7105918  52.3432770  58.1420746   2.6918051  51.5933113
  59.0420876   1.8075565  52.4294090  14.8816652  39.9044189   6.4735079
  15.7377520  40.2922401   6.6550102  15.0164108  39.3875732   5.6791854
  46.5808907  21.7344894  57.8883095  46.2587547  21.5376511  58.7679214
  45.8090630  22.0440063  57.4142723  65.9515839  43.8572693  58.6769104
  66.4205627  44.0308151  57.8607178  66.5379639  44.1768188  59.3626785
  21.5044346  70.4681244  53.8787231  21.9132729  69.6493301  53.5982628
  22.0590019  70.7800903  54.5938187  69.6150894   3.3922601  27.9419708
  69.5140305   4.0146151  27.2217674  70.2339401   2.7413397  27.6109791
  51.2476959  57.6896172  49.6185875  50.2943573  57.6156654  49.6622658
  51.4598198  57.5137444  48.7019043  70.3264694   7.2010803  89.2429199
  70.9072647   7.6408000  88.6219864  69.8856583   6.5286016  88.7236099
  82.2180176  21.6437836  47.1263885  82.8447189  21.5656528  47.8456726
  81.5010834  21.0576496  47.3686409  76.8246231   1.6307931  17.0030823
  76.2793884   0.9047028  17.3059711  77.1981583   1.3217497  16.1777382
  46.9186211  16.0267830  36.1329689  47.7626076  15.5803947  36.0647354
  47.1049767  16.9312305  35.8810196   5.4405580  41.1683044  67.0173416
   5.3850937  41.1314774  67.9722214   5.4259543  42.1032066  66.8124542
  46.3097191   0.8396642  45.6250496  47.1719551   0.7588617  45.2173157
  46.4887848   1.1952019  46.4955444  55.6788216  60.4277458  68.4787979
  55.2069740  59.9505310  67.7962570  56.5319481  59.9963264  68.5265579
  23.9024086  68.9360275  53.8078117  24.2503071  69.0221252  52.9202385
  24.5899124  69.2928085  54.3701973  80.3418503  42.9563866   2.3860223
  80.2545319  42.0197830   2.5631700  80.1832428  43.3758926   3.2316525
  85.4057846  21.8634014  58.0928535  85.8722687  22.3447285  57.4095154
  84.7439346  22.4781322  58.4095421  52.5471992  36.4898186  27.8116341
  52.2925377  35.9052048  27.0977669  51.9217873  36.3003540  28.5110569
  85.5799255  42.6260910  57.7376251  85.3943405  42.4789429  56.8101883
  84.8825760  43.2123070  58.0313606  54.4241447  65.7508621  21.4960060
  54.7534332  66.1013184  22.3236408  53.8587494  65.0223083  21.7524567
   5.3032146  43.9186974  49.8699989   4.6649208  43.9789047  50.5807648
   5.0673590  44.6307106  49.2753220  74.1207504  16.9314365  11.2111444
  73.9297180  16.8294735  10.2787600  74.3017502  16.0427074  11.5171356
  28.7527122  34.9272804  18.5798626  27.9572144  34.4155273  18.7265739
  29.3523140  34.3192444  18.1474247  24.9086990  66.8145981  23.1773186
  24.9733448  66.1974411  23.9061375  24.4391823  66.3327789  22.4964085
  27.2731628  35.3670044   6.6654482  26.3532276  35.1626701   6.8333702
  27.2473373  36.0939980   6.0433197  86.0172043  43.0935097  33.0335236
  85.2523880  42.8706398  33.5641975  86.4454041  42.2539711  32.8660431
  31.6570606  11.8235979  77.0707321  32.5254478  12.1448116  77.3135452
  31.7892532  11.3896408  76.2278595  45.2385674  40.7749062  58.8765869
  44.9480286  39.9306602  59.2216492  45.5382729  41.2580566  59.6466370
  13.9582939   3.5232177  60.5944366  14.3558979   3.2485476  59.7681808
  13.3887224   4.2542429  60.3548088  14.3919516  53.1115837   6.9693537
  14.3792276  54.0003700   7.3244987  13.8392658  52.6071892   7.5663099
  54.1339531   1.1531789  20.9205990  54.9410477   0.9345322  21.3864594
  54.3121147   0.9187917  20.0098019  16.3097839  26.7877331   8.0819559
  15.9846592  26.3503304   7.2950597  16.3179646  27.7171822   7.8532825
  31.9294281  52.5989494  19.3831425  32.6091309  53.1240387  18.9606304
  32.3884048  52.1277351  20.0785065  22.6318855  68.1613464  12.7346468
  22.6666279  67.4621506  12.0818434  21.7322121  68.4852524  12.6910295
  79.4629974  20.2891846  19.9623260  78.5646515  20.4004536  20.2734890
  79.3833160  20.2507877  19.0092220  68.2918320   5.3717380  80.2779770
  68.9602737   4.7047944  80.4348145  67.8031464   5.0477729  79.5213547
  69.2408600  13.6334257  33.2262650  70.0494995  13.2879238  33.6043816
  69.3272781  13.4711924  32.2868805  85.5760117  35.8159714  24.0322456
  85.9147263  36.4848824  24.6272736  84.9527664  36.2834854  23.4761600
  57.8240776  54.9393272  41.5052719  57.2914696  54.8771172  42.2981720
  57.1947823  54.8664246  40.7877007  86.1832504  26.6274166  86.2610321
  86.6630020  27.4507294  86.1703262  85.6783371  26.5539474  85.4511490
  49.5995178  66.3349075  84.9428558  50.1979294  67.0374298  84.6886902
  49.2626762  66.6046143  85.7972717  85.6736069  21.1691227  46.1631927
  86.5932083  21.2178307  45.9020576  85.1954575  21.5551586  45.4293137
  17.6419487   3.4978745  28.9223595  17.0307522   3.8794672  28.2922363
  17.0845852   3.0253577  29.5406685  63.9104958   2.9319890  44.6899338
  63.4101677   2.7482808  45.4850121  64.1299515   3.8614562  44.7544403
  11.3721189  51.0339813  18.1510334  11.3194265  51.9896545  18.1628571
  10.6590319  50.7619171  17.5733490   7.4165964  21.6148014  78.9813614
   6.7102604  22.2450714  78.8396606   8.1950026  22.0433960  78.6255264
  49.6496658  66.3239136  47.0054512  50.0640259  65.6135864  46.5155830
  50.3533821  66.9559555  47.1522217  60.0407791  59.5058441  74.3099670
  59.8142929  60.4092102  74.5310287  60.3664627  59.5536652  73.4111481
  51.9209518  44.4458351  75.5572662  51.0375557  44.8051262  75.4750748
  51.8407326  43.5412827  75.2546387  71.8814392   9.1009855  53.1995087
  71.8854752   8.4318037  52.5151024  71.2049789   9.7201376  52.9251175
   3.3294177  23.5874157  22.9758682   3.0796881  24.0025311  23.8014278
   2.6784031  22.8974094  22.8481903  13.8804512  60.8750229  12.5325642
  13.2838116  60.6586456  13.2491074  13.3473845  60.7876244  11.7423534
   2.8555074  69.5513992  74.9264069   3.4509141  69.1481323  75.5581512
   2.9864612  69.0512619  74.1208344  82.8637009   4.2537265  39.0267181
  83.7461853   3.8896036  39.0965424  82.9524460   4.9801245  38.4097099
  29.3711376  59.6375008  31.0255547  28.7983303  59.1342773  30.4468575
  29.9248047  58.9794731  31.4458942  78.1405487  64.8023376  16.7760620
  77.9104767  65.1506805  15.9146929  77.5834427  65.2854156  17.3863850
  72.1607285  38.6241608  51.5374413  71.9427261  39.5335999  51.3334084
  72.1996002  38.1901817  50.6851616  47.4276276   3.4080818  10.1515827
  46.8812103   3.5579891   9.3800964  46.8469925   2.9720695  10.7752714
  76.2255554  37.4666100   1.3350533  75.6055832  37.7400169   0.6589457
  76.1648560  38.1474571   2.0051219  16.7532787   6.9539018  48.5128784
  16.4071178   7.1673522  47.6463661  17.6400871   6.6352792  48.3446999
  27.7419815  31.8864841  86.3792038  27.3437519  31.3932590  85.6620026
  28.6365776  32.0572968  86.0846634  16.7601280  32.0300980  67.8064346
  17.1329918  32.3923035  68.6101837  17.4249992  32.1958351  67.1380692
  75.3181305  43.7342262  32.1180611  74.3941803  43.8549385  32.3370781
  75.4716415  44.3342056  31.3882065   1.0714055  48.3525238  86.2621918
   0.4425020  47.6319923  86.3015060   1.2486956  48.5659561  87.1782913
  28.6878071  56.6621513  45.5917358  28.7809734  56.9460716  46.5010986
  27.7451725  56.5462952  45.4723740  44.5619011   0.6162943  68.6341019
  43.7799683   0.8853820  69.1161804  44.6587524   1.2760350  67.9473724
  73.2163391  13.5530834  19.7181530  73.9845276  14.1092501  19.8477573
  72.6373062  13.7703915  20.4487228  23.3247337  59.7949028  27.5438957
  23.1965275  60.6621208  27.9282475  22.7392998  59.2236481  28.0410557
  15.3831434  41.8962250  46.9531326  16.2191124  42.3200378  47.1474762
  14.7697916  42.2768517  47.5817451  46.2470856  44.6642189  82.6746445
  46.2364311  44.1390686  83.4748611  45.4510536  45.1934128  82.7248383
  15.1779718  58.9177399  43.4008904  16.0084877  59.3574715  43.5828552
  15.0241232  58.3687706  44.1697845  54.9711266  20.4176540  84.4781952
  55.6930428  19.9866199  84.0207214  54.3205223  20.5838566  83.7960510
  57.9546700  54.0773735  31.3214645  57.1714630  53.9862404  30.7787781
  57.9736862  53.2798195  31.8504047  50.8395576  62.9338989  37.4119720
  49.9509506  62.9441795  37.7676468  50.7529297  62.4993019  36.5635300
  39.1600876  44.7390594  44.2656136  40.1033020  44.8985367  44.2994957
  38.7945099  45.5423813  43.8951225   3.4630771  22.5857944  83.6495667
   3.1701999  21.7173500  83.3734207   3.0850251  23.1826382  83.0037460
  35.3478470  69.0737610  35.8714561  36.2721443  69.3091812  35.7909164
  35.0102234  69.6578064  36.5505219  84.2489471   6.2372608  34.1054726
  84.9351730   5.7728667  34.5847054  84.7169418   6.9046512  33.6036720
  68.2178802  54.1446571   6.3222399  68.0569534  54.1014481   7.2648258
  68.0754013  53.2498283   6.0136695  20.8021755  67.1756134  18.1755543
  21.3866920  67.1322556  17.4187908  20.3015079  66.3606339  18.1384869
  75.4501648  52.8376961  68.5131683  75.1962662  52.8460197  67.5902939
  76.3757324  53.0816841  68.5091476  24.1039791  31.2756901  50.8200569
  23.9358597  30.7794380  51.6211166  23.8899403  30.6677780  50.1123428
  24.5266571  62.2267723  71.8292999  24.0927296  62.0893097  72.6713486
  24.5726852  61.3542786  71.4383163  82.7839279   8.2677326  24.2660408
  83.5553436   7.8689981  24.6687298  82.4509125   8.8701687  24.9311771
   9.3612833   9.2532034  79.7352448   9.5474262   9.3846579  78.8055649
   8.7448215   9.9510508  79.9570847  70.6347427  19.8089600  23.0884113
  71.2113724  20.5154953  22.7976456  70.4201736  19.3301277  22.2878437
  22.9989319  31.7748699  87.7363358  23.5256100  32.5549355  87.9105072
  23.2809772  31.4841900  86.8690491  83.8170700  29.4889259   0.3594923
  83.9828796  29.5944004   1.2963023  84.6826248  29.5473442  -0.0450115
  29.7500095  11.9048672  81.1034164  30.4810352  12.3916445  81.4840546
  29.2555809  11.5860033  81.8584671   3.1914570  66.5336838  33.2571259
   2.2552469  66.7249146  33.3134727   3.5167935  66.6651688  34.1476898
  41.6817513  46.4041367  62.9365196  41.4180717  47.3058472  62.7531471
  42.0835342  46.1017456  62.1220512  23.4421978  11.9815969   0.6078415
  22.6920338  12.2929182   0.1013209  23.8171806  12.7740154   0.9921483
  31.6939983  46.5422173  58.0483856  31.8238411  46.6830940  58.9862175
  31.5905094  47.4221382  57.6860809  83.9068756   1.4000349   2.0561030
  83.0770569   1.0878216   2.4168813  84.2800598   1.9439780   2.7497110
  63.6327972  44.0328865   3.7592094  64.2679596  44.2983665   4.4242778
  63.4044495  44.8456726   3.3081310  54.2166710  21.7768192  24.4038010
  54.8928947  22.0397758  25.0281429  54.1001167  20.8392887  24.5576973
  19.7828388   2.1249521   8.4067488  19.3322277   2.7106979   7.7984047
  19.4709969   1.2507241   8.1728430   7.7007356  54.0294914  19.7151394
   7.4818087  53.1004791  19.6427994   8.6207275  54.0389061  19.9792576
  28.4619160  69.6618881  74.8024826  27.7872925  70.2106705  75.2024231
  29.0324287  70.2791901  74.3445663  53.1011963  64.2541962   9.2554569
  53.7503128  64.9252090   9.0442114  52.7807312  64.4960938  10.1243773
  59.3630905  30.9226360   8.9516954  60.1255379  30.3855743   8.7361231
  58.6128654  30.3920994   8.6835051  36.4828529  45.3518181  12.6971970
  36.1355591  45.5781593  13.5599775  36.4801750  46.1779137  12.2136793
  12.6310425   9.4525461  81.6315308  11.7405596   9.3489017  81.9669800
  12.6923504   8.8202763  80.9154892  77.7613983  30.2201023  85.8650665
  77.9357910  29.7230453  85.0658417  77.1663971  29.6639614  86.3679657
   2.6581624  47.1966438   6.8429208   1.9584599  46.5490150   6.7579169
   3.3043988  46.9387207   6.1855874  25.3042908  64.0361328   1.7125440
  25.9789200  64.7091370   1.8029326  24.9646969  63.9167747   2.5994835
  29.5652962   0.1253448  42.5481453  29.4190197  -0.2567914  41.6828117
  28.9505215   0.8576120  42.5936356  49.7081375  43.7284508   7.1859736
  48.8243408  43.3618622   7.2133904  49.8033638  44.0574150   6.2921367
  42.0602913   2.5749457  84.5352173  41.3340034   2.0789967  84.9130707
  42.2672119   3.2368557  85.1949844  22.0017815  33.9788475  17.8103485
  22.4014759  33.6590157  18.6191635  22.6374741  33.7639046  17.1277580
  38.4614182  37.9925652  67.4168320  38.6077919  37.0529366  67.5259323
  38.5713539  38.1447029  66.4782181  23.1101055  26.1510391  27.1660061
  23.1972656  25.2886658  27.5721436  22.9572105  25.9651260  26.2395668
  84.3289337   8.0661421  29.6583023  85.1295013   7.8123527  29.1990452
  84.3934479   9.0172806  29.7443504  84.4942703  10.7866535  29.9038658
  84.4717560  11.0542564  28.9851093  84.8826294  11.5325184  30.3611298
  75.5025864  58.4396286  44.8427238  76.0262146  58.4105301  45.6434746
  76.1470413  58.4391060  44.1349754  51.1098251  39.4775124  18.9757938
  51.5980873  38.8717232  19.5333366  51.6110039  40.2922592  19.0109444
   7.0066156  66.0980072  63.5439034   6.5529728  65.4440842  63.0120888
   7.9159255  66.0588455  63.2475014  43.3627014  70.7186966  43.6400871
  42.6737404  70.2436600  43.1754341  43.5035858  70.2136612  44.4409142
  63.4746361  59.7251587  80.6268845  63.9731827  58.9254036  80.7944412
  64.0789413  60.2868538  80.1415558  69.0927658  36.4207191  63.7395401
  69.5352631  36.2687569  64.5746078  68.5764313  37.2138596  63.8829308
  14.3401966  71.4348526   6.2177658  14.3609858  71.5424423   7.1686726
  13.4165754  71.5317612   5.9858966   4.4679818  61.9910240  69.8843002
   4.7939243  62.5586090  69.1858444   3.5555463  62.2554588  70.0016327
  77.5797653  21.6866875  87.4186325  76.9167404  21.3416710  86.8206406
  77.0775528  22.0696697  88.1378860  14.6243877  70.6321716  17.6884384
  14.3887730  70.0250626  18.3899632  15.5727797  70.5384216  17.5990257
  74.1079941  16.9595108  48.9889030  74.4867325  17.3687553  49.7669220
  73.9050827  16.0652466  49.2634010  22.4992867  33.7198715  12.3759584
  23.4419880  33.7697334  12.5342607  22.4159794  33.1697121  11.5971031
  83.7353516  64.9806671  75.1892624  83.0301285  64.6774979  75.7610779
  83.7345886  65.9323425  75.2919464  70.6560974  35.4629364  35.9937859
  70.2534561  36.2743759  36.3030930  70.7260513  35.5764236  35.0459137
   0.4939773  13.1558142  19.5660629   1.2157893  13.7844133  19.5751438
  -0.2571052  13.6581182  19.2501564  57.0242653  38.8935394  57.0458260
  57.1079330  39.1479454  57.9647980  56.0814323  38.8990059  56.8806763
  16.1564751   2.1848180  41.1205177  16.9815693   1.8609728  41.4818687
  15.6276979   1.3979650  40.9882660  20.9009228  55.0983963  44.6295624
  21.2813702  54.7818298  45.4488792  21.2233448  55.9958496  44.5467834
  35.0524254  45.8715973   9.8626451  34.4722595  45.1402817  10.0743465
  35.6563988  45.5170593   9.2101488  78.6243286  70.1512375  79.2550278
  79.1986923  70.9149246  79.3108902  78.7790070  69.6750336  80.0708313
  78.1480560  54.1861839  22.4007492  78.4755478  55.0842628  22.3513985
  78.6776733  53.7029305  21.7665520  37.2327423  52.5064430  44.2004433
  37.1877899  52.7728920  45.1187134  37.3933144  53.3201103  43.7225380
  13.3624010  23.3189812  65.3562393  13.5625715  22.9140987  66.2001801
  14.1585493  23.7975998  65.1253662  50.9186630  12.1268578  14.2527618
  50.2289276  11.7202578  13.7281904  51.6573257  11.5215654  14.1877394
   3.6661341  23.8091412  28.2437744   4.4958630  23.5838223  28.6645050
   2.9989204  23.5729160  28.8881779  61.7396660  10.4119959  47.4257202
  62.0413589   9.7025700  46.8583336  61.6903610  10.0177174  48.2965508
   4.9567976   6.6219392  45.3969345   5.7299967   6.1102805  45.1590271
   4.2215567   6.0265079  45.2516289  47.2024651  54.2861595   8.3039198
  47.4838104  53.3926735   8.1070576  46.3774643  54.3875580   7.8292394
  60.8037872  37.0336952  19.8979378  60.4450111  37.8558006  19.5637894
  60.1245155  36.6955566  20.4814491  68.4852829  38.8250618  51.5029945
  68.3035660  39.5204506  52.1351738  68.1430664  39.1595840  50.6740074
  36.6139374  48.8907814  50.6172752  35.9936790  49.5156059  50.9929237
  36.7776337  48.2631569  51.3212090  57.4397125  61.5959396   8.7113037
  57.1995201  62.5222282   8.7341785  58.3851929  61.5972900   8.5619793
  10.2295465   9.8977499  21.4910145  10.0134106  10.6016064  22.1026554
  10.5386543  10.3493738  20.7056999  22.7961903  25.3704948  12.1572371
  23.6106701  25.8533020  12.2977686  22.1163330  26.0442829  12.1512508
  77.6349258  70.8289719  82.5567398  76.7636566  70.4394379  82.4833298
  78.2308731  70.1399078  82.2630310  85.0385590  38.5799179  67.0116348
  85.8358536  38.8908882  66.5828552  84.6412811  39.3690720  67.3799210
  83.4064331  64.0793152  66.9003754  83.2411423  64.7002487  66.1909027
  83.3459320  63.2191544  66.4848022   3.9894686  69.7885284  33.9954529
   4.3868060  69.9373627  33.1374283   3.4435923  69.0115128  33.8750839
  70.3976517  39.1541100  29.8793926  70.8368835  38.4255066  29.4407082
  70.7807312  39.9374275  29.4845543  48.3466072  38.5900078   2.4628675
  48.2687836  38.6722984   1.5123922  48.0898895  37.6864166   2.6468613
  78.2399139  19.5254383  71.6660233  77.9498215  20.2356625  72.2384415
  78.4133377  19.9504490  70.8260651   1.3271475  53.6748238  48.9399567
   2.0439410  54.2177773  49.2680473   1.6549871  53.3187904  48.1141281
  16.0737667  64.6489258  67.6655426  15.7589903  64.1831970  68.4403000
  16.4286022  63.9622002  67.1009827  56.1119766   6.7673922  39.4302902
  55.8666000   7.3508244  40.1483650  55.3176994   6.2654839  39.2474022
  55.2729149  29.3105984  72.3859787  55.4848251  30.2396603  72.4763794
  54.9762192  29.0467663  73.2569580  48.4299088  51.2323265  63.3547401
  49.2809448  50.7961960  63.3127670  48.6162872  52.0835571  63.7508507
  85.7282867  16.7138939  63.4789886  86.2195969  17.4374218  63.0899506
  86.3399811  15.9776821  63.4715919   6.7053924  17.8161011  51.2763863
   6.2734571  17.0090046  51.5561371   7.5590453  17.5304909  50.9509087
  76.4541473  56.6295891  77.0353241  76.0199890  55.8169861  77.2949753
  76.5741272  57.1094704  77.8548050  77.7145233  51.6317749  35.4795876
  77.5405807  50.7279472  35.2167664  76.9669495  51.8698540  36.0279312
  71.0230331  47.9227982  32.7716103  70.3639145  48.4336700  32.3017044
  71.7430267  48.5365868  32.9168892   0.6064184   2.9003932  30.2451458
   0.0960833   2.2189655  30.6826916   1.4363148   2.4757876  30.0278587
  63.2474174   1.8356513  54.7778358  62.8965263   2.7260306  54.7596130
  63.8639374   1.8061570  54.0462151  61.2582207  44.6163368  67.0087891
  60.6391830  44.8848648  67.6876984  61.6835747  45.4296989  66.7372284
  36.0285339   2.0957391  48.4467583  35.3974419   1.4035426  48.2497253
  35.6564445   2.8806493  48.0446396   6.2711639  43.1647415  34.0283279
   6.4683228  43.1136703  34.9636078   6.8716979  42.5395432  33.6224670
  13.1264200  59.8378220  55.1478767  12.1985769  59.8936920  54.9193649
  13.1747017  60.1827812  56.0394516  29.2456150  68.1009369  10.5154200
  29.6836433  67.6079941  11.2092285  29.1767521  67.4818649   9.7886162
   4.6492858  60.3183632  66.1859283   3.8466690  60.4759254  66.6831360
   5.3272867  60.7899017  66.6698685  23.7061119  62.5908394  58.4222679
  23.0151100  63.2259254  58.2340813  24.2910271  63.0457993  59.0281677
  20.1866837  36.2950935  62.0348816  20.6891422  35.5111084  61.8132172
  20.8496780  36.9556465  62.2357330  58.6834755   9.6950970  30.5239525
  58.5823784  10.5696259  30.1481724  58.0776558   9.1480713  30.0239754
  62.5766411   7.8262544  46.5599594  63.4076996   7.4216213  46.8086548
  62.3783188   7.4566846  45.6995430  73.0192108  64.7524185  79.7791367
  72.2962341  64.3554764  80.2649078  72.8539047  64.5145874  78.8668137
  24.0420189  52.0293770  75.4612656  23.5572758  51.2046242  75.4290390
  23.7316971  52.4585915  76.2585754   3.6223702  43.4979782  69.7683105
   3.9027190  42.6345901  70.0719528   4.2416573  43.7200890  69.0730515
  31.4320221  40.9558296  72.8577881  31.0559635  40.7059784  72.0137558
  30.7715797  40.6967316  73.5003738  72.5421295  15.9305573   8.4515324
  72.6435013  16.8804741   8.5116301  72.4140396  15.7619371   7.5180488
  40.8512115   8.2587595  77.6234055  40.8160744   7.7541962  76.8107529
  40.0868835   8.8334751  77.5817337  67.9575043  44.9754944  55.3061142
  67.7322922  45.3070564  56.1753540  67.1136017  44.8431358  54.8742104
   4.9724579  30.6703415   4.2570910   5.2183123  31.2828274   3.5638044
   5.8017526  30.2881813   4.5442433  66.6656570  32.5390129  20.1665592
  66.7191772  33.4264450  20.5212841  67.0574799  32.6051292  19.2957344
  59.5959091  35.5534248  33.1082039  58.8887253  35.6085548  33.7509193
  60.3235893  36.0267181  33.5115700  51.5329056   4.4386563  52.5173569
  51.3390083   4.2661934  51.5960045  52.4574127   4.2103791  52.6143570
  59.4848328  12.2294712   7.9252014  58.5725479  12.4343872   7.7203150
  59.9196320  12.1944771   7.0731697  14.7848454   1.4127179  27.4185143
  15.0290585   1.1315331  26.5367393  13.9002247   1.7651314  27.3211327
  40.7312241  66.6140213  85.8740768  40.3920212  66.1514053  85.1078110
  40.3356743  66.1635818  86.6203156  61.4889908  39.7088852  80.2208023
  61.5389214  40.2929688  80.9774933  60.5731812  39.7511978  79.9455948
  23.1647758  22.5664577  62.1942101  23.5917892  22.8277779  61.3783646
  22.7888813  21.7071209  62.0032272   3.1313980  68.8903122  84.2336731
   3.9299231  68.3628922  84.2540359   2.9043474  69.0167923  85.1549149
  69.8752136  67.7587357  66.1444321  69.5999451  68.2269592  66.9326096
  70.8306808  67.8155670  66.1534882  43.1788864  30.6003513   5.6832304
  43.2568817  30.2800446   4.7845912  44.0423279  30.9610596   5.8847179
  78.5099411  67.2766724  83.4770355  79.1472702  66.5742722  83.3479233
  77.6593552  66.8511047  83.3692093  55.8877449   3.1892695  44.4302788
  55.5646248   3.0068688  45.3126373  55.4572983   2.5366945  43.8779221
  39.9843788  46.8002357  71.9447861  39.9010658  46.6942177  70.9971313
  39.1570282  47.1987000  72.2148743  64.2393799  18.0623493  40.6199379
  63.8199234  17.3562622  40.1282806  63.5119820  18.5507584  41.0053978
  83.1238861  67.2676773  83.5967560  83.6697311  67.3044815  84.3822021
  82.4451523  66.6261902  83.8066101  47.9303360  51.0104828  75.5972519
  48.6404114  50.3763161  75.4979706  47.9896507  51.2956657  76.5090561
   7.0448246   6.0167561  67.2722244   6.4913974   5.3576584  67.6912003
   6.8742585   6.8202405  67.7637024  11.5177641  33.8083305  14.3064556
  11.9859781  34.1204147  15.0807991  10.5923023  33.9031944  14.5317402
  20.9287453  63.8339844  17.5396671  20.0171547  64.0907364  17.6786442
  20.8754978  63.0397186  17.0081215  70.9232407  15.2635727  26.4695873
  71.0942612  15.5652103  25.5774002  70.0383148  15.5737276  26.6617813
   3.6851552  35.2614250  63.9171448   3.6155002  34.4088783  64.3467331
   4.3498726  35.7302666  64.4216995  16.1894951  60.4333496  13.8088331
  15.3357410  60.4987640  13.3809814  16.0720444  59.7566833  14.4755869
  49.4387932  12.5234489   8.2744722  49.2075005  11.6353836   8.0023050
  49.9417534  12.4037313   9.0800333  16.3009701  39.6504822  87.7388000
  16.4735260  38.7122917  87.6597290  16.0899734  39.9310875  86.8483124
  24.8499527  56.4239731  24.9653473  23.9822140  56.2849503  24.5859623
  24.8142929  57.3096428  25.3266582  71.3149261  32.8386383  14.5205078
  71.9378510  32.7530670  15.2422228  71.4804993  32.0738297  13.9692516
  68.2454071  54.3596497  15.0180807  67.3792419  54.6714287  14.7558241
  68.4597702  54.8743172  15.7961550  83.9839249  55.4902725  58.7665596
  83.6243668  56.3745804  58.6961594  83.9072876  55.1295395  57.8832512
  20.0519753  57.3765984  87.5173721  20.0122356  56.4218636  87.5733414
  20.5744133  57.6394043  88.2751541  84.4509048  36.0455437  27.6560040
  85.2904434  36.3037643  27.2755547  84.0208130  35.5399361  26.9663601
  45.5261688  18.5691185  52.3315926  44.8187447  18.6401463  52.9724770
  46.2989769  18.3482075  52.8513947  14.2523575  39.0299606  12.1846371
  14.0672312  39.6689262  11.4963913  14.5720940  39.5544891  12.9187145
  75.1332245  56.1721420  74.3214798  75.5381699  56.8362198  74.8793869
  75.5322113  56.3059006  73.4617386  54.1111298  53.4046631  68.0597839
  53.7088890  54.2696648  67.9809875  53.5315819  52.9239616  68.6507874
   9.8282623  35.8349075  79.9074478  10.0776291  35.0330963  80.3669586
  10.0671921  35.6721992  78.9949417  77.6171951  38.6907845  77.6301117
  78.0228729  38.5666237  78.4881516  76.6762848  38.6645813  77.8039856
  82.6714478   5.0142765  66.7581711  83.1663742   4.7408113  67.5305099
  82.3096008   4.2013612  66.4053802  19.1554089  42.6023216  40.0332298
  19.2904301  41.9976654  39.3035774  18.6436214  42.1010818  40.6681023
  58.2150230  54.4216766  53.7845192  58.7646027  54.2686501  54.5531387
  58.6700096  53.9733124  53.0716476  62.5121689  60.1620827  33.9076920
  62.5649490  60.8537445  34.5672798  62.1074791  60.5841789  33.1498718
  37.3078308  51.3764076  85.6245499  36.3751984  51.1898651  85.7324066
  37.5571938  51.8256645  86.4321442  85.6462173  10.8332510  24.5043907
  86.5447006  11.0645218  24.2688808  85.1022491  11.3497066  23.9097424
  67.6917267  50.0828590  78.8599701  67.4450607  50.8854332  79.3195953
  68.5787430  50.2517548  78.5422974  74.4357452  44.0839653  44.2744179
  73.9234390  43.3691864  44.6523972  74.8347626  43.7046471  43.4913864
  50.7230606  40.7288513  22.9077663  50.4860916  41.1670685  23.7251034
  51.6000214  40.3804398  23.0683250  82.4950943  67.1477661   7.7250295
  82.3198013  67.9972916   8.1297741  83.4429169  67.0374908   7.8005452
  74.7107391  40.7343330  15.6762104  74.7962570  40.4120789  16.5734673
  75.3004303  41.4871864  15.6348820  79.6164856  10.4685307  83.7954407
  79.7277451   9.5877943  84.1534348  79.4180450  11.0133352  84.5570450
  41.5740471  52.0107574  69.3461990  40.6389351  51.9020233  69.5193176
  41.9836998  51.2489662  69.7561951  47.2914543  65.9787445  39.4004250
  47.5571785  66.8842545  39.2401810  46.8860931  65.6992493  38.5795746
  24.7625065  69.4413071  50.9368095  24.2523212  69.6030121  50.1432152
  25.2438335  68.6348419  50.7519302  17.2156448  42.9015579   4.2119198
  16.4696465  42.8662148   3.6131971  17.8223667  42.2408524   3.8778770
  20.5925579  51.4926529  41.6250343  21.2593613  52.1793861  41.6257515
  19.9816589  51.7512589  42.3150749  24.9449291  13.9989367  87.1564484
  25.4079494  13.4405270  86.5319290  25.4891720  13.9803724  87.9436493
  56.5995827  58.4486160  31.2336864  56.6771812  58.1678581  32.1454926
  55.9250069  57.8788147  30.8642139  74.3259430  55.6923943  56.7889786
  73.9396820  54.8809433  57.1184959  75.0516815  55.8721733  57.3866463
  35.3657150  61.3727455  58.6313667  35.2018509  60.6014290  58.0887337
  34.9441299  62.0912285  58.1599045  73.3194427  71.1123581  43.2951927
  73.2003326  70.3825607  43.9030113  73.4199905  71.8794861  43.8587837
  72.0091400  67.2613449  44.2575340  72.3849335  68.1068573  44.5027008
  72.7216110  66.6356201  44.3882599  85.6254807  70.7636795   0.4366855
  84.8778305  71.3553619   0.5213371  85.8881302  70.5790710   1.3384444
  58.6281242  10.9698973  23.6748600  58.9064178  10.9814854  24.5906372
  58.4437523  10.0485535  23.4922009  81.2634659  28.8643608  -0.3129562
  82.0254364  29.1314163   0.2011527  80.5448227  28.8400288   0.3188622
  79.0190430  52.6566277  82.1713791  79.1417923  52.1241150  82.9572449
  79.5751343  53.4229240  82.3120422  71.9483643  65.5499115  72.7580795
  71.8128128  64.6207428  72.9438553  71.1189117  65.9649582  72.9946823
  26.9749851  66.8734894  85.4557343  27.6051693  67.4190826  85.9263000
  26.7252979  66.1979141  86.0861969  69.3567276  49.1860313  30.8277855
  68.9201813  49.8922234  31.3041859  68.6856842  48.8457565  30.2360592
  86.0833130  39.6164627   1.3247043  86.9574203  39.6647453   0.9376169
  86.0005798  38.7087212   1.6169277   3.4035833  59.7504654  62.1203766
   2.8292911  59.2627220  62.7107353   2.8176947  60.3481331  61.6558723
  33.2484627  61.1227264  42.9093742  33.5948372  61.4211006  42.0684052
  33.3873100  60.1756706  42.9031601  67.3905487  55.2443924  44.1316376
  66.6703949  55.7552910  44.5012283  66.9798813  54.7065086  43.4546852
  67.3425980  23.4577122  74.0740585  68.1688004  23.0834770  74.3799362
  67.5824661  24.3176041  73.7286911  45.5842285   0.3101660  88.1330109
  44.7949104   0.7769037  87.8584824  46.2589264   0.5983712  87.5182343
  46.7412186  35.8087845  51.5712509  46.3797112  36.5462646  52.0628471
  46.8575172  35.1192284  52.2248688  51.2764053  61.6747246  41.8386841
  50.8650360  61.8952866  41.0030060  51.9248238  62.3653030  41.9761047
  56.8200569  34.3905830  21.8024406  57.6669922  34.0954857  22.1368847
  56.3695107  33.5854492  21.5474796  16.4981689  67.9650726  28.7872391
  17.3560886  67.8962173  29.2061234  16.4052658  68.8956375  28.5831604
  85.8599396  67.0184555  86.5599823  85.1988678  67.6954117  86.4152679
  86.2431564  66.8692474  85.6956253  40.6471596  48.1288795  59.9413528
  40.3193359  49.0109749  60.1164742  41.5481834  48.1397247  60.2642632
  43.9404602  64.8690414  47.1810760  44.0675812  65.5400620  46.5104027
  44.3270187  64.0782471  46.8049774  67.0515137   9.0080128  27.2094593
  66.4749680   9.7527599  27.3802910  66.6750412   8.2915182  27.7204781
  48.3835373  19.8900604  83.5776291  47.7066994  19.6126919  84.1950302
  48.0278358  20.6804466  83.1714325   1.0186588  32.5779686  81.1784592
   0.6721995  31.8502750  81.6948547   0.5313534  33.3426437  81.4851227
  36.9054565  12.9689770  61.5717468  36.5173569  12.2114439  62.0096436
  37.6031952  13.2549620  62.1613274   8.2586298  29.1920490  71.3049316
   7.9742560  29.4157085  70.4187317   8.6211548  30.0067348  71.6529160
   2.4406540   1.7166086  65.7230072   2.7019682   1.5304463  66.6248322
   2.5741317   0.8898518  65.2594452   9.8311338  38.3126106  51.8250618
   9.6812677  39.1784363  52.2046928   9.9411526  37.7355194  52.5807648
   6.9489293  45.6380539  54.7221336   7.4480376  45.2172661  55.4221764
   7.4673176  45.4838753  53.9323654  71.0529709   2.2591767  34.8541908
  70.1997223   2.0922225  34.4537849  71.5941391   1.5177853  34.5826912
  68.1253281  26.6210289  85.1223679  67.8474808  27.4484310  85.5153656
  67.4068222  26.3804932  84.5374527   5.2408257  20.4536934  85.0914536
   5.8555284  19.9724216  85.6453094   5.6949010  21.2701492  84.8830185
  15.5431805  64.3261032  45.6723480  14.8875284  64.4151306  44.9806633
  15.1820335  64.8184433  46.4095078  50.2350655  40.3950157  16.0252686
  49.5496407  40.0849152  15.4334373  50.4407539  39.6365891  16.5718174
  37.7138100  42.7177734  24.5600986  37.5932961  41.9457817  24.0071640
  37.7575264  43.4491234  23.9441051  44.8550949  36.3452454  84.3765411
  44.8987503  35.9291916  83.5155945  44.9137611  37.2827988  84.1927338
   7.5516758  51.7876549   2.0507901   7.3429952  51.1907196   1.3322151
   8.4294357  52.1104012   1.8468180   2.6109035  33.7647362  44.6859245
   1.7648067  34.1902390  44.5470047   2.3940592  32.9309311  45.1030350
  62.9930458  38.5245743   6.2388244  62.4199829  37.7705879   6.3778749
  63.5438843  38.2732506   5.4974432   8.6075172  61.9686432  69.1800003
   9.4132442  62.3190956  68.8002396   8.9008055  61.2576866  69.7498703
  57.0654793  25.0796642  59.2409668  57.2748146  24.2692871  58.7765312
  57.3611755  25.7754345  58.6538544  15.8547277  50.2144814  57.9971237
  16.3272896  50.4053497  58.8073616  15.3739128  51.0195389  57.8049507
  86.9382858  47.7920303  28.5966797  86.3075485  47.3792915  28.0067272
  86.7029343  48.7197990  28.5878391  14.1967812  49.7576637  83.2627029
  14.4119825  49.0722466  83.8952560  13.4963474  50.2582932  83.6810303
   9.9404402  18.7358265  88.8628616   9.9963160  19.4706745  88.2520370
  10.8470058  18.4514084  88.9789505  17.1937084  56.6783791  54.7913704
  16.8369427  57.4669647  54.3826180  16.9438744  56.7520599  55.7124519
  74.6136246  40.0604668  11.7304134  73.6787186  40.2349281  11.8388090
  74.8076630  39.3834305  12.3786440  43.7457314  42.3178978  39.6233864
  43.8941154  43.2328377  39.3844261  44.6127739  41.9148827  39.5781097
  56.8156853  36.6763077  76.8870773  56.2184258  35.9329453  76.8038559
  56.7360573  37.1419029  76.0545425  25.0348873  30.6491089   1.8910301
  25.5852985  31.4265594   1.9851029  24.1499710  30.9570217   2.0868521
   2.1895156  33.5830307  20.6826286   3.0082633  34.0198936  20.9172268
   1.5524880  33.9113960  21.3171406  61.8438148   6.7125449  34.6912041
  61.5172882   6.6511102  35.5888901  61.1146851   7.0860972  34.1961670
  78.0070572  17.2151108  78.0015182  77.5060196  17.1414490  77.1892624
  77.9470062  18.1409855  78.2368469  49.6828461  11.8842773  79.6939774
  49.0949478  12.0366077  78.9541092  49.0996170  11.7794790  80.4457016
  82.5503998  69.5354843  34.3284569  82.7888870  70.3234100  33.8400574
  82.5294800  68.8420563  33.6689529  53.1631355   6.2122564  22.7702084
  52.4828606   6.3635731  22.1140385  53.0947456   6.9606242  23.3630829
  53.2600708  27.6142807  63.4685783  53.8238068  26.8845291  63.2118721
  52.5059547  27.1987743  63.8867836  63.3334770  27.0527344  20.7147751
  63.2335091  27.2937012  21.6357384  63.0557404  27.8312130  20.2320061
  25.2530785  18.0944843   8.3661385  24.7225018  18.8405590   8.0866852
  24.6381760  17.5214558   8.8241425  31.2296410  68.7956772  26.2662449
  30.5840530  69.4458237  26.5432873  30.7071629  68.0490036  25.9734478
  11.8999748   0.5338997  60.1989708  12.3427811   1.3823345  60.2166710
  10.9676247   0.7499338  60.2158318  62.7210159  19.1962261  64.4015961
  63.1386375  18.7429466  63.6692238  62.7783051  20.1239853  64.1730881
  76.7233734  15.3443775  79.6390762  77.3166122  15.8465147  79.0803604
  77.1125641  14.4707127  79.6774521  67.1991119  62.6312561  11.6528225
  68.0188522  62.8496246  11.2094526  67.4600372  62.4236526  12.5500708
  60.6655807   0.6788333   3.7491298  61.4332771   0.2879716   4.1663861
  60.3471603   0.0021638   3.1516705  40.1252136   4.5231905   6.6373153
  39.7730789   5.3618684   6.9353981  41.0713806   4.6619439   6.5955391
   6.6518445  57.6783333   0.5057976   5.9492888  57.2365417   0.0288602
   7.3954964  57.0785751   0.4466082   6.9807162  27.7985725  75.4967346
   6.3209791  27.1397171  75.7132721   7.3527184  27.5011559  74.6664429
  69.6760483  48.4735909  53.2143898  70.1848831  48.5161171  52.4047508
  68.7638397  48.4764786  52.9244118  15.0031195   2.0680094   8.5917740
  14.5934734   1.5321376   9.2709379  15.7146120   1.5239658   8.2540970
  36.0950737  50.3812027  63.4862709  36.6870651  50.1689186  64.2078781
  35.4700241  51.0002899  63.8634682  41.9695587  39.9525108   5.5496497
  41.5135078  39.9712486   6.3910179  41.2968292  40.1789818   4.9074807
  48.6583405  11.8782454  88.4192200  47.9257736  12.1804018  87.8823013
  49.1774254  12.6659737  88.5812836  50.9860077  16.6066780  11.6815815
  50.1684685  16.1237698  11.5604944  51.0263214  16.7772217  12.6226034
   3.2062669  52.5613441  54.0970879   3.3226094  52.1782646  54.9665375
   2.9230351  51.8295784  53.5488853  54.5612411  33.5685577   5.1007071
  55.4125099  33.1876526   5.3163137  53.9894409  32.8136711   4.9613547
  78.7703705  23.2127380  60.2357483  78.1752548  23.4288387  60.9536476
  78.3960953  22.4238205  59.8436241  71.5962219  34.9191666  81.0796356
  71.0466919  35.4820213  81.6250076  72.4611130  34.9609604  81.4876175
  37.7052002  68.2969055  23.1509705  38.4129181  67.7098007  23.4168148
  37.6021996  68.8974991  23.8891544  62.5711670  31.1558418  60.6153946
  61.8592720  30.7929363  60.0883827  62.2296867  31.9901581  60.9371719
  37.5579605  56.6311722   3.1362579  36.7947960  57.0502357   2.7385170
  38.1557045  57.3539696   3.3272917  51.5082207   9.0585613  62.8450432
  51.9379272   8.8572350  62.0137482  51.2948151   9.9897356  62.7850037
  24.6860371  19.3630829  11.4040346  23.9060726  19.3615170  10.8491611
  24.3441372  19.3882561  12.2977362  76.6503601  10.9618473  63.2886124
  77.1733856  10.5488138  63.9756927  76.5380020  10.2773666  62.6289978
   2.1978042   1.1474687  11.9549694   1.7754967   2.0063558  11.9691563
   2.1881018   0.8606867  12.8681469   7.5186305   9.8337545  24.0290489
   6.5718989   9.7643614  23.9061012   7.6719689   9.4877882  24.9082680
  45.6339035   9.4934521  16.9093399  45.6174812  10.4427671  16.7878342
  45.2774391   9.1413918  16.0937309  46.5987587  49.8860435  18.7161026
  46.3493042  49.1367340  19.2569714  46.0518837  49.8096924  17.9342270
  78.4184418  52.0928764  32.7388916  79.0486603  51.3892021  32.5843048
  77.7966919  51.7240067  33.3662682   4.7568412  33.5565109  36.7117767
   4.2476897  34.2513390  36.2943916   4.6663733  33.7237930  37.6498947
  39.2088509  56.0475464  49.1808052  38.5899773  56.7530479  48.9923935
  39.3177757  55.5947952  48.3445168  68.8309479  65.4376144  66.8126678
  67.9417572  65.2984009  66.4867935  69.0929184  66.2801056  66.4414444
  37.3457642  48.7568512  67.5787506  36.8843727  47.9473495  67.3595276
  38.0505409  48.8131065  66.9334946  74.6419296  46.5634003  45.2809944
  74.8489838  46.8898163  44.4053192  74.5087128  45.6231651  45.1608200
  78.5397415  59.2659912  34.4312439  78.6964722  59.5985718  33.5474701
  78.0430450  58.4585533  34.2987175  27.6179123  60.0462875  47.5522194
  28.2725449  60.4557838  48.1179047  27.7495670  60.4566498  46.6975250
  11.0696001  37.4191589  82.3319855  11.0405560  37.2669792  81.3874054
  10.1952190  37.1807823  82.6399918  69.5656662  12.1332264  54.8709602
  68.7689438  11.7324266  55.2185593  69.4686966  13.0656681  55.0643044
  71.1672363  14.5185013  21.8576279  70.7981873  15.3083782  21.4624901
  70.4070206  14.0342302  22.1797905  78.8867645  53.7771797  85.8510056
  79.6613159  54.1921196  85.4713669  78.8651352  52.9049225  85.4573898
  83.9573746  12.6153755  50.4413452  84.5252533  13.2742157  50.8409386
  83.0696869  12.9037533  50.6536713  50.1747856  10.4487152  30.3587437
  50.7436371  10.4082079  29.5899773  49.2900772  10.3474264  30.0076561
  18.7703419  20.1174297  65.0048447  18.5480309  20.0830593  64.0744553
  17.9658089  20.4105625  65.4326630  71.9113464  25.1471443  14.5075235
  71.8978119  26.0866241  14.3246918  72.6949768  24.8273907  14.0603981
  19.5955906   3.8379998  87.1951675  19.6239758   3.2213211  86.4636383
  20.3121433   4.4484940  87.0217209  41.7479248  19.0054417  72.3298645
  41.6158676  19.6742134  71.6578979  42.6491013  19.1367455  72.6246185
  74.0503159  42.1097450   3.4097824  73.7079926  41.3333397   2.9667902
  74.3433990  42.6809120   2.6997807   0.8328145  45.1911163   7.0103407
   1.0168395  44.6124611   6.2703910  -0.0726102  44.9932785   7.2497096
  70.1059875  22.2893162  79.5342560  69.7804642  22.8941612  80.2009125
  69.5855103  22.4880638  78.7558975  81.2189178  26.5300159  80.2971420
  81.7521286  26.6020737  81.0887985  81.2248993  25.5958405  80.0885468
   0.7240957  44.9043770  28.0734577   1.4332552  44.3081779  27.8328953
   0.3618145  45.1956177  27.2367001  19.8658638  41.4259644  73.2742081
  19.3312130  41.2716408  72.4953918  20.5345783  42.0474167  72.9863739
  27.2811432  11.5813122   4.4514508  26.5514088  11.7099037   3.8454945
  27.3990498  10.6320429   4.4863586  65.7331772  14.0689774  38.9811287
  66.1940689  13.2529249  38.7865257  65.9483261  14.6461477  38.2484512
  13.3159475   2.6441519  31.2037811  13.1869612   3.4583471  31.6902790
  12.6197138   2.6447735  30.5469017  42.7550697  19.4453297  78.1613998
  42.2624817  18.9882126  77.4797592  42.0840912  19.8013401  78.7438736
  85.1238556  16.8439980  72.8725586  84.6287766  17.3268166  73.5343857
  86.0054245  17.2144470  72.9153595  22.1454258  69.9233780  75.2228622
  22.8487053  69.3573380  75.5410156  22.3336926  70.7790222  75.6084213
  26.9951687  47.0320435  82.1551285  26.9707031  46.0959740  81.9566040
  27.5539494  47.0981369  82.9294815  11.7673178  54.9496155  28.2589664
  12.2036209  55.7474022  28.5579815  11.6787701  55.0652580  27.3129120
  70.2902222   8.3003454  39.2682762  70.9049530   8.3437166  38.5358467
  70.6175842   7.5850935  39.8136940  16.9391365  33.3196182  76.8289566
  17.5582676  33.2257271  76.1050186  16.4828415  34.1415520  76.6488113
  54.3619041  11.9516726  63.3329659  53.8276024  12.7265978  63.1590576
  53.8681602  11.4632082  63.9916382  51.2585716  27.2979050  14.9929056
  51.3464279  26.5408993  15.5720901  52.0642624  27.2988567  14.4760990
  69.7892609  22.2108173  43.4909401  70.6866379  22.5146656  43.6274147
  69.8264694  21.2697086  43.6617012  16.5342522   3.8298323  70.4981537
  17.2748852   3.2947712  70.7834625  16.4219341   3.6097252  69.5734024
  50.5103989   1.9096793  71.6304550  51.0756989   2.5039797  72.1238861
  50.3819771   2.3455472  70.7879791  55.4725647  62.9526138  16.0691795
  55.6004105  63.7941933  16.5069351  56.0302124  62.9994240  15.2926054
  66.8817902  62.4495544  82.2255402  66.0550690  62.9145012  82.3543243
  67.1980972  62.7544518  81.3751144  57.7925568  34.5756798  17.7581768
  58.0105247  35.1056633  16.9914703  57.3740425  35.1890564  18.3622074
  66.8477402  57.7635841  87.7954178  66.0589523  58.1451988  87.4101562
  67.4823685  58.4801369  87.8009186  54.5267868  46.2354622  39.0085564
  55.1031647  45.5041504  39.2303696  53.9652748  45.8951454  38.3120499
   6.6707401   6.2435303   1.6852918   5.8954291   5.7814126   1.3665885
   6.8427320   5.8584666   2.5445802  32.3827629  49.7338524  16.3138599
  32.7552490  49.2241554  15.5943518  32.6715202  50.6309776  16.1464596
   4.8024559  18.3117638  28.4274788   5.1317787  18.3516541  27.5296001
   3.8505392  18.2798424  28.3322544  79.9551544  68.9436111  85.0202713
  79.7795715  68.4846191  85.8416901  79.4902191  68.4337311  84.3568802
  78.0617752   7.3161268  77.1049576  78.0904236   6.6432710  76.4247589
  77.8285904   6.8407831  77.9023972  76.2299576  28.7861824  87.5105743
  76.7064209  28.0168743  87.1985168  75.3115768  28.5909595  87.3242874
  50.8504295  65.0948792  16.0741024  51.2650948  64.8272552  15.2539415
  51.3025856  65.9022903  16.3187809   2.3591366  54.2989006  81.2379227
   1.5358194  54.7012024  81.5145721   2.1165590  53.7405357  80.4992676
  60.4135551  11.6582918  19.8464718  60.9279861  11.1773682  19.1981621
  60.9830933  12.3780727  20.1180859  74.2612610  39.6300507  80.2647934
  73.3919067  39.7978401  80.6285248  74.6310577  38.9525299  80.8308716
  58.4745789  51.7213860  51.9593315  57.5304413  51.6319733  51.8295593
  58.6142654  51.4810600  52.8752785  73.3273773   8.6387796  34.8636551
  73.5400238   9.0393496  35.7066002  72.4869156   8.2046804  35.0099831
  57.2753601  39.1086998   2.6192672  57.0612183  39.1765289   3.5497365
  58.1321945  38.6823883   2.6011491  28.9348621  17.0724525  75.6968613
  29.8872738  17.0872803  75.6024094  28.7494240  16.2355843  76.1228867
   0.4201545   4.4785352  53.1862793   1.1898152   4.7141247  53.7043076
   0.1739334   5.2892165  52.7408562  18.5113735  28.5936966   9.2264881
  18.6266956  28.7721500   8.2931671  19.1950264  29.1086502   9.6550598
  53.0560951  55.7581673  81.5192871  53.3081894  54.8884773  81.2089310
  53.8361206  56.0889397  81.9646835  53.9872665   9.1947079  74.4968185
  53.4541740   8.4252462  74.2968826  53.4021988   9.9371510  74.3461380
   0.8792008  35.1509743  66.1656570   0.3289418  34.7469368  66.8366241
   1.7514236  35.1831093  66.5586243  62.0195999  27.1711369  73.9308472
  61.8586884  26.3861580  73.4072495  61.1464920  27.4866753  74.1639709
  15.3282633  40.3915482  50.3294945  15.0195332  39.5372391  50.6312752
  16.1187458  40.1964531  49.8261948  68.1323013  44.0489807  67.9330292
  67.9694519  44.8718376  68.3941269  68.5409622  43.4838486  68.5886612
  60.9745941  28.1700134  66.1735077  61.6550255  27.8788624  65.5664902
  60.1529465  27.9277649  65.7463760  46.7735558  58.6118927  70.9954453
  47.2288742  59.2240105  71.5735703  46.6942177  59.0808945  70.1647949
  54.8406906  57.2616653  82.7976456  54.1613007  57.6371193  83.3577271
  55.3819313  58.0092049  82.5437241   1.4842554  17.1811008  67.0833511
   0.6830748  17.3717442  67.5711975   1.4310071  16.2447624  66.8918610
  22.8121433  68.2901154  38.5369682  23.3856068  67.6285095  38.1501160
  23.0971088  69.1143417  38.1424141  69.6863556   0.4846240  78.5672989
  69.5291519   0.1806153  79.4612198  69.8552094  -0.3147986  78.0686569
  40.8766518  43.6486511  57.9039536  41.5561638  42.9907455  57.7567825
  40.1189461  43.1471825  58.2050247  63.0228653  15.5328493  22.2134895
  62.0744934  15.6583233  22.1806507  63.3784332  16.2591419  21.7013321
  28.0432835  61.6535301  26.2589760  28.2565346  62.1213875  25.4515953
  27.7073231  62.3304558  26.8464584   9.0645990  64.4246826  50.1597710
   9.9541121  64.0941544  50.2852707   8.9666815  64.4942169  49.2101364
  22.9648228   6.8544874  52.4548683  23.7886810   7.2623940  52.1882172
  22.8881302   6.0816116  51.8953934  75.8160629  29.7377110  45.3268051
  75.8260651  28.8094654  45.5602379  76.5052719  29.8265858  44.6685371
  57.7258644  62.6153793  81.3724213  57.4913673  63.4487419  81.7807693
  58.6259422  62.4547081  81.6557541  53.0847969  50.0883904  10.3651915
  53.4475098  49.8992844   9.4997969  53.5333633  50.8868141  10.6436491
  67.2572708  23.5117283  29.2681828  67.0920410  24.3368549  29.7243595
  67.3136444  22.8592339  29.9662533   6.9732394  50.6599045  75.4145660
   6.5666075  50.0363617  76.0162964   6.5349693  51.4907837  75.5983887
  58.4288826  19.3166656  75.7942047  57.9884567  19.0902901  74.9750519
  58.3981514  18.5126953  76.3127823  80.5778427  30.6253204  48.4443321
  81.3153763  30.8060322  49.0270996  80.0039215  30.0538349  48.9544830
  82.1092987  64.8608856  41.6833878  81.5554352  65.6179810  41.8738289
  81.8599014  64.2104721  42.3398895  27.8109856  38.3533516  85.3541336
  27.5635891  38.9891129  86.0255737  28.2460060  37.6511879  85.8378220
  46.1752586  49.3265915   8.9845190  46.5861282  50.0232124   9.4965172
  46.8870049  48.9666901   8.4552555  72.5022583   6.2960453  63.6739769
  72.9524536   5.5686049  63.2445831  73.1286163   6.6154423  64.3235092
  49.4002380  25.7922459  58.6319504  48.4441757  25.7640915  58.5948029
  49.5949173  26.4690895  59.2801895  83.2690506   1.7114781  88.4395065
  83.7257843   1.7029376  89.2806702  82.4298172   2.1319516  88.6269073
  52.9673309  69.4587326  60.0226021  53.0353355  70.2555161  59.4965401
  53.2101364  68.7538834  59.4222183  45.3169823   2.6867177  40.4466133
  45.3388443   3.4959533  40.9573898  45.6584435   2.0188589  41.0412560
   0.7180151   7.2674479  60.5871696   0.8870650   6.8480835  61.4308434
   1.4121778   7.9208760  60.5011368  82.6681671  40.2989960  57.8492470
  83.3889008  39.6905403  58.0122108  82.8713837  40.6887741  56.9989510
  29.1927166  10.5644217  55.4738922  28.5113125  10.9096613  54.8970642
  29.0608597   9.6164532  55.4597321  82.2299805  51.8331299  87.1416245
  82.2400284  51.5031929  86.2431412  83.0542526  52.3116112  87.2303009
   7.8416300  55.8253708   9.4095316   7.3811512  56.1304626  10.1912680
   7.2587457  55.1681061   9.0294266  60.1646576  15.8329897  75.2217407
  59.6612663  15.5389585  75.9809341  60.9807167  15.3348513  75.2679367
  77.1972427  35.3611031  44.5853004  77.8833466  34.7572708  44.3009109
  77.0227356  35.1146965  45.4936295  45.9752007  46.7062416  72.1669083
  46.0379944  45.7622986  72.0210876  45.3515472  46.7963181  72.8874435
  70.7031021  30.8652000  63.3190079  70.5343628  31.5802803  62.7054787
  70.2606735  31.1316509  64.1249161  46.9376030   8.6095448  52.1567039
  46.3218842   8.9978247  52.7782822  47.7935181   8.9404249  52.4290237
  80.3444748   8.6029911  66.7664490  80.5555191   8.1054459  67.5564728
  80.8931198   8.2145233  66.0850449  68.2797775   6.4662662  62.5010643
  68.1620712   6.6150098  63.4392853  68.7995911   7.2129302  62.2035484
  61.7262001  34.0550766  28.7497635  61.1824188  34.4791946  29.4135838
  62.6166229  34.1142616  29.0959892  34.1809807   3.0598609  62.0061073
  33.2903976   3.3896101  61.8862801  34.1284180   2.1350186  61.7649956
  29.3997402  37.2725296  71.0753174  28.7979298  37.2730217  71.8196640
  30.1284313  36.7193642  71.3568344   0.3460391  59.9463615  70.0245209
  -0.1611477  59.5918655  69.2942276   1.2038149  59.5290146  69.9453125
   1.1904211  35.3528595  30.7307892   1.4290376  34.9186897  31.5498066
   0.2379031  35.2703362  30.6846294   3.8614128  24.6709232   7.6189857
   4.0632720  23.8611908   8.0878325   3.4834206  25.2453671   8.2848444
  61.4677048  56.7064018  62.1081352  62.2504349  56.1612968  62.0280037
  61.1404152  56.7886963  61.2124023  76.2673187   1.3593045  21.4791203
  77.0350723   1.4634672  20.9170341  75.6491394   0.8559057  20.9493351
  31.4718094  29.0010738   5.3537312  31.4082756  28.0797615   5.1019812
  31.1431370  29.0270290   6.2523589  31.5396461  35.1912003  85.3289490
  31.0557652  34.3977547  85.5581589  32.4494171  34.9034348  85.2531891
  30.2240353  55.9674034  56.6583786  30.9599190  56.1600647  56.0773544
  30.1177082  55.0177193  56.6033897  41.2907410  41.1766014   7.8627076
  40.3674622  41.1911087   7.6105657  41.3297577  41.7055550   8.6595259
  18.2004204  62.9595070  32.9664116  18.6011581  62.1412506  32.6729965
  18.0241203  63.4428024  32.1592064  40.2620735  61.0143433  52.7914581
  40.8870163  60.5430031  52.2405281  40.7934303  61.3764877  53.5004997
  48.1754799  45.5319519  28.4677315  48.9171715  46.1267052  28.3564167
  47.8098145  45.4378586  27.5881481   2.1963379  41.4721947   3.3749640
   2.9382167  41.6573143   2.7991352   2.3134160  40.5569763   3.6297174
  30.1048660  62.5728912  21.4001904  31.0285606  62.3263283  21.3529930
  29.9624062  62.7927933  22.3208313  18.8424435  36.0101509  21.8029194
  19.7584610  35.7585564  21.9205780  18.6744690  36.6383133  22.5053654
  54.7775345  64.3485260  55.4012642  55.1443977  63.6602135  54.8464050
  53.8950348  64.0425339  55.6105461  75.0919800  41.9404335  46.0153465
  75.1850662  42.6000175  46.7027435  74.2461166  42.1335716  45.6110535
  38.7124939  42.8459473  17.6138000  38.5356865  42.1190605  18.2109623
  39.6635170  42.9513550  17.6397686  70.5953445  53.0149765  16.1852665
  71.3265457  53.4199524  15.7188206  69.8641739  53.0593414  15.5691042
  26.9522762  14.8272419  -0.1309108  26.2520695  14.4568348   0.4064361
  27.0499077  15.7244196   0.1881072  43.5439796  15.1185617  65.0071564
  43.9476013  15.0280199  65.8703613  43.6376648  14.2540426  64.6070786
  82.6904602  71.1378937  87.1705170  81.8272705  71.4520035  86.9013214
  82.9947281  71.7873917  87.8043900  83.5199966  47.5372276  86.6298599
  83.7409210  46.6519966  86.3403854  82.7406845  47.7671814  86.1238708
  72.6786575  64.3218307  42.2555275  73.1860809  64.7219543  42.9616814
  71.8511581  64.8029404  42.2528763  57.9835434  65.1444244  53.4931793
  58.1236382  65.5942764  54.3263893  58.8648796  64.9439621  53.1780701
  15.2463522  47.3706818  51.5400124  14.3011131  47.4989090  51.6194649
  15.5011559  47.9202576  50.7988853  22.2317123  49.2392883  42.4190712
  22.4675312  49.5134544  43.3053284  21.8288174  50.0144081  42.0278015
  26.0709648  32.9490738  68.8233871  26.8254776  32.7377319  68.2735901
  25.9122391  32.1519356  69.3289719  20.0454464  47.4547043  71.7263412
  19.9517441  48.0248451  70.9631882  20.4624996  46.6637878  71.3846588
  45.1527061  70.0104141  46.1204033  45.5465508  70.0153961  46.9928131
  45.5594406  70.7505035  45.6697731  23.3950863  59.3231812  64.8260880
  23.9526482  58.6124115  64.5095978  23.9878025  59.8918571  65.3175354
  76.1924667  57.3219109  38.7291794  76.9120636  56.8191872  38.3475037
  75.4203110  57.0487938  38.2337799  70.8147812   8.1495390  48.6570930
  71.5252075   8.5212994  48.1342888  70.1581116   7.8829489  48.0137062
   7.1231565  70.8350220  13.3171549   6.5531235  70.5823822  14.0434227
   6.5293636  70.9490967  12.5751104  62.1166382  18.6061764  35.0065041
  61.2928658  18.8161430  35.4464378  62.3466949  19.4063549  34.5342560
  22.1166573  44.4163399  87.3408737  22.2670174  44.2354774  86.4130249
  22.1190414  43.5540543  87.7564316  15.8825073  57.4517937   1.0285494
  15.9248314  58.3975487   1.1699123  15.5964117  57.0964088   1.8700268
  50.1510849   2.0666120  64.7960052  50.1566238   3.0226870  64.8420715
  50.4617195   1.7835810  65.6560211  75.0935135   4.9558477  75.5351257
  75.1290283   5.5807056  76.2593689  74.4148254   5.3003211  74.9546509
  70.8996658  50.0513077  36.0584412  71.8254395  50.2586746  36.1856003
  70.4752045  50.3468170  36.8638840  32.1553650  17.0088291  83.5979462
  32.9984398  16.6215172  83.3624725  32.0032349  16.7221413  84.4984436
  18.1654301  70.9785614  22.3133850  18.0314598  70.6188278  21.4365311
  18.3632240  71.9033127  22.1652374  32.8335419   6.0481777   2.2982647
  32.2398300   5.6267085   1.6768934  32.6666107   6.9846463   2.1915259
  54.8321304   7.3398032  81.0589142  55.5928345   7.8149490  81.3932800
  55.1966896   6.7142467  80.4328079   0.8613542  35.5087166  73.8468399
   1.2388947  34.6406136  73.9885941   0.6202337  35.8109322  74.7224884
  17.3544788  19.4184513  74.8439331  17.6260700  20.0838337  75.4761810
  17.3247795  19.8815289  74.0067368  26.5113106  54.8265610  48.8530273
  25.9260368  54.8967819  49.6071854  26.0722466  55.3226280  48.1621056
  82.2090225  15.2214880  36.4456635  81.5841064  15.2418928  35.7208900
  82.9210892  15.7959146  36.1641922   1.7681904  57.0359001   7.2836504
   1.5379272  57.8080902   6.7669964   1.0013872  56.4667015   7.2184148
  39.3104858   3.0217912  68.3674088  38.4040527   2.8828664  68.6418457
  39.4630775   3.9560857  68.5089798  16.3136501  42.9390488   8.3152771
  17.0459270  43.0916405   8.9125366  16.4669456  43.5434723   7.5890498
  54.0535355  19.1324234   4.1883988  53.6954384  19.5602627   3.4106135
  53.5422668  18.3279610   4.2760344  81.8342285  21.7104435  16.0933914
  81.9947739  21.7518578  17.0361214  81.7155762  22.6231041  15.8303185
  54.1685219  66.0618668  74.5650635  53.8683434  65.5028534  73.8483810
  53.4945335  66.7373734  74.6403580   5.4538856  31.3943634  77.8760529
   6.1336617  30.7651463  78.1173401   5.3931761  31.9819603  78.6292267
  53.2591553  49.1237144  57.8750877  54.1883202  49.2245331  57.6683922
  52.8759155  49.9785080  57.6784058  55.2658844  53.0056992  88.3127441
  54.8632812  53.2010155  89.1589127  55.9616547  53.6568565  88.2225494
  66.2170944  59.1510353  53.1182938  66.9013519  59.6204033  53.5955009
  65.4025726  59.4149323  53.5462341  77.9380035  26.3547859  54.3384972
  78.5204620  25.8553696  54.9108276  77.0769424  26.2812958  54.7500916
  62.0791664   3.0969779  62.5392685  61.8961678   3.7952776  61.9106827
  61.2605591   2.9902551  63.0237503  78.1022873   3.9650002  78.9981766
  78.9585876   4.0360994  78.5763702  78.1654053   3.1763163  79.5369034
  80.3963928  24.5626965  58.2969055  81.1698608  24.0276451  58.4749260
  79.6824875  24.1078434  58.7437706  39.4179382  16.7605267   3.1997628
  38.5761299  16.3964634   2.9258077  39.2417603  17.1548100   4.0540071
  12.9435644  35.3399506  16.2829075  12.8485394  36.1988754  16.6945457
  13.7464209  34.9808273  16.6606426  20.1329079  10.2262802   9.2875767
  20.1101189   9.8436003   8.4104967  19.5001907   9.7125473   9.7895536
  56.6602173  20.5524197  45.7916298  56.0149422  20.4643459  45.0901337
  57.4902802  20.3013344  45.3864288  79.3392334  49.2243156  56.2659149
  78.8800964  49.8117638  56.8661919  80.1903687  49.0776100  56.6785736
  20.9655457   7.4290252   4.6556230  21.4172916   8.2350512   4.4056654
  20.5120354   7.6509519   5.4688320  25.1768150  64.5457611  25.0741501
  26.1106644  64.4018021  25.2272205  24.8962212  65.0957947  25.8055630
   5.3738322   0.3910225  78.9317780   6.0108857  -0.3227634  78.9618530
   4.5246530  -0.0420033  79.0190430  11.4091358  70.9791794  17.6185780
  12.1597757  71.4085541  17.2081966  10.7576342  71.6741104  17.7126369
  85.9894638   1.2802317  62.3018036  85.7433395   2.2050641  62.2833176
  85.5659866   0.9042142  61.5301132  41.1610184  45.2135735  27.5517101
  41.6267586  44.8562927  28.3077965  40.3257065  44.7462463  27.5422020
  66.7251816  65.4192734  27.4373341  67.3311157  65.4420776  26.6966934
  66.4299469  66.3247375  27.5332222  31.9877911  67.2213669  77.4746246
  32.6383591  66.6591187  77.8951797  31.1601162  66.9843521  77.8929672
  44.9589310  60.3291664  37.2697868  44.9298744  59.6940346  37.9853210
  45.8555756  60.2763634  36.9389229  56.9795036  13.5253763   7.3408794
  56.2300453  14.0999413   7.4971480  57.4493256  13.9365292   6.6153083
  55.8887024  70.4730988  36.8262367  56.6796799  70.7595749  37.2828751
  56.1470184  69.6643906  36.3840828  55.8636513  11.8322678  40.0734940
  56.2009392  11.3466454  39.3207397  54.9998627  11.4530525  40.2356606
  65.1955261  58.0735397  76.4171448  64.5417099  57.4814529  76.0454102
  65.5649033  57.5892563  77.1555634  79.5316315  51.2026062  84.4507675
  79.0075531  50.5260620  84.0219727  79.3759155  51.0694885  85.3857880
  13.6841698  27.4090595  15.1904325  14.1549578  27.5754662  16.0070724
  13.5565176  28.2765541  14.8065176  61.9246063  28.5098171  69.8594360
  61.2131577  28.0847988  69.3804474  61.4841957  29.0229092  70.5369339
  70.9009628  40.8890343  39.7199059  71.5784073  41.2082138  40.3160858
  70.6658478  41.6531067  39.1934547  24.5492458  56.7893753  21.1359711
  25.3416710  56.3267746  21.4085445  24.7201023  57.7057610  21.3534164
  14.1849318  22.2149124  13.9924326  14.2515154  22.9287319  14.6266737
  14.4268436  22.6138115  13.1566153  83.9645157  40.7839813  67.6838379
  83.7741928  41.6134644  67.2457047  84.7833862  40.9433784  68.1531754
  26.0045090  55.5818481  72.3054581  25.7628403  55.2818527  73.1817169
  25.6502495  56.4693451  72.2499619  62.2045670  59.7777443  66.6010132
  62.6059952  58.9362030  66.3844452  62.5254707  60.3767357  65.9268799
  16.2311077  59.5836334  76.5228882  16.5229359  59.5214691  77.4323959
  15.8695402  60.4666786  76.4471817   3.1148276  24.7183170  14.1364288
   2.3919618  25.2725983  14.4304848   2.6884203  23.9729710  13.7135010
   8.7167492  40.0517693  36.0051918   8.7902279  40.8152199  35.4324951
   8.5194206  40.4173508  36.8675385   5.3999825  67.7642899  73.8190384
   4.6696568  67.2060471  73.5521622   5.9448528  67.8367691  73.0353928
  57.9966660  67.0229416  60.1963310  58.7465477  67.1722183  59.6204643
  57.8349380  67.8735886  60.6043510  45.8468742  25.1230679  14.2746334
  45.5103226  24.5035362  13.6272192  46.7836533  25.1807156  14.0866117
  57.5000000  22.0885963  64.4149246  56.6970139  22.3248882  63.9505844
  57.3354836  21.2046871  64.7433624  63.4886246  42.7655487  50.4920502
  62.5541534  42.5586510  50.4782486  63.9229736  41.9126511  50.4800758
   2.1019263  26.8749485  73.2490158   3.0503364  26.7632236  73.1836853
   1.7618761  25.9851761  73.3433762  79.4765930  53.0324364  38.8257256
  78.6252747  52.7728195  38.4734726  79.7963257  52.2522545  39.2788544
  79.8388748  15.8294048  35.0289230  79.2504044  16.3455429  34.4779816
  79.3604584  15.0171652  35.1951180  11.5091267   2.4392292  84.2243042
  11.2545376   1.5580785  84.4981461  10.7863617   2.7364686  83.6715927
  54.1886711  64.5643921  27.6162376  53.9425240  65.2854767  27.0368500
  54.5853996  64.9917908  28.3752975  41.1987152  58.5253372  41.2112236
  41.7749710  58.2491112  40.4985809  41.5897026  59.3370552  41.5344582
  64.7490082  49.6742096  73.2397156  63.8292160  49.9386635  73.2228394
  64.7228088  48.7224541  73.3382416  42.7864532  16.6552296  78.1528702
  42.7645035  16.2179699  77.3016663  42.7280235  17.5876923  77.9447174
  51.5858574  55.0352821  70.7034531  52.4348564  55.3089981  70.3563080
  51.1409760  54.6321182  69.9579544  43.6436844   9.1928883  12.2766771
  43.9824524   9.5627804  11.4614182  44.3484306   8.6286058  12.5947161
   5.7212772  41.4468803  76.6724930   5.6962094  41.2947006  75.7277985
   5.2453899  42.2682419  76.7954865  72.9722519  15.4623442  38.6695518
  72.3337936  16.0731678  39.0376511  73.7524567  15.5753412  39.2124519
  73.3813324  42.4194946  40.5524330  73.9114456  42.4315453  39.7555199
  74.0071411  42.2382126  41.2536697  58.3919525  26.2485428  28.4803772
  58.8071098  26.5875359  29.2734470  57.4961739  26.0431595  28.7480106
  44.3883209  63.8413582  51.1338348  44.6527290  63.7755280  52.0514336
  45.0113487  64.4575577  50.7486649  53.4347382  19.3487282   6.8306627
  52.7236443  18.8880310   7.2760129  53.2929039  19.1671753   5.9016018
  68.0194397  62.4921722   3.5976098  67.3032303  62.5519295   4.2298317
  67.8711700  61.6615944   3.1455157  21.0857277  57.3943863  41.3455963
  20.8014812  58.2175713  40.9483528  20.3489418  56.7977715  41.2135963
  53.9484215  29.0652599  32.3590736  53.1998024  29.5951843  32.6329002
  53.5592232  28.2648582  32.0067749  71.1230011   9.7875175  75.6289368
  70.7525940  10.6402082  75.4010239  71.8827438   9.9941826  76.1732788
  64.4153595  48.3810654  33.3253517  64.9350510  47.6511917  32.9885406
  64.5400543  49.0801468  32.6835060  70.3653107  55.9225807  47.3704872
  70.3531723  56.6583443  47.9826469  71.2543640  55.9207802  47.0157738
  10.1238756  49.4302368  35.8005905  10.0717220  49.9352188  36.6120758
   9.9351263  48.5301590  36.0660515  63.3851967   7.4133081  51.3465195
  63.6082191   8.0282049  52.0453682  64.0304413   6.7112541  51.4302635
  56.2977448  71.0404510  74.1205139  57.2050819  71.3233795  74.0068512
  56.2767029  70.1533813  73.7614822  45.2746773  48.6719208  16.6001301
  44.9098244  49.1538048  15.8579016  45.0564995  47.7570457  16.4222832
  84.6192322   9.6921482  22.2283669  85.3399887   9.1350250  21.9345055
  84.0955276   9.1267118  22.7960358  25.5918293  65.0693970  17.4027958
  25.3558025  64.3999405  18.0449390  25.1145020  64.8208542  16.6112061
  31.8843555  44.4506683  55.1342163  32.7718849  44.3260117  54.7980843
  31.9503918  44.2453117  56.0667915  65.4147415  41.8586159  47.2144623
  65.1310501  42.7704124  47.1483002  64.6418686  41.3895226  47.5288734
   2.8918173  11.8018637  20.6791706   3.3352895  11.8010340  19.8309002
   2.0344007  12.1881990  20.5008068  40.4960098  13.0789118   1.5303334
  39.6638832  13.3938780   1.1773580  40.6637535  12.2639227   1.0571669
  61.3141060  61.5684662  80.1229706  60.8181114  61.1990356  80.8535461
  61.9746590  60.9054108  79.9223328  20.9598522  57.2689857   6.0056491
  21.2965794  57.8780823   5.3484983  21.5633888  57.3550987   6.7435918
  54.9254074  27.9685822  48.6702042  55.1047478  28.0766373  47.7361832
  55.3434715  28.7240810  49.0833321  48.1344490  18.3996487  63.6388397
  49.0658150  18.2538757  63.8047981  47.8816795  17.6879253  63.0508003
   4.3037152  61.1101570   1.6159557   3.8050778  61.8965645   1.8376590
   3.6540716  60.5098343   1.2501543  31.5246162  26.3662319   0.3065805
  32.1467781  26.4060383  -0.4197557  31.4723034  27.2667751   0.6267638
   9.4370451  22.9070988  59.2238464  10.0844078  22.8528805  58.5208397
   8.6044903  23.0464535  58.7725525  22.1967411  61.1256371  62.7684746
  23.0454197  61.5242386  62.5758820  22.3983364  60.4158745  63.3782501
  49.0504837  64.1279221  27.4593735  48.6306229  64.0434723  28.3154221
  49.9821396  63.9967613  27.6355648  76.1475601   6.5478573  62.9705772
  76.0783386   6.2208819  62.0736237  75.3807907   6.1880741  63.4165039
  35.1495094  34.0339890  14.4824200  36.0306969  34.0910950  14.8518524
  35.1184769  34.7318344  13.8279886  46.7032585  59.0887451   3.3546710
  46.8991051  58.1552353   3.4348755  45.9857368  59.2367287   3.9707053
  72.2185593  55.3659439  50.3666267  71.7452545  56.1617966  50.1240807
  72.5506821  55.0225983  49.5371437  78.7762451  51.7003441  27.2360611
  79.4305725  52.0194244  27.8575706  79.2828674  51.4437752  26.4655228
  52.8124008   7.4817157  82.9339066  53.4831657   7.6065459  82.2625427
  52.0739403   8.0131245  82.6363983  48.4829407  54.6070328  33.6469727
  47.6516380  54.1756287  33.4493370  48.2315254  55.4461746  34.0327988
   6.1693730  13.6347666  12.2743359   5.4068208  13.1034412  12.0453396
   5.9571004  14.0008707  13.1329050  39.5300140  22.7777538  11.6310272
  38.9386368  23.3560390  11.1492691  40.4009781  22.9952354  11.2988281
  66.2640152  23.8754578  21.4891682  66.2757034  24.3261547  22.3335438
  65.5068130  24.2419758  21.0325031  45.7359009  41.7866669  32.2519264
  45.6077576  41.3819504  31.3940125  45.8911781  41.0502434  32.8433685
  40.0940514  37.1945877  74.8542557  40.6762314  36.8974304  74.1549759
  40.6822357  37.5480499  75.5215912  39.0332184  51.0267258  69.8972321
  38.4011307  51.6621323  69.5611420  38.8690491  51.0012207  70.8399048
  28.7718658  43.6143417  24.8662872  29.3323174  43.1478958  24.2461624
  29.2352982  43.5522652  25.7015171  80.7821045  50.9195404  53.4390717
  80.3933182  50.1915245  52.9542351  80.3207932  51.6944618  53.1182594
  66.4452972  54.9181175  12.9437733  66.3699722  53.9645691  12.9077168
  66.6027679  55.1804047  12.0367775  65.4106903  48.1036911   1.1972244
  65.5515442  48.6205215   1.9904941  64.5259781  48.3351669   0.9144970
  63.3764877  47.0622253   4.9962039  63.8023033  46.2947884   5.3782377
  63.9644775  47.7892151   5.2011108   4.3643308  49.8293152  59.9155731
   4.8872280  49.1810036  60.3872757   3.9552636  49.3357925  59.2047081
  77.0422058  36.7270775  12.1219091  76.6122971  35.8727760  12.1617308
  76.6648407  37.2193184  12.8509712  43.7445564  69.7164307  20.8008347
  44.0221558  70.2256393  21.5623302  42.8027458  69.8750458  20.7370377
  72.2658844  26.1065979  49.1307755  72.7922363  26.7010860  48.5962029
  71.5509109  26.6507645  49.4608307  16.2846851  33.6651993  15.3297243
  15.3465471  33.8281212  15.2318106  16.6446609  33.8044128  14.4537859
  15.7533808  60.4108391   5.4076791  15.4321156  59.5187073   5.5385132
  16.3400974  60.5651207   6.1480803  47.3850670  46.9337273  15.7766247
  48.1167603  46.5402908  16.2520866  47.1905441  47.7373962  16.2588177
  25.1150837  12.1100874  19.6496906  24.7042503  11.2464294  19.6104298
  25.4085312  12.1947126  20.5568619  67.2110825  70.2426529   2.3194251
  66.8549805  71.0455399   1.9389098  67.2019043  70.4004593   3.2634833
  79.2043457  64.9952850  81.2853088  78.8515549  64.1105194  81.1905975
  78.5625229  65.5568542  80.8506317  75.4243011  16.0216846  40.1133881
  75.0900421  15.6244192  40.9175568  76.3253555  15.7056408  40.0466995
  21.8463211  38.8937492  21.3319435  22.0139675  38.1122437  21.8586121
  22.2568378  39.6057968  21.8225479  70.2757568  64.1402740  39.8994331
  70.7386551  64.7428207  40.4815712  70.1905746  64.6207886  39.0759735
  71.6943512  67.1848450  75.9571533  70.9859390  66.9645386  75.3522949
  72.2933044  67.7223587  75.4389114  16.3139076  13.0231667  16.8226795
  16.2907619  12.2825499  16.2167225  15.6694489  13.6386862  16.4733353
  16.2029552  59.1912193  71.6736984  16.2480812  58.4963455  72.3304596
  15.2718191  59.4051514  71.6149368   2.5856085  57.5188217   3.0785384
   3.5018704  57.2427139   3.0999956   2.3085821  57.5010300   3.9946015
   3.4354982  63.3110886  60.9781532   3.3052320  62.8825836  60.1321945
   2.5524185  63.5355453  61.2714462  34.6617775  43.8145523  62.9048500
  34.4058876  44.2434006  62.0882454  35.5113144  43.4182587  62.7112694
  51.6961288  49.5408173   3.8088109  51.9555702  48.8654175   4.4355121
  50.7394943  49.5082893   3.8039601  70.3683319  61.5559006  35.5265732
  70.7708435  61.9082260  36.3203506  70.9388199  60.8313484  35.2700653
  62.0542297  16.6320343  67.7507477  61.8872757  15.9330359  68.3830109
  62.7301903  17.1706448  68.1620941  21.5167351  65.6110916  76.0665588
  22.0752754  64.8818893  75.7972565  21.0681763  65.8782120  75.2642670
  12.9485970  12.2540264  87.2689896  12.8969412  12.6661358  88.1313858
  13.7282391  12.6369953  86.8668442  32.4841805  60.3625107  34.7177200
  32.8714676  60.0601768  33.8962364  32.2703094  61.2816849  34.5576859
  42.1433716  65.7900772  31.2779560  41.5395050  66.2981567  30.7362671
  42.0493813  64.8911438  30.9628029  57.7285805  61.5103569  33.4582977
  58.1611862  62.0305290  34.1354256  58.2220230  60.6904984  33.4342842
  79.9261627  44.1410255  13.5036879  79.7474594  44.7175026  12.7607403
  80.8329315  44.3327560  13.7429390   0.7278929   1.3075836   2.2039597
   1.0049450   1.8551366   2.9385750  -0.2266479   1.2823805   2.2706573
  72.2788162  62.1477699   0.4281313  72.1594238  62.1892700   1.3769490
  72.9523239  61.4796982   0.3004747   2.9290924  56.0667229  71.1343689
   3.6807559  55.8013191  70.6044617   2.9510341  55.4813004  71.8913498
   2.0206857  50.0106163  15.2994709   1.7261513  50.5685730  16.0193100
   2.4403374  50.6132965  14.6855469  17.3143463  55.6585884  79.5203629
  16.8816261  55.4761124  78.6862869  17.5139465  56.5941505  79.4869995
  39.4380836  31.3465824   3.3882403  39.3399658  30.4414616   3.6838098
  38.9584312  31.8632927   4.0356789  18.8809662  50.0014343   1.3522618
  18.7602978  50.2453613   0.4345626  19.0532532  49.0601501   1.3292352
  23.2957630  47.6259613  59.9155312  22.7060394  47.0809097  59.3945999
  23.7791691  48.1409721  59.2695312  21.1681919  58.5655022  49.7283554
  21.6741638  59.1973877  50.2391815  20.6278725  58.1121788  50.3754921
  82.7778244  15.5283813  15.3486547  81.9437637  15.7679300  15.7526217
  82.7927246  16.0139980  14.5239210  82.0685349  41.8143578  69.8516235
  82.3576736  41.5716629  68.9720078  82.5019302  41.1852074  70.4283142
  18.0494690  50.1644287  54.7506676  17.4925442  50.9296455  54.8938751
  18.6954002  50.2029343  55.4560204   2.5354195  23.6302814   1.2252371
   1.8413799  23.6072922   0.5664410   2.4327021  24.4810219   1.6517602
  37.3531990  66.8509140   1.8708750  37.8491173  66.7128754   2.6778717
  38.0213165  66.9349976   1.1905947   9.7222672  71.8840561  13.0161018
  10.2968521  71.2921524  13.5016279   8.8471603  71.5121613  13.1261644
  23.7677097  52.7149467  54.5270004  23.2347069  52.2687874  55.1850891
  24.2044029  52.0074577  54.0526657  45.0339622  47.8461227  35.9749374
  45.2674217  48.1244278  35.0893440  45.6004791  47.0939560  36.1467896
  18.1775208  45.6592598  33.3746910  17.4638691  45.9430618  33.9459953
  17.8219357  45.7390518  32.4895782  65.4796829  41.0586472  63.8738480
  66.0798035  41.1651154  64.6119156  64.8395081  40.4146576  64.1766434
  80.6948166  20.6813030  13.7887239  81.5054016  20.8456821  14.2705488
  80.9021530  19.9429111  13.2159958  43.3210411  48.5858574  45.0750389
  42.7630119  48.9079018  44.3671379  42.7475777  48.0225067  45.5946655
  71.5041504  54.5070992   8.5200443  71.2724686  54.8349953   9.3889723
  71.5587234  55.2918129   7.9746304  20.5241604  63.5773621  43.9936523
  21.3357658  63.9884529  43.6961098  20.8121414  62.8204269  44.5038948
  52.2042427  26.1636448  69.6635208  51.9115639  27.0369205  69.9242096
  53.1427498  26.1594772  69.8517151  77.4302673  17.8427925  22.0375233
  78.2589264  17.4425507  21.7741718  77.6848373  18.5636787  22.6135006
  80.6928558  12.6646557  78.1894760  81.2628021  12.2558117  78.8408127
  81.2932434  13.0089760  77.5282593   4.1561975  57.0555801  76.6985855
   5.0592570  57.0692711  76.3815231   3.6853309  57.6413803  76.1058350
  85.3257141  46.4205704  12.0160503  85.7847900  45.8658066  12.6467009
  85.5186844  47.3145676  12.2984791   6.7303996  31.2979794  53.3290863
   7.6484928  31.5673008  53.3574028   6.3173957  31.9178333  52.7278862
   0.2990827  54.0293045  73.8536758   0.1769141  54.6035271  73.0976562
   1.0202479  54.4264069  74.3420029  25.1799355  59.2260666  75.5765305
  24.5125980  58.8671722  74.9916458  24.7864323  60.0250778  75.9271927
  28.6947746  25.7922955  66.7790222  27.7822361  25.7439556  67.0639267
  29.0160408  24.8934841  66.8508377  80.7477341  46.3861122  38.6359787
  79.8067093  46.3591423  38.8091164  81.0518417  45.4987106  38.8264198
  42.4855614  20.6216202  64.7046738  41.5323830  20.5380287  64.6783905
  42.7605247  20.0132351  65.3906021  29.2365246  10.9771461  32.9409676
  28.6682873  10.6698713  33.6473083  29.1341476  11.9288292  32.9480362
  10.0825682  20.4992123  83.4696960  10.3547745  20.5442333  82.5531235
   9.4550648  19.7769432  83.4979858  38.1735992  35.7631950  84.3395844
  37.2602310  35.7199173  84.0565338  38.4352226  34.8485184  84.4451752
  32.2580223  38.9112549  16.6317654  32.5694923  39.6188316  17.1961689
  31.4324226  38.6339073  17.0288811  83.1118469  20.6127052  59.4267120
  83.4361649  20.2718678  58.5931168  82.3758011  21.1750698  59.1854362
  46.4655762  13.4574175  21.5089016  46.5442734  12.9542017  20.6984615
  47.2228432  14.0428486  21.5018139  68.7857971  69.8816299  10.7849178
  68.7913513  69.0862503  11.3174305  69.3226624  69.6635437  10.0230503
  24.3175278  17.5517921  76.9226761  24.1975784  17.2662487  76.0169678
  24.2811890  18.5073204  76.8793640   0.7187557  69.0213852   8.5371370
   1.1552527  69.6469574   9.1153774   0.2026049  69.5651321   7.9420266
  54.8259201  12.7410049  18.9483318  54.1466026  12.0693617  19.0087681
  55.0816956  12.9053211  19.8559723   2.3774719  19.9351463  82.4961090
   2.1871743  19.0802860  82.8824158   2.6889701  19.7350941  81.6133957
  42.8505669  64.5179749  35.1620636  43.0501289  63.6616211  34.7838326
  43.2969093  64.5157166  36.0088234  22.4324284  60.8352585  12.1849642
  23.2661781  60.3726501  12.1007891  22.0452061  60.4868393  12.9880161
  78.3664017  38.2970657  23.5344658  78.5074310  39.1567879  23.9309750
  77.4487762  38.0961151  23.7183628  42.3694725  43.4147682  25.1389828
  41.8258476  44.2010651  25.1883984  41.8240814  42.7748871  24.6814480
  49.3852539  57.4802742  21.7060318  49.5381317  56.6851997  22.2166386
  50.2244148  57.9404602  21.7223606  39.5553665   6.8663878  31.4023666
  40.0426369   6.5911160  30.6258183  39.9768791   7.6820760  31.6729412
  54.3083916  27.0299702  60.5433693  55.0671806  27.3313942  61.0429840
  53.8162689  27.8279877  60.3504562  39.9396019  45.8297958  75.8108978
  39.5869331  46.5163231  76.3770599  39.5706711  45.0184593  76.1599731
   7.9449496  10.4767895  64.3933258   8.7847681  10.2750444  64.8059235
   8.1637411  10.6522722  63.4781380  31.9852238  69.8190155  29.5528107
  32.4336357  69.6300888  28.7285137  32.0944328  70.7621841  29.6741734
  63.0188942  20.1999607  73.5703506  62.8806801  21.1231003  73.7823334
  62.2090759  19.7679749  73.8420410  23.0421677  50.3694725  31.0164413
  22.1129513  50.1469650  31.0737076  23.0648289  51.1704216  30.4928036
  86.4696274   0.8916225  49.4913177  85.9948730   1.4275240  50.1266479
  87.0838852   1.4982060  49.0778198  83.4839859  49.1160088  52.7629089
  84.3736801  48.7760201  52.6676025  83.5056839  49.9688110  52.3287544
  78.0588379  43.8983421  16.3692741  78.4981995  44.0125008  17.2119865
  78.6014023  44.3846283  15.7484789  67.7910385  20.8956356   9.7218752
  67.8944092  20.0961971  10.2380581  67.6808548  20.5873852   8.8223906
  81.4359818  30.3479214  76.2737274  81.4845352  29.6101856  76.8816910
  80.4985352  30.5100822  76.1682663  11.8641138  62.7058487  24.0455589
  12.6832991  63.1430244  23.8130856  11.6761990  63.0063744  24.9347191
  38.0764999  52.4314384  23.1428509  37.1579742  52.6600990  23.2851658
  38.2349091  52.6383743  22.2218094  58.5671158   1.9865068  58.2138863
  59.5054855   2.1700878  58.1692085  58.3449211   2.0983582  59.1381950
  21.6206245  64.2015915  62.8894539  20.8575191  63.7948380  63.2998924
  22.3512859  63.9749870  63.4647980  38.2891808  46.3907166  26.4020119
  38.5834503  46.7768555  27.2269554  38.0066757  45.5072365  26.6384144
  82.6808395  59.9590187   6.8766465  83.6026001  60.2141685   6.9151740
  82.2692108  60.6298218   6.3318419  19.1590233  69.3110886  27.5592022
  19.1025085  69.2797852  28.5142193  18.4662609  69.9178085  27.2980366
  23.9483700   8.3987350  55.5272980  24.6815319   7.7925982  55.4209709
  24.3584900   9.2330532  55.7552147  64.9760895  65.5025558  57.0580597
  64.4668884  66.1718903  57.5151558  65.4146423  65.9762955  56.3513260
  66.1194229  20.1882000   0.9587534  66.2858963  21.1297245   1.0040109
  66.9591064  19.7855854   1.1802486  71.7025909  41.5491257  24.2953110
  71.2364502  41.8011169  25.0924587  71.0188217  41.4831619  23.6287212
  52.4909515  60.4583244  79.9156570  52.0369568  60.9417801  80.6058655
  53.4123459  60.6936150  80.0247421  26.7971992  21.6517048  61.9965248
  27.1956768  21.1882362  62.7331696  26.0693130  21.0916977  61.7267075
  81.9158249   4.1777663  43.4245987  81.8791885   3.3428869  42.9578362
  81.7384720   4.8358831  42.7525406  30.1443253  23.7776928  65.3502579
  29.2606640  23.8392696  64.9875107  30.6155453  23.2122021  64.7383728
  59.6973000  52.3763199  49.4738007  60.2839622  53.1075859  49.6669540
  59.3668137  52.1019974  50.3292274  71.1768570  22.7895737   6.2235284
  71.0580521  22.5298748   5.3099236  70.4830933  23.4295559   6.3827624
   1.9697301  16.5439949  30.6726398   2.0570271  17.2762794  30.0624180
   1.6412265  16.9419079  31.4788532  58.7215118  34.2716522  61.9659462
  58.9936447  34.4625702  61.0683250  58.9283485  33.3449326  62.0869560
  45.3157539  37.7803421  52.7392426  45.9461403  38.4681931  52.5254517
  44.4636078  38.2139816  52.6941261  32.1026077  54.4112740   8.6320515
  32.4615402  53.5371132   8.7844992  32.8430290  55.0017853   8.7709913
  42.2434311  35.9248581  49.7194672  42.3469276  34.9733658  49.7331924
  42.9780769  36.2381058  49.1918297  22.1669674  56.0000916  57.4283676
  22.9475174  55.5124359  57.6913605  22.1319790  56.7407036  58.0337563
  55.6971664  52.3085747  44.2511826  56.3503647  52.2456169  43.5543327
  55.5270157  51.4008179  44.5026970  83.4431534  38.8265305  11.7797537
  82.6262054  38.4061089  11.5113010  84.1238785  38.3567505  11.2979231
  69.3945007  34.6442108  86.6984558  69.5808182  34.8702087  87.6097412
  68.5513763  34.1922226  86.7313538  48.7486229  66.2523880  20.5166416
  48.8182907  65.4038315  20.0792313  48.4688148  66.0405350  21.4071827
  77.0069656  36.3094482   7.2143435  77.6063156  36.9884262   6.9044924
  76.3555527  36.7829247   7.7317553  35.1100426  49.2759361  57.2771721
  35.2613907  48.8248596  58.1077461  34.1574135  49.3409386  57.2100334
  72.3429871  41.8590813  45.0150871  72.1755524  41.5449982  45.9036522
  72.3897781  41.0636253  44.4847183  38.4214439  26.3262787  76.5412750
  39.1710358  26.3890877  75.9493332  38.0729332  25.4470348  76.3939514
  43.1712914  53.0510025   1.5615340  43.0236244  53.7909279   2.1505463
  42.4709473  53.1180534   0.9124953  20.3947735  51.9002647  74.7684708
  20.0444889  51.0617218  75.0691071  20.2475567  51.8960762  73.8226700
  71.6203995  42.2146072   1.2380948  71.5455246  42.0439339   0.2992138
  72.2959290  41.6068192   1.5388949  46.0548630  35.4328766  81.7332153
  46.4602470  36.2367592  81.4081497  45.2489090  35.3481293  81.2238159
  48.1404266  43.1944923  72.5587311  48.6269417  43.4440689  73.3443832
  48.7792244  43.2639923  71.8492737  67.9317551  45.0129318  38.5234489
  68.2134933  44.1694603  38.8775787  67.0683441  44.8389740  38.1486359
  44.0863838  26.7212524  75.5276337  44.8660698  26.5399761  76.0524750
  43.4057922  26.1678410  75.9107285  52.3151588  54.3900452  77.8257217
  53.2363701  54.3401871  77.5705414  52.1424484  53.5565262  78.2634964
  55.0811729  13.7088289  74.5590286  55.7307091  14.2331991  74.0906601
  54.6802292  13.1636276  73.8821030  14.9701767  52.7786140  57.3628769
  14.1323252  53.0416298  56.9820099  15.0990448  53.3798065  58.0964966
  75.9505463  22.3564529   6.5005083  75.1964951  22.9378815   6.5983706
  76.6108932  22.7191658   7.0909467  75.4460526  58.7406693  12.5128593
  76.0308075  59.4811172  12.3515253  75.5341797  58.1916809  11.7337084
  47.5875549  71.4470978  53.4001083  47.6110344  72.3580399  53.6931419
  48.2592697  71.0097885  53.9233589  58.8239212  40.6819916  69.5479584
  58.4134254  40.0693550  68.9377060  59.3988991  40.1364136  70.0845871
  55.4551163  48.8037148  11.1593781  55.5978432  49.2057114  12.0162668
  54.5574989  49.0433235  10.9289312  29.1488209  52.0840607  34.2861900
  28.4725170  52.3179245  34.9219208  28.7041054  51.5080528  33.6643600
  64.7985687  26.5798244  73.8933792  65.0052948  25.8648930  74.4953537
  63.8632812  26.7380180  74.0215988  50.2375259  52.0944557  13.9779253
  51.1938324  52.1035500  14.0182152  49.9856720  51.2979965  14.4453230
  34.9809608   8.3195505  74.3768539  34.5647240   7.5145035  74.6848755
  35.0414543   8.8714018  75.1566162   4.5465980  70.1841660  46.6149864
   5.1194005  69.9006119  45.9024391   4.6178379  69.4900360  47.2702293
  33.5875587  43.4538536  67.2717972  33.7161827  43.8458138  66.4080505
  32.9310341  44.0096512  67.6916733  66.3208542  57.0295830  10.4820833
  66.1886444  57.9111404  10.1333551  65.4363556  56.6815643  10.5950699
   4.3097787  19.7966270   7.2313251   3.9432507  19.1358128   7.8188734
   4.5996695  19.3015213   6.4651232  43.5780945  26.7370491  38.6510506
  43.3369713  27.2623863  37.8880882  44.2357216  26.1243649  38.3218460
  67.0511398  27.7549953   7.8722186  66.8636475  27.1735249   7.1353526
  66.8026886  27.2490177   8.6458397  12.1795750  42.9474487  47.9587898
  12.8746719  42.8114471  48.6026649  12.5367250  43.5983658  47.3546562
  54.5319252  62.5697212  70.0025711  53.6465492  62.3429756  70.2870483
  54.8841438  61.7552452  69.6436844  13.6284924  52.8445740  36.9724770
  12.7042751  52.8821335  37.2187386  13.7561350  53.6045113  36.4046478
  77.7994385  48.9179916  37.1423645  78.4401474  48.4896126  36.5747261
  77.4631119  48.2144966  37.6975365   6.7960835  58.5283890  79.4222946
   6.2228723  59.1848145  79.0263596   7.6337485  58.6393585  78.9725876
  57.6478539  15.8791656  23.1050262  56.9048233  16.4255428  22.8488808
  57.3021126  14.9866076  23.0991058  27.6776714  20.6284275   2.0092194
  27.3767376  21.0945225   1.2292027  27.2396278  21.0706596   2.7363911
  71.1325760   6.1679378  77.4977112  71.5536957   5.4418330  77.9577789
  71.5118561   6.9534206  77.8919144  13.2421055  66.8986893  69.9609451
  12.4973822  67.2550964  69.4765930  13.7386675  67.6688690  70.2375107
  83.2682724  39.7732239  84.2789993  83.5351639  38.8729401  84.4647064
  83.0653458  40.1448059  85.1374741  55.0523262  59.4071312   4.5966768
  54.6972733  58.5205574   4.6611304  55.1393318  59.6968994   5.5048046
  72.0347977  58.2552147   0.9287946  71.2093964  57.9061356   0.5925045
  72.2799530  57.6544075   1.6324720   3.1454859  24.9269295  51.8798447
   3.9904175  25.3763905  51.8623466   2.5356514  25.5477428  51.4811897
  55.2464180  45.3145714  43.1655197  55.0388298  46.2388916  43.0285149
  56.0737190  45.1836624  42.7021980  55.2608070  71.4650421  30.4111519
  55.2661133  71.1529083  31.3160172  54.4258919  71.1588287  30.0570583
  16.5424194  23.4057217  67.1011429  16.5593204  23.2314396  66.1600952
  17.1534843  24.1326618  67.2211151  46.8718758  67.4345322  25.4832306
  45.9926453  67.2461548  25.1550560  46.7284355  68.0032349  26.2396889
  18.1410599  66.2237167  57.3669815  18.3024082  65.2956696  57.5370903
  19.0004864  66.6361008  57.4538956  41.1794739  25.2561626   3.7186716
  41.7506409  24.4901371   3.7752924  41.7066078  25.9743690   4.0687289
  19.1707115  67.9144363  25.1129360  19.0949192  68.5093765  25.8589439
  19.8709507  68.2886810  24.5782986  61.3702126   3.6077156  43.7770882
  60.5877037   3.2557359  44.2013741  61.9257507   2.8428476  43.6268044
  22.5877628  42.0720253  11.7873468  22.0702953  41.3324280  11.4688272
  23.3326969  42.1188850  11.1880903  76.0253983   6.1930723  68.8101273
  76.5952301   5.4242358  68.7896957  76.6263657   6.9348164  68.8800430
   9.4134064  53.3393021  47.9160995   8.9956093  53.1571045  47.0743866
   8.6902885  53.3600121  48.5429192  66.0810852  45.1834030  49.2030067
  65.2789993  45.1318970  49.7228508  65.7893219  45.0606842  48.2996559
  28.6859150  48.0509529   9.7310677  28.9421673  47.4699478   9.0148258
  29.4114799  47.9986153  10.3532000  33.3751984  14.2189713  71.1708374
  32.5642090  13.7391844  71.0025024  33.2901154  14.5236626  72.0742493
  20.0879211  61.6351585  61.1901398  20.9045315  61.5954628  61.6879349
  19.6153088  62.3787689  61.5641823  17.9175606   3.4740036  10.1848726
  17.0216923   3.5681071   9.8611517  18.4568920   3.4528096   9.3943634
  12.2694340  27.7167282  72.6334305  12.9236927  27.9185581  71.9645157
  12.6748009  27.0326023  73.1662292  69.2989273   8.9087496  62.0501709
  68.7601395   9.5117130  62.5624008  70.1841736   9.2676868  62.1112175
  47.5404243  29.4969025  37.0311432  47.0968933  30.0638161  36.4001732
  48.2343102  30.0443649  37.3986206  83.3499756  35.6301498  67.7451324
  84.1546249  35.4181404  67.2720261  83.2585068  34.9277267  68.3889236
  53.8512344  42.7554398  84.4413681  54.4749374  42.6934738  85.1648254
  53.7224045  41.8502655  84.1580124  80.0620575   6.2779417  23.5365372
  80.8988876   5.8826785  23.7809086  79.8667221   6.8854837  24.2499580
  67.8124161  35.6664238  36.5450668  67.8415909  36.4696960  36.0253220
  68.2663345  35.8902245  37.3575325  12.5400543   8.7622728  17.3750973
  12.4671001   9.7158327  17.3346901  12.4694796   8.4778347  16.4638634
  52.8503761   2.1254001  28.2201080  52.7516479   1.3701562  27.6403751
  51.9533348   2.3966935  28.4149094  12.0313253   6.3638802  11.4360113
  11.8450174   6.2943921  12.3723297  12.8567562   6.8464661  11.3912163
  52.3073311  39.4741440  67.0134811  52.6624069  38.9694672  66.2817307
  51.5414238  39.9178352  66.6491241  45.6648254  52.3575478  74.6885529
  46.0488205  53.1023102  74.2258301  46.4088364  51.7883759  74.8853378
  85.4741364  40.3694992  50.5377388  85.7156830  40.0221252  51.3963547
  84.6248932  40.7879181  50.6789207  82.7385483  13.2183466  40.5019951
  81.9527664  13.7429800  40.3485718  83.0135574  13.4524879  41.3884354
  83.4567032   1.9240952  31.2972336  82.6015320   2.0474589  30.8852863
  84.0842590   2.2313406  30.6430130  64.1117020  30.5173073  49.3679352
  64.6707611  30.7120647  48.6157646  63.2691002  30.9155254  49.1495705
  34.4714127  13.4287462   5.4660892  34.2309570  14.2555218   5.0479312
  33.9425430  13.4009085   6.2634296  10.4427347  43.1202240  29.6891098
  10.6183434  42.1819763  29.7604427  10.4751024  43.2991829  28.7493439
  20.3965111  60.0920906  22.5436802  20.7652225  59.5523071  21.8444519
  19.4674988  59.8620377  22.5592690  52.2276955  60.8387833  28.5175076
  51.5551224  61.1443405  29.1262035  51.7423477  60.3633347  27.8432541
  62.2144165  58.1758461  88.6620483  61.7129211  58.5962334  87.9634705
  63.0270653  58.6793785  88.7098618  81.7230148  20.1720238  54.0887642
  81.7889252  19.7983513  54.9675446  81.0001526  19.6961899  53.6797638
  56.1694908   9.6660738  72.1076736  56.3761940   8.9853678  72.7481003
  56.7962151  10.3658943  72.2912521  68.1701431   6.8875523  11.7274265
  67.6914749   6.1672010  12.1375580  68.8845139   6.4614525  11.2537737
  80.7485962  18.4000168  37.3204498  81.4987946  18.0883961  36.8141670
  79.9863815  18.1464825  36.7998962  46.5054131  33.6777573  79.6388626
  47.2426720  34.2528267  79.8437424  45.9598160  33.6984673  80.4250717
  45.6700859  53.6163177   0.9953567  45.8356056  53.7900543   0.0687228
  44.7280884  53.4534988   1.0439774  76.5859146  71.4872055  66.5581360
  75.8208847  72.0381851  66.7235947  76.7865143  71.0945053  67.4077072
  59.1657372  14.4844303  77.6199265  58.3485489  14.0598183  77.3588943
  59.7879295  13.7642183  77.7219086   0.4192571  62.1130981  21.4920368
   1.0749766  62.0852051  22.1888046   0.0983620  63.0148621  21.5010910
  55.0731583  32.1879501   8.0353174  54.7446671  32.1673164   7.1364851
  55.3980293  31.3013058   8.1920099  22.5204544  69.6515121   4.9083395
  21.5969086  69.8272324   5.0883899  22.6721230  68.7769165   5.2665558
  72.2821045   4.2320104  78.8362045  72.9908447   3.8716271  79.3691711
  71.5266571   4.2513351  79.4237061  28.8400288  35.0717010  64.3316956
  28.2859478  35.6037254  64.9028168  28.3987236  35.0927162  63.4825592
   6.4562430  40.1436882  64.7043381   6.6249280  39.2052460  64.7886124
   6.2334304  40.4275551  65.5909119  54.7695084  48.8607941  64.6385269
  55.5711250  48.9377251  64.1211090  54.9702568  48.1919365  65.2931747
  85.1478577  45.1875229  78.8438950  84.5837784  44.4729805  78.5481339
  84.6087875  45.9728737  78.7498093  68.5317078  18.0707397   6.0785265
  68.0275955  18.8693962   5.9228020  68.8038254  18.1339550   6.9940524
  86.3095627  13.7097874  22.1323509  86.4888916  14.3094473  22.8565617
  86.2809372  14.2714624  21.3577976  50.4113655   1.5630463  50.4299507
  49.5005379   1.5652034  50.7242622  50.4256439   2.1709416  49.6907005
   2.9835100  23.8340511  61.3982735   3.6501398  23.1474552  61.3777084
   3.4789081  24.6507874  61.3370056  15.9551554   8.0495367   9.3290462
  15.2936344   8.7322559   9.4409208  15.4876709   7.3303823   8.9041853
   1.5706235  13.2687178  36.3037491   2.4663024  13.5734482  36.4491119
   1.1593024  13.9678040  35.7954903  80.4909363  16.3508053  57.4912453
  80.0029984  15.7261534  56.9546280  81.3382568  15.9302540  57.6375656
   4.1393499  57.9992218  30.5022850   3.9805381  57.5677185  31.3418179
   4.0254164  57.3064957  29.8516064  71.9712524  11.6658955  56.2856750
  71.2486343  11.8523130  55.6862526  72.7544632  11.7077780  55.7369919
   7.5604873   8.7583561  29.5898647   8.2443094   8.6518250  30.2511272
   6.7940488   9.0511150  30.0829124  66.0330734  53.0166245  68.8787537
  66.8123322  53.5146561  68.6318741  66.3697510  52.2880630  69.4003601
  82.0849915  17.3880882   8.5374336  82.3536453  17.7370815   7.6875744
  82.4105606  18.0262985   9.1721954  53.0248413  20.7539310  76.8835373
  53.5582275  21.5041695  76.6210938  53.5899391  19.9953518  76.7370605
  29.4189281  16.0745354   6.1726217  29.9852276  15.4197931   6.5810943
  28.5523701  15.6681108   6.1612835  65.6984711  22.0521793  72.5401688
  65.8128510  22.4724388  71.6878052  66.2078781  22.5926781  73.1439896
  14.3752794  48.2781754  28.7982330  14.6529360  47.9080772  29.6361866
  13.4823408  47.9550781  28.6778107  58.8634949  49.1547318  53.3197517
  58.2870789  48.8596687  52.6148300  59.4852524  48.4365005  53.4371986
   6.0213795  28.9163170  87.9714661   6.4378309  29.0581093  87.1213531
   6.6756668  29.2015800  88.6092453   5.5842853  20.3635159  52.1016159
   6.0201607  19.5480309  51.8541756   4.8022509  20.3938789  51.5504990
  19.9420872  38.2736511  66.8904724  20.8819084  38.3956566  66.7559967
  19.6798115  39.0155602  67.4354553  74.6698685  38.9837494  45.6985855
  74.7018433  39.8220139  46.1595879  74.1396790  39.1581383  44.9209480
  26.8705425  53.0092812  40.3946838  26.3566742  52.8132858  39.6112556
  27.7313061  53.2606659  40.0598373  32.8746948  34.1140480  62.6653404
  32.1738625  33.4646721  62.7234726  32.4414749  34.9500580  62.8375092
  39.2977257  52.3895226  66.8865967  39.6214714  51.5325623  66.6090393
  38.5833511  52.5837021  66.2798080  58.7499580  15.2942343  42.9786034
  58.4094276  14.5160198  42.5374107  59.4968834  15.5647411  42.4445992
  51.2237701  37.7156448  68.8335037  51.6638145  37.3557243  68.0634079
  51.6244431  38.5759811  68.9580612  33.5662613  48.1862946  32.0069771
  33.8961143  48.6506310  31.2376785  34.2245216  47.5135536  32.1811752
  63.1455956  58.4286194  40.2164116  63.0047913  57.7758217  39.5306549
  62.7522697  59.2292786  39.8693123  16.2391148   6.9603953  24.4451447
  15.6611700   6.2779326  24.1038876  16.4141045   6.6964536  25.3484402
  78.8321762  61.4887733  21.6551876  79.6808090  61.6313171  22.0743923
  78.2166977  61.4034119  22.3832874  19.6007805  11.3150110  15.7692013
  19.2252827  10.7041321  16.4032841  19.9566669  10.7552395  15.0791054
  20.8651276  39.6100845  87.0028229  20.1696129  39.9610367  86.4466553
  21.4590263  39.1700287  86.3946533  76.1024017  67.9036942  14.9084282
  76.5175323  68.6539536  14.4829826  75.4574966  68.2906952  15.5005054
  54.4112053  57.6829414   7.7836251  54.0791664  58.0824509   6.9796505
  54.3511543  58.3780212   8.4389820  64.5911942  29.1688957  83.8680496
  64.6306000  29.2454472  82.9147263  64.5791702  30.0735226  84.1806793
  23.5381203  53.9050713  77.4908524  23.4894295  54.3639069  78.3294983
  22.9789753  54.4159279  76.9055176  17.0307178   8.1949129  22.0493851
  16.9087963   7.8153210  22.9196014  17.0822029   9.1380491  22.2045460
  16.8959465  24.0525455  21.2453613  16.0450344  23.6201000  21.3172970
  16.6988125  24.9066029  20.8607082  32.2444458  24.2579327  66.8478241
  31.7864437  24.3354874  67.6847534  31.5469570  24.2570515  66.1922836
  60.8805161  48.1653938   8.5085487  60.6984024  47.8991356   9.4097548
  60.5400620  47.4484062   7.9735246  67.6209641  61.0762482  30.2609577
  68.3234177  60.8221092  30.8594608  67.6424179  62.0332069  30.2590714
  24.5799046  49.8884773  11.7411337  24.2580986  49.0277214  11.4732323
  24.2301140  50.0109138  12.6236801  52.7221565   8.5288830  60.4417953
  52.5314064   8.0061407  59.6629562  53.6779442   8.5685377  60.4754524
  19.4180012  63.8668900  71.2681656  20.2310867  63.4161987  71.0401306
  18.7399311  63.3987694  70.7810135  38.2558022  53.1910782  20.5545254
  38.0299797  53.9837837  20.0678463  37.9919701  52.4732819  19.9788609
  19.2948608  54.5705490  67.4152679  18.8605270  55.1429634  68.0476685
  18.5909481  54.2722740  66.8392792  25.0283413  48.3612061  51.4599876
  24.2607899  48.1971245  50.9121056  25.4648476  47.5115433  51.5213737
  20.9308853  38.3187294  76.7037582  20.9480515  39.1960144  77.0862579
  20.9633522  38.4687119  75.7589417  84.8831253  33.6833267   4.7761102
  84.9354935  32.8096466   4.3885922  84.1889267  34.1221924   4.2844687
   5.7996521  33.2179184  57.2698822   6.4149356  32.6152534  56.8522072
   6.3113160  34.0113487  57.4276733  24.1977253  46.0642700  22.9716949
  23.7513962  45.5514526  23.6455193  23.5466537  46.7064400  22.6889267
  85.5184784   0.0247929  12.2716589  85.6770325   0.9595143  12.4035254
  85.6643219  -0.1131836  11.3357515  10.3630667  71.3629990  34.3712540
  10.0188999  70.6291809  34.8804588   9.7114849  72.0558472  34.4790955
  77.1118164  66.9593353  42.2466087  78.0221939  67.2363434  42.3500443
  77.0935364  66.0647888  42.5867310   5.9141803  17.5233860  77.6204453
   6.3344688  17.8826637  76.8390961   5.7071376  16.6186123  77.3864594
  33.9368477  34.9415627  70.1308670  34.8098869  35.2271919  70.4000397
  33.8893242  35.1610336  69.2003860  78.4074173  43.0739136  37.3056641
  77.7166061  42.4268608  37.4482689  78.9087906  43.0726547  38.1210518
  76.5591202  11.3730898  70.3371201  77.3652802  11.7931013  70.0372391
  76.2433014  11.9373350  71.0429001  63.3184242  51.2854347   6.9548593
  62.4229164  50.9473610   6.9565468  63.8584862  50.5318413   6.7168169
   5.2522931  33.0730476   2.3812659   5.2074389  33.4821892   3.2454555
   4.3431587  33.0423241   2.0833349  73.7016830  62.2482758  33.5841942
  73.5501480  61.5426941  34.2130203  74.2470932  62.8771629  34.0566940
  85.5527267  21.8750591  14.2196398  86.4917679  21.6930008  14.1836748
  85.4488754  22.4487247  14.9788198  57.7045212  58.8064423  11.2922258
  57.2499352  58.0378647  11.6370039  57.2316322  59.5511169  11.6637983
  57.6940765   7.9012322  55.9750633  57.1491928   8.3617144  55.3368683
  57.8098831   7.0264235  55.6042137  66.7000198  22.3925438  15.0388699
  66.8709869  22.7236042  15.9205742  66.5270233  21.4592991  15.1628056
  24.8659897  13.3538380  82.7768326  25.7290707  13.7375784  82.9319687
  24.6043129  13.6912718  81.9201584  58.2457123  56.6125336  58.6761971
  58.9591255  57.1476517  59.0239372  57.6575356  56.4846077  59.4204521
  36.7075958  23.0924759  64.7505035  35.7945557  23.0838013  65.0377655
  36.6784248  22.7693996  63.8499451  70.9600220  52.2042542  24.2639046
  70.0371857  52.3536377  24.0582447  71.3707428  52.0385590  23.4153252
  81.6078339  71.3240662  78.5597000  81.6111374  71.4787903  77.6150894
  81.9405136  70.4318771  78.6574326  65.7652054  25.7527657  82.7506409
  65.7338333  26.3535728  82.0061417  66.4557037  25.1290340  82.5261383
   9.4700937  68.3998413  71.6819916  10.0923758  67.6731567  71.7124100
   9.7493820  68.9840088  72.3869629  75.6896820  67.0870972  89.1744156
  76.0604706  66.2710876  89.5103912  76.3582306  67.4269333  88.5796204
  73.6924973  27.9406090  47.7881699  72.9539185  28.4201965  47.4130249
  74.1603165  27.5901165  47.0301895   3.7053821  31.8612156  26.8816166
   4.5095186  32.2897758  26.5884743   3.0179350  32.2426796  26.3355999
  78.8233948   4.3153057  41.8104362  79.6306839   4.7654476  41.5616531
  78.7807922   3.5589941  41.2252769  78.8938751   2.1034412  60.6205521
  79.1535797   2.3825259  61.4985580  78.3667221   2.8284836  60.2849045
  30.5506077  43.4903603   1.4600775  31.1867867  42.9499550   1.9285544
  30.1234188  44.0051880   2.1446884  46.8724861  66.0540161  51.2519112
  46.3290939  66.3395157  50.5174446  46.5082664  66.5098495  52.0107155
  49.7295876  52.1757088   2.2185006  49.6903038  52.1904716   3.1747801
  50.5221939  52.6675224   2.0037243  81.2240677  11.7604656  60.6630020
  80.9600143  12.5833149  61.0746155  80.9040375  11.0818319  61.2573700
  31.5478115  36.5352058  65.1957932  31.2649975  37.4152489  65.4443359
  30.7346458  36.0375481  65.1101837  29.5035629  27.4523869  81.7636795
  29.3297081  27.5995274  80.8339691  28.8424377  26.8147182  82.0329819
   3.9179616  -0.0115370  36.1125984   3.7736208   0.9110294  35.9021988
   3.7957103  -0.4688979  35.2806702   3.9428258  40.3879814  13.9628506
   3.4473796  39.6781120  13.5543728   3.3091786  41.0992775  14.0565453
   2.4069097  46.9868965  18.0954037   3.2928481  46.8481979  18.4302292
   1.8833529  46.3027382  18.5125942  13.9183311  37.3598862  18.2291775
  13.0243692  37.2804451  18.5619717  14.3824816  37.8538895  18.9050159
  67.6675339  16.8310890  33.5939140  67.9074631  16.5876083  34.4879951
  68.1531525  17.6389294  33.4271698  51.1492844  42.6824722  67.0884476
  50.9023094  42.3018456  67.9312744  50.6973038  42.1424599  66.4401169
  46.5630722  40.5434227  71.7970734  47.1264725  41.0911751  72.3436813
  46.8006821  40.7761612  70.8995209  71.7098770  34.5676575  85.2904739
  72.1394806  35.2445755  85.8134079  70.9317474  34.3324013  85.7958374
  66.8988037  36.5527878  29.2663555  66.5310135  35.8126526  28.7834911
  66.1870041  37.1916504  29.3040752  48.8752174  66.1887131  65.7139816
  47.9938087  66.0928879  66.0747757  49.3318710  65.3914337  65.9823837
  58.9123154  52.1127281  11.3408175  58.5984192  51.7332077  10.5200462
  59.4623604  51.4302254  11.7253666  24.4377403  66.5867615  60.3419914
  24.9168091  67.2562561  60.8303604  23.6500244  66.4284668  60.8622589
   4.9308872  48.6617813  76.9128494   3.9944086  48.7004395  77.1071320
   4.9835415  48.1932030  76.0798492  19.0461483  49.7660065  63.2506790
  18.8026829  50.5380249  63.7615051  19.1261578  50.0882988  62.3529282
   4.7946711  23.0842628  16.4993629   3.9879136  23.5985241  16.5295143
   5.0636697  23.1142845  15.5812283  60.2845192  32.8092308  32.8275146
  59.3471222  32.6185608  32.7934456  60.3510971  33.7297020  32.5734787
  19.4732857  48.3505745  75.0828781  19.2347984  48.3454590  74.1558762
  18.7624855  47.8776207  75.5156708  67.5221939  29.0321312  87.0608215
  68.1916428  29.4191589  87.6249924  66.7095947  29.4658909  87.3211288
  56.0900841  23.2949467  83.7291946  55.2779617  23.1169071  83.2548599
  56.7600975  23.3431149  83.0472870  68.8467178  22.0960140  26.4227295
  68.2978973  22.5328159  27.0740585  68.5731583  22.4738140  25.5868683
  71.8120651  26.7709427   6.0383034  72.4727097  27.1171932   6.6382179
  71.3042526  27.5376759   5.7728338  59.8797455   0.8361008   9.9253159
  59.8864632   0.8072926   8.9685726  60.1875877   1.7165101  10.1405926
  63.2228317   8.3061419  38.6034470  63.8126335   7.7936230  39.1563377
  63.7455902   9.0598440  38.3297920  31.6129303   2.3950474  19.4776649
  30.7080326   2.2928681  19.7725430  32.0971527   2.6325917  20.2684460
  57.7955933  69.6221313  78.6957092  57.8157425  70.3586044  78.0846176
  56.9798431  69.7375031  79.1830215  58.3632927  14.7203569   5.5480628
  57.8217201  15.4902296   5.3742037  59.0900688  14.7941408   4.9295297
  12.4442081  60.0625153  40.5571632  13.1002407  59.3660164  40.5298767
  12.8744774  60.7786446  41.0243378  44.5318108  29.8960609  16.1373253
  43.7836227  30.4879513  16.2155151  45.2597084  30.4626198  15.8815813
  32.2410889  52.3443146  50.6061401  32.4658775  53.2260628  50.9031639
  32.9010620  51.7802620  51.0092697  63.7122154   8.7478580   0.6838459
  64.4107590   8.5311947   0.0663312  63.6363640   9.7007942   0.6349531
  81.9956512  63.4566841  77.1987076  81.3527908  62.7483330  77.2333145
  82.8403473  63.0188751  77.3038330  30.4773521  43.9982681  26.8555622
  31.0163059  43.2637711  27.1492882  30.7781639  44.7406769  27.3795586
  65.6114578  41.3604355  43.1537590  65.4303818  42.1760178  42.6865616
  66.5237885  41.4412041  43.4318771  16.7235012  55.7648926  84.7608414
  15.8419867  55.8004189  84.3894958  16.6752758  56.3117065  85.5449982
  23.9474125   1.8689836  23.8186760  24.4586315   1.3687315  24.4547863
  23.1914482   2.1844394  24.3138905  53.2012215  21.5025425  28.6389313
  53.6847267  21.6047192  29.4586964  53.3457031  20.5902557  28.3877563
  75.7559357  53.7621384  45.8815041  75.4629974  54.5998039  45.5226974
  76.6197510  53.6240921  45.4929314   1.8364639  38.2340584  53.1922073
   2.0926042  37.4395790  52.7237778   1.6987712  37.9461594  54.0946388
  79.5186996  32.4830475  30.1615906  80.3679199  32.5548134  30.5973835
  79.5408173  33.1563110  29.4815464  84.3984070  32.8617210  81.0876923
  84.3077545  31.9091339  81.0633774  84.6565552  33.1005478  80.1974335
  69.7311935  11.0247240  86.6843109  69.0991135  10.9375801  87.3978271
  69.2223053  10.8552876  85.8914948  21.6518021  38.5676041  62.3158607
  21.4297218  39.3202705  61.7677650  22.5248871  38.3070107  62.0225258
  50.5541992  56.7693520  80.7447281  50.4729614  57.3129997  81.5283585
  51.4977570  56.6633873  80.6234894  69.9863892   3.8185363  71.3263855
  69.4485016   4.5915499  71.1550369  70.6865921   4.1356254  71.8968277
  22.9385357   7.1148901  15.9728746  23.5483932   7.8337159  15.8067579
  23.2349510   6.7356749  16.8002605  38.9880676  36.2867508  40.2823181
  39.3843155  35.6223526  40.8460503  38.3469849  35.8055687  39.7591438
  33.1905060  41.7733459  76.7785797  32.5879440  42.1487122  76.1365128
  32.8711281  42.0931702  77.6223526  81.4852905  38.7922554   4.7295680
  81.0658569  39.3336411   5.3983035  81.0470886  37.9440498   4.7985711
  67.4945297  38.4097023  42.6770096  66.8582153  38.9900970  43.0947189
  67.9708557  38.0122795  43.4059792  28.0394363  22.5442104  70.5274963
  27.2944145  21.9626389  70.3759995  27.7674503  23.0957737  71.2610016
  54.0593491  36.6054382  86.7599792  54.9457054  36.9077873  86.9579544
  54.0893555  35.6606293  86.9105453  69.8910980  19.8582249  77.1462555
  70.4247437  20.3376961  77.7799530  70.5246277  19.3702087  76.6202240
  55.4959869   5.0385251  79.1243439  54.6076622   4.7177572  79.2799606
  55.6761971   4.8115821  78.2120590  34.9145432  45.3627434  29.0361748
  35.5616074  45.9776878  29.3816872  35.4130783  44.7961922  28.4473476
   9.8061838  30.4278698   8.5569372  10.5745964  30.7050133   9.0559025
   9.1195803  30.3195305   9.2150183  40.8119316  28.4513016  84.6031723
  41.4594650  29.1146412  84.8417435  39.9704590  28.8429260  84.8372269
  80.4888382   7.3655229  12.0852766  79.8406067   6.6760283  11.9416609
  80.8407593   7.1855812  12.9570580   7.5362082  17.3763485  18.5808334
   8.0752859  16.8053989  19.1282310   8.0477085  18.1811409  18.4977074
   8.5100279  63.0025749  16.9624615   8.7120056  62.0669746  16.9721470
   7.5772839  63.0440712  16.7515144  21.9446678  46.8766441  37.1782951
  22.6944466  46.5653038  36.6712151  21.5937767  47.6042786  36.6648216
  31.4705276  58.0032005  69.7282486  30.5666065  58.2923775  69.8528900
  31.3966618  57.2049332  69.2052307  29.0977688  32.3791924  68.3198242
  29.5929432  32.9086418  68.9448929  29.5434685  32.5162468  67.4838791
  30.0308361   5.7227616  11.6426592  30.4602165   5.6638355  12.4961176
  29.9496040   4.8143263  11.3521795  80.6148529   0.0399604  30.8036976
  79.7487030  -0.0606050  30.4088440  80.5842361   0.8945195  31.2338409
  46.2978363  54.2372818  53.4283371  45.6535912  53.9046173  52.8034210
  46.7300301  53.4532318  53.7670174  20.2780342  40.7082329  10.5150471
  20.1005993  41.4472237   9.9331141  20.6906433  40.0534897   9.9517565
  12.9974270  68.0840454  45.6664009  12.9926901  67.5509872  44.8713799
  12.7351646  68.9561386  45.3715973  12.8161678   5.2448812  55.6414642
  12.8173847   4.7519641  54.8209381  12.8869495   4.5761819  56.3226852
  64.5003052  42.9819145  40.2119789  64.2889938  43.6952744  40.8142242
  64.1801910  42.1943474  40.6518555  64.6007233  35.9622993  88.1829987
  64.4531097  36.8048744  88.6125412  63.7463684  35.7239914  87.8231125
  69.7574768  49.2971344  59.2882195  69.0182571  49.8352089  59.5715141
  70.0163422  48.8136482  60.0727348  86.7880402  41.3644867  40.5954704
  85.9068909  41.6942863  40.4192924  86.6471863  40.5574951  41.0906029
  81.5653534  65.1014862  32.5017624  81.5301590  66.0364761  32.2998238
  80.8358688  64.9590912  33.1049271  70.5723038  22.5778522  74.0226364
  71.4938583  22.5161438  74.2739334  70.5897141  22.9313564  73.1332779
  70.5658493  65.7186050  42.4427299  69.7269592  65.9552460  42.0471344
  70.8073883  66.4822617  42.9668694  52.4377518   1.5055257  52.1268578
  53.1341133   2.0513313  51.7616119  51.7630882   1.4919510  51.4479790
  23.5591412  61.9803963  49.1870918  24.2805614  62.1894836  48.5937386
  23.7601833  61.1013412  49.5081406  41.1075554  69.0194473   0.3187198
  40.6226692  68.2413940   0.0434822  42.0252304  68.7984238   0.1598018
  78.5624008  47.2266273  29.1167507  77.8128815  47.0472145  28.5490646
  78.5830231  48.1806564  29.1918564  76.4464874   2.8692782  30.2352066
  76.1579819   3.3104160  31.0342007  75.6696396   2.4043233  29.9244671
  37.7692719  59.0494385  74.2256927  38.0898857  58.9169769  75.1178207
  36.9432335  58.5668564  74.1939163  54.5533066  54.3969841  58.1563606
  54.8637199  55.2465706  58.4695358  55.1677017  54.1585503  57.4621696
   7.6041026  19.4555569   5.9081454   6.7541842  19.1798935   5.5648098
   7.3908825  20.0074577   6.6605911  10.6213675  18.0492325  66.0563354
  11.5509024  17.8255463  66.0098495  10.2635994  17.4510727  66.7124176
  34.6890755  63.4139328  56.3729019  35.1019058  64.2505493  56.5870857
  33.7603302  63.6234741  56.2741203  13.1153593  38.7270164  37.5928040
  12.9745560  39.6486549  37.8095703  12.2377872  38.3447952  37.5902405
  13.2057648  11.2828083   4.8787022  12.4130850  10.8327723   5.1708632
  12.8893347  11.9654932   4.2870560  32.9285774  63.5885735  87.2046051
  32.7104340  63.1013412  86.4100952  32.0824585  63.8685799  87.5537643
  13.9061499   3.3176496  70.2180176  13.4062519   3.9216609  69.6689224
  14.6862755   3.8121350  70.4692535  22.0234413  37.9063530   3.6033747
  22.1978855  38.2491417   2.7268505  22.8805733  37.8900948   4.0291591
   2.3558245  10.3402557  17.5962086   2.2682984  11.1876516  17.1597557
   1.5220290  10.2172976  18.0499687   4.8280282  58.0821686  68.3792038
   5.3731351  58.8292999  68.1324463   5.1140709  57.3754654  67.8004227
  28.7786789  14.0393057  72.1145401  28.7916489  14.9200954  72.4890671
  28.1370831  13.5639944  72.6424255  39.9838486  17.2232075  80.1771469
  39.5042343  16.5583782  80.6713181  40.7840881  17.3663654  80.6824722
  55.0056610  56.7902031   4.6121755  55.6401367  56.5090637   3.9529102
  54.6320763  55.9753609   4.9478779   0.3320118  56.6963959  29.3280411
   0.0783285  56.9393883  30.2184525   0.0209743  57.4202423  28.7844105
  73.5479431  26.3293991  33.3477173  73.9375458  25.5459423  33.7358360
  73.5398636  26.1520462  32.4071236  15.9222298  21.2896233  17.7181644
  15.5433922  20.5429115  17.2543373  15.4220171  21.3446560  18.5324078
   1.3244756  38.1094322  17.9466267   2.1349304  37.9120369  18.4161282
   0.6648884  38.1988678  18.6345062  57.1206017  66.1138611  86.3484421
  56.5465508  65.8122864  87.0525284  56.8017082  66.9916992  86.1388168
  73.3206329  17.9115028  62.9807129  73.3413620  18.7643433  63.4148369
  73.1917191  17.2838421  63.6918068  82.8641281  56.2081184  34.8686829
  82.4998169  55.7685394  34.1003876  82.2121582  56.8706627  35.0971603
  53.6457977  27.3836784  35.4485893  52.9420929  26.8745251  35.8508263
  53.2955055  27.6454239  34.5971146  71.1155853  37.8809547  83.7178650
  70.7624359  37.0439873  83.4161835  70.5044327  38.1682281  84.3962402
  43.3935509  46.1112595  23.1010094  43.0098839  46.2178116  22.2305622
  43.3760109  46.9901810  23.4797153  26.2227917   9.3268194  68.0564041
  25.7485752  10.1419621  68.2203903  26.7988033   9.2281570  68.8145065
  79.8820267  51.7016106  58.0609665  79.9383240  52.5279121  58.5408478
  80.3327560  51.8735847  57.2342262  72.0932388  59.9969521  48.6634369
  71.8963013  59.5739174  47.8276825  72.0161667  60.9335976  48.4818115
  63.0267105  42.7909622  64.3914948  63.4492416  42.9545250  65.2346725
  62.1601715  42.4540634  64.6191864  21.1394768   6.6989570   1.6264367
  20.4563217   6.7275505   2.2962992  21.1700401   7.5897012   1.2773348
  63.0706406  58.8263474  12.1560574  63.2998009  58.0086555  11.7143602
  62.1386490  58.7378006  12.3554974  28.8470669  13.9879036   9.4856968
  29.3638363  13.5345860   8.8196011  29.0739155  14.9114971   9.3773146
  46.1418762  62.1656570  73.4330215  46.4210091  63.0242462  73.1149902
  45.3816109  61.9463005  72.8944016  59.7424583  66.8417969  76.9912338
  60.2517471  66.3234024  76.3682327  58.9530411  67.0879288  76.5090790
   2.5552673   8.8902569  28.1647263   3.2230427   9.3656855  27.6704845
   2.4972966   9.3564510  28.9987144  32.9801254  42.5073547  79.4106216
  32.4501534  42.7615623  80.1660919  32.8156509  41.5700836  79.3071518
   6.1736226  13.7040091  27.7940521   5.8425422  12.8229580  27.9683132
   6.6673956  13.6173916  26.9786282  64.9138031  37.0030937  41.2514648
  64.6281509  36.8234558  42.1472130  65.6614075  37.5923195  41.3521042
  85.2035446   3.2608576   3.9698882  86.0821304   3.2651925   4.3497629
  84.7847214   4.0443916   4.3261037   5.3073802  26.6855183  34.4466515
   5.3512774  27.0728512  33.5724182   5.0148787  27.4010201  35.0112114
  47.5604553  64.1226120  61.9290314  47.7951317  63.8114700  61.0547600
  46.6086426  64.2200851  61.9010811  85.8322296  56.9636536  18.4352322
  85.7950058  57.6174240  19.1333961  86.7567902  56.9274254  18.1900730
  65.0252991  59.6280594  36.9957428  65.0019455  59.6590996  37.9521561
  64.6083527  60.4441528  36.7193680  43.1870041  51.4741669  79.6994247
  43.5353088  50.7092056  79.2414398  43.1668510  52.1626511  79.0347366
  32.7100754  54.9586105  63.4326897  32.1408691  54.6311111  62.7362862
  32.5597534  55.9039040  63.4402122  36.7311897  67.3530502  56.6283684
  37.4417610  67.9777222  56.4831009  36.4538727  67.5113449  57.5307388
  51.0886116  17.7992954  54.2738075  50.5955582  17.3603210  53.5806770
  52.0010376  17.7456493  53.9894981  19.8465805  29.5477276  29.6611137
  20.3951263  30.3176384  29.8113346  19.3802662  29.4209747  30.4873791
  63.8611641  55.1434937  21.0669212  63.5716972  54.7027664  20.2680473
  63.0620041  55.2553520  21.5817623  32.8764458   7.4719653  33.0507164
  33.4249458   8.2517939  32.9655876  32.0081902   7.7576542  32.7665634
  28.7873726  55.5260696  36.1934090  29.1855927  56.1125526  35.5502205
  29.5146294  54.9922638  36.5133820  71.4022675  32.9737282   4.6126852
  72.1171112  32.5801888   4.1123309  71.5175629  32.6363144   5.5009923
  26.1899681  40.6416550  71.7708511  25.7714005  39.8501549  72.1093216
  25.4749527  41.1403961  71.3755798  70.0987701  16.9130173  35.5292206
  69.7455521  17.7951527  35.6445694  70.9042206  17.0411568  35.0281639
  62.4472198  46.8922501  73.9790268  62.5593376  46.4333878  73.1464996
  61.9552460  46.2796745  74.5257874  41.6947479  53.9414749  50.2848778
  41.0461502  53.7238159  50.9543419  41.4537697  54.8213272  49.9950142
  67.1434631  23.4547997  18.8978615  66.9765472  23.8136883  19.7693939
  66.3380890  22.9892845  18.6722584  53.3347397  68.3405685  30.6239128
  53.0446548  69.2525864  30.6061249  52.8146286  67.9373169  31.3189659
  41.7615242  65.7063904   3.4023848  41.3331070  65.5292511   4.2398281
  41.7667084  66.6610718   3.3332074  75.7567444   6.9814410  25.7098160
  75.7420502   6.6226296  24.8225346  74.8343277   7.1059179  25.9331436
  15.1968040  66.3079300  63.6356316  15.0825386  66.4381332  62.6942406
  14.5752878  65.6149979  63.8587685  60.7038841  36.7246208   5.8181252
  60.9598808  36.7697411   4.8968964  60.7445793  35.7926559   6.0326486
  21.5327358   0.1231059  86.4435806  20.7208385   0.1694576  86.9484634
  22.2051792   0.4508861  87.0407486  39.3647804  57.4212151  31.5432091
  39.5258255  57.7734032  32.4185715  40.2214241  57.4390984  31.1165066
  54.4647598  44.0006561  53.4968987  55.1832123  44.6193848  53.3656235
  54.7057800  43.2385254  52.9703102  48.8856964  36.3199348  69.5274124
  48.5285645  36.8462143  70.2427597  49.5233421  36.8939438  69.1029663
  68.2930527   6.5329852  87.3380890  67.7934952   6.0442586  86.6840057
  69.1453857   6.6797671  86.9279480  48.0948601   3.7734768   2.6188097
  49.0324936   3.9630823   2.5852091  47.7364388   4.1987343   1.8397583
  75.2876053  17.7733402  80.2949295  74.5419006  17.2264938  80.5421295
  76.0395889  17.1820126  80.3278351  53.1694641   5.5916219  43.5320015
  53.0588684   5.0672774  44.3251381  53.6655769   5.0272746  42.9390335
  53.1934814  59.7562675  63.5183868  53.8717117  60.1197586  64.0876923
  52.4065247  60.2568970  63.7335625  31.5030155   6.1376882  13.9286861
  32.0791168   6.7878571  13.5266657  32.0519943   5.7015719  14.5803423
  59.0942421   2.3126135  29.8634453  59.7078781   3.0238945  30.0471935
  58.5801620   2.6260307  29.1193199  72.9313278  39.5552673   6.9168820
  72.5350266  38.7200890   6.6685781  72.2068558  40.0662231   7.2778502
  25.6808434  11.0919962  88.3080063  26.1627369  11.5520496  88.9952927
  24.7814426  11.0503511  88.6329269  64.3768158  64.9510574  85.3660889
  65.0542526  65.2011948  84.7378082  64.7767181  65.1024780  86.2224655
  86.5793762  26.1825085  45.7643738  86.7551117  27.0744991  45.4648666
  86.1230698  25.7692719  45.0313988  44.3629875   7.3347116  73.9273224
  44.0047989   8.1393309  73.5524597  45.2667198   7.3057556  73.6132126
   7.4271655  34.9381638  45.3577003   8.0074921  35.1545410  44.6278839
   6.7282553  34.4176064  44.9617500  60.4511757  38.3529510  27.0669765
  60.5657921  39.2574539  26.7754803  59.6970100  38.3847427  27.6555862
   5.0574265  12.8189344  81.8674164   4.3704500  12.3302965  82.3207626
   4.6156211  13.2099037  81.1136322  72.7244644  57.2772217  19.3375664
  73.0014191  58.1864128  19.4511433  73.0859146  57.0209503  18.4890919
   4.1722622  35.8366928   9.1793823   3.5025733  36.1863022   8.5915709
   4.9427047  35.7215347   8.6231556  45.4637604  43.9589043  72.1057892
  44.9419327  43.2049255  72.3804703  46.3375702  43.7858391  72.4561310
  49.9951668  55.8843498  85.6896744  49.6584892  55.1336060  85.2005386
  49.8760605  56.6280365  85.0989304   7.4869995  45.6648369  29.5997963
   8.3216457  45.4019699  29.2118549   6.9127669  45.8203697  28.8499298
  46.2236061  54.4805336  42.7883797  45.3004265  54.6879005  42.9332047
  46.6077385  54.4727821  43.6650848  49.1394615  19.9465313  66.8660049
  48.6809616  19.2439022  66.4052277  49.9682541  19.5530128  67.1389236
  67.9843369  39.1305771   4.8618369  68.0427551  38.5289459   4.1196384
  68.7644958  39.6800690   4.7867107  14.7777519  27.4391785  88.9023438
  15.3336601  26.6704826  88.7746658  14.7213030  27.8406296  88.0352325
  86.1369400   0.3729586  85.9028091  85.3085632  -0.0798394  85.7447128
  85.9451370   1.2932059  85.7222900  42.7510796  50.8827133  82.4413452
  42.9295654  50.9673996  81.5047607  42.2881699  51.6885147  82.6707764
  53.5303688  65.2054901  24.6644459  53.8919182  66.0386047  24.9668236
  54.2247505  64.5682449  24.8317356   2.3648674  41.3814049   9.1960812
   2.3674698  42.3338394   9.1007423   3.2840836  41.1293678   9.1080360
  66.4571533  38.8283119  37.2409401  65.8765869  39.4923172  37.6127930
  67.1427231  38.7139015  37.8990746  23.9505177  49.0877075  72.7461166
  23.4143372  48.2989388  72.8272934  24.6876373  48.9382210  73.3381805
  79.7887344  16.5101795  69.8575745  79.2231216  17.1919632  69.4949722
  80.5783615  16.9756603  70.1333389  80.1568832  68.5636749  29.7022514
  80.9705124  69.0602875  29.7894859  79.6706696  69.0193329  29.0150833
  41.1343422  49.6279449   7.6968260  40.4418564  49.3152008   7.1146836
  41.9470825  49.4157944   7.2378292  78.6195221  69.0241547  38.2335396
  77.9706955  69.6972809  38.4388504  78.9013214  69.2272415  37.3415871
  83.0759811  18.0883389  86.1984711  82.5730667  17.5542068  86.8132935
  83.2054520  17.5209179  85.4385300  64.4670181   8.7786493  65.2319641
  63.7681999   8.8886776  65.8767700  64.1301804   8.1208792  64.6235962
  49.7544670  56.7954445  25.0125980  49.1806412  56.0324287  25.0816441
  49.2211761  57.5254364  25.3271580   1.1945763  31.1314316  77.5804901
   0.2954794  31.1664181  77.2539368   1.7195227  31.5157604  76.8783798
  34.6260071  49.4264488  71.7582550  34.6901169  50.3486061  72.0067368
  35.4669456  49.2307167  71.3450394  62.2494736  54.6893845   1.9309416
  61.4929733  54.1223564   2.0806639  62.5563431  54.4531593   1.0555797
  52.6470757  52.4802170  42.0513153  52.5078964  52.8508873  42.9227867
  53.5432930  52.1447945  42.0740395  56.7931061  62.1781006  37.1097260
  57.6780586  62.1188278  37.4696999  56.5339661  61.2688599  36.9601936
  16.7609386  12.4751902  87.4965820  17.2144547  12.6238699  86.6668549
  16.0742302  13.1417093  87.5169830  12.2499561   0.9293326  51.7293777
  12.9448957   1.5583531  51.5354118  12.3563519   0.2439083  51.0697556
  80.4076843  32.1156693  14.3870811  80.9800644  31.6612034  13.7689648
  80.9204865  32.8695221  14.6785793  30.4322491  46.3835297   8.1547222
  31.1329689  47.0348473   8.1230049  30.8850632  45.5418282   8.1024666
  64.3864670  42.4254036  73.7673492  64.3986740  43.3560715  73.5438843
  63.6033859  42.3190193  74.3074493  87.0463562  48.8565025  48.9002533
  86.5514374  49.5249214  49.3740768  86.3894882  48.3994637  48.3750267
  54.2547493  60.7940979   0.6063935  54.9956589  60.3136482   0.2369974
  53.4917870  60.2549515   0.3979711   7.2313809  71.6279297  54.3884239
   7.7070122  70.8498459  54.0975838   7.4106960  72.2839661  53.7148552
  26.8671646  46.4558716  52.3544044  27.4927883  47.1690521  52.4816704
  27.1389332  45.7843590  52.9800606  34.3075523  35.2305222   7.3110390
  33.8939095  35.9569092   6.8446784  34.7020340  35.6354637   8.0834646
  61.8359871  36.6342010  11.3342648  61.6077766  35.7367821  11.5767336
  61.0571404  36.9672966  10.8885288  38.4750710  57.5032768  54.2465439
  39.1663971  58.0044785  54.6790924  38.8203888  57.3243675  53.3719139
  73.8571091  66.3562469  68.6072311  73.6988068  65.4575195  68.8961105
  73.3161926  66.8928528  69.1866150  17.4571972  70.9163437  85.2426605
  16.9208069  71.7042770  85.1549911  18.2307186  71.0923615  84.7070236
  51.5712013   6.4010720  28.1988831  50.9548607   5.7590184  27.8465729
  51.6636772   7.0514140  27.5026531  19.9160233   8.3246241  56.1092682
  20.6839027   8.1376667  56.6493073  20.2483959   8.3231487  55.2116280
  19.7012978  68.3515472  82.8243256  18.9485683  68.1082535  83.3632431
  20.0368786  69.1515579  83.2288055  12.2564068  36.1504707  21.4521351
  12.9649277  36.7371788  21.1875572  11.4628668  36.5656395  21.1142578
   3.9239933   9.5783939  45.6388359   4.2716761   8.6921988  45.5388031
   3.1916749   9.4810810  46.2474976  13.3104897  19.7861576  62.0267067
  12.9516535  20.5986595  61.6699028  13.2159309  19.8785515  62.9747353
  37.6470528   8.8878622   7.9282231  38.2070618   9.3837471   7.3309641
  37.6185837   8.0072155   7.5542126   0.3110969  53.9003754  67.4644241
  -0.5643425  53.5294075  67.5749741   0.5278406  53.7335281  66.5471344
  15.5125828  43.3324738  27.9687881  16.0934029  42.8652267  27.3683243
  15.7330647  42.9860535  28.8334332  75.6480637  64.1816101  61.5030365
  74.7080841  64.0478592  61.3814774  75.7442703  64.3714218  62.4362793
  51.5831451  12.0544901  10.2939491  52.5388298  12.0285501  10.3411045
  51.3132706  12.4534883  11.1211128  80.4117584  10.1915655  37.5311584
  81.1154785  10.1322680  36.8850212  80.8612061  10.3534470  38.3606300
  48.8238068  40.4202347  32.9507942  48.1666832  39.7287979  32.8712006
  49.6019135  39.9738693  33.2847710  46.0347328  17.4296722  88.8617935
  46.0731583  18.3494473  89.1240387  45.6054916  17.4422531  88.0063248
  42.2144089  61.6485748  65.4740601  42.8078537  61.8621407  66.1940842
  42.6569443  60.9447632  64.9996719  65.6209641   4.2919025  15.9625769
  65.1873398   4.0300589  15.1503925  65.4483566   5.2306719  16.0343513
  57.4863319   8.0785503  45.5649261  58.0282249   8.8050232  45.8728561
  57.4562950   8.1882315  44.6145058  54.8850822  41.4216270  57.0617561
  54.2587242  42.0755577  56.7514648  55.5711098  41.4114342  56.3942986
   0.6653058  61.6861420  87.1493912   0.3964908  62.2723007  86.4420090
   1.6179456  61.7730217  87.1834641  16.7608757   6.1019864  27.4334202
  17.0858936   6.4218702  28.2750072  15.9346905   5.6674886  27.6452255
  70.7895966  21.4965572  60.3613586  70.6154861  22.4320717  60.2577744
  70.7973862  21.3578033  61.3084145   4.9753251  56.7737465   3.2513869
   5.6495795  56.8087997   2.5728707   5.3036985  56.1333618   3.8825023
  26.4821529  37.0051308   4.6684923  26.9789200  37.5689430   4.0755582
  26.5708084  36.1280823   4.2954540  77.2076645  29.0072651  83.3175049
  77.0961456  28.3809071  82.6023254  77.1289902  29.8647099  82.8993759
  47.0120354  49.9363937  36.9636192  46.2790947  49.3229866  37.0161400
  47.6314392  49.6266136  37.6243820  52.8862343  57.2810173  31.0947094
  52.2174454  57.9273453  30.8684063  53.3108864  57.6387215  31.8744240
  32.0060272  57.3551407  23.4025726  31.1923256  57.6410789  23.8177376
  32.2772903  56.5896645  23.9092255   5.9733510  28.5945072  81.4234009
   5.7209649  29.4418335  81.7902374   5.3406291  28.4390621  80.7221680
  85.1984787  19.9661617   6.4459243  84.8131561  20.8151340   6.6627274
  85.2983322  19.5258884   7.2899756  84.4392548  50.6864967  80.7002335
  83.7376785  51.2720261  80.4153214  85.2213669  51.2381973  80.7128067
  62.8497581  12.9258471  21.0484791  62.8048019  13.8063374  21.4212360
  63.7488785  12.8462400  20.7299213  65.6143875  15.4657841  55.7885590
  64.6577606  15.4383469  55.7700539  65.8314438  15.6354399  56.7052536
  75.4712143  18.9952736  39.8303795  76.3775711  18.8438969  39.5623436
  75.1884613  18.1595192  40.2015877  49.2808418  56.8478546   6.3373351
  49.2499008  57.7740402   6.0976367  48.6982040  56.4187012   5.7107630
  69.4982986  22.4039097  52.5807610  70.1784821  22.1465950  53.2031517
  69.7672653  23.2708282  52.2768784  47.0095634  54.1720505  45.2300148
  47.7293091  54.1649246  45.8610001  46.5743675  53.3285027  45.3535652
  53.7530212  27.5445423  14.0762997  53.7132034  27.1808605  13.1917763
  54.6765022  27.7610512  14.2048998  36.4485016  70.4223022  67.7555466
  36.3881874  71.3211441  67.4320068  36.8925858  69.9448090  67.0548248
  83.4158630  53.6371536  27.6548157  84.2412262  53.9507599  28.0244827
  83.6145477  52.7557526  27.3387680  14.5335350  42.1582718  19.4927063
  15.2186260  42.2976494  18.8389053  13.9253225  41.5478668  19.0759163
  18.5066032  46.4098549  68.4347382  18.7098598  45.5713654  68.0201874
  19.3597050  46.7709351  68.6757126  60.8162918  42.7582703  71.2718964
  60.0577164  42.5720406  70.7186279  60.7487831  42.1295166  71.9904633
  60.7727928  15.8450050  41.3381805  61.4674568  15.9233770  41.9920387
  61.0996170  16.3323345  40.5819206   3.4068408  25.4481831  58.4284401
   4.0802827  25.5119381  59.1056747   2.9772353  26.3035221  58.4365959
   4.2990050  70.9336777  39.6287041   5.0785871  70.9852676  39.0756912
   4.4134593  70.1258545  40.1292572  84.1005859  23.2074928  23.9654388
  84.4331589  22.3612213  24.2645187  83.6883087  23.0184803  23.1225052
  47.6028175   1.1882131  86.3178406  48.1513252   0.5579426  85.8507919
  47.0380020   1.5617416  85.6413116   0.9927169  19.6181431  41.0901604
   1.5920979  18.8741589  41.0313377   0.3545840  19.4673290  40.3928299
  84.8159866  22.4697819  16.9232082  84.0966263  22.3447742  17.5421791
  85.5984802  22.5195065  17.4722652  34.6262245   4.2087355  39.6308746
  35.4428101   4.4882102  39.2169800  33.9410400   4.4981618  39.0283928
  18.4958477   1.0427154  35.0354691  18.2428188   0.1214674  34.9762230
  18.0240707   1.4672323  34.3189201  45.2120056  43.6344070  65.0511475
  44.6978302  44.4234085  65.2224045  44.6735611  42.9193382  65.3902359
  85.5861435  69.3723297  40.3583755  84.6966629  69.0642548  40.1847687
  85.9896088  69.4392929  39.4929466  12.9710188  55.8634377  52.7736588
  13.4881792  56.4939499  52.2724304  12.5448112  56.3881416  53.4513474
  60.5527992  67.0004044  34.0754890  60.2329941  66.1909027  34.4738197
  61.3328209  66.7355728  33.5879860  24.6843929  32.4853859  16.6120586
  24.1634159  32.6596451  15.8281918  24.4129124  31.6107521  16.8905296
  27.0183811  59.8243752  32.9780273  27.9083500  59.9772606  32.6605186
  26.5768852  60.6665306  32.8681068  85.5065765   3.2765210  33.4433479
  86.0334549   4.0199718  33.1502380  84.8536835   3.1588092  32.7533455
   4.8505201  65.6029358  19.7168217   5.7629738  65.3885345  19.5226746
   4.3799911  65.4024124  18.9077339  42.5529366   2.3692675  70.5128860
  42.5404396   3.2691076  70.8390198  41.7024231   2.0107532  70.7665100
  63.5151367   7.0431123  29.3989601  63.8885155   7.9070649  29.5733299
  62.6128883   7.1043606  29.7126923   6.9570327  30.3241634  69.1326447
   6.3417363  30.3308983  68.3994370   7.3301945  31.2055969  69.1402740
  72.4540939  55.0888214  14.8133001  71.7646484  55.7516937  14.7745943
  73.2366867  55.5382996  14.4943171  73.7499161  -0.2639794   4.4702530
  72.8403549   0.0264086   4.4024129  74.1531754   0.3524294   5.0815253
  47.7554092  50.5567741  12.0414915  48.0615234  50.0440483  12.7895803
  48.4819717  51.1473045  11.8424616  51.2820969   3.6968019   4.5343614
  50.7018051   3.0013163   4.8438616  50.7974434   4.1138229   3.8220167
  52.2464485  63.0703011  61.4100151  51.7273636  62.3639641  61.7945595
  53.0364838  63.1078033  61.9491501  31.4485970  70.9966278   7.6925497
  30.6678619  71.1560745   8.2228909  31.9639874  70.3745575   8.2060089
  47.7666016  17.6718769  53.9383888  48.5200882  17.4231148  53.4030304
  47.5025864  16.8604393  54.3720856  62.8140564  57.9262886  55.7647667
  63.7223091  57.6785583  55.9377861  62.8772926  58.6413498  55.1315804
  15.0765018   0.5140783  82.5000305  14.9677877  -0.1994944  83.1287003
  15.0770245   0.0825389  81.6456299  84.8581467  71.3281403  67.5655289
  83.9572449  71.5679169  67.7825851  84.8333435  71.1253662  66.6303787
  27.8662605   1.9302458  17.9782276  27.6514874   1.0126121  17.8107376
  27.9373493   2.3223016  17.1078987   6.9933434  11.1713514  78.2202911
   7.8704762  11.5526981  78.2583008   6.7662282  11.1852188  77.2905273
  40.6958199  14.5627689  78.4181137  41.5592041  14.2448883  78.1540146
  40.6994743  15.4903116  78.1817169   1.8396349  62.4528351  69.8673935
   0.9757346  62.0539322  69.7635498   1.6605488  63.3220291  70.2260971
  10.1287975  57.0858002  28.5846138   9.3423243  56.9051971  29.0994682
  10.5188112  56.2248917  28.4330997   1.2396728   6.2046466  87.7118073
   1.4498247   5.8510146  88.5761032   1.3110189   5.4540582  87.1220932
  32.1692848  27.4711628  74.6889420  32.0164146  28.3971882  74.8769302
  31.7460308  27.3254757  73.8428497  66.9896698  11.9392834  56.4528503
  67.3136749  12.1893082  57.3181496  66.0404129  11.8797703  56.5605469
  28.5091610  27.4965744   2.6376286  29.1675816  28.1195660   2.9451890
  28.0663757  27.9505157   1.9206146  74.3168488   6.7913318  51.2302971
  75.1740875   7.2106614  51.3047256  74.2834396   6.1820025  51.9677467
  66.3195801  26.2000484  77.1125717  66.4207840  26.1204948  78.0610809
  65.3972092  26.0004177  76.9525375  42.3824959  55.4670410  74.3774414
  43.2732468  55.2259941  74.6317825  42.4980507  56.1661606  73.7339249
   4.2261915  30.8170166  70.2800140   3.8031628  31.4288006  70.8825073
   4.8747249  30.3618164  70.8170624   1.6731852  13.8170338  11.0598164
   1.8974648  12.8880968  11.0049782   1.6660405  14.0067234  11.9980049
  52.6074562  33.4526291  80.2659302  53.0782928  32.8478012  79.6925812
  51.7076797  33.1261292  80.2713165  42.4299812  60.0965157  45.9686508
  41.9040184  60.8180084  46.3136826  42.0334816  59.3102570  46.3439102
   4.3917985  51.6427612  65.8978958   5.3243761  51.4549789  66.0040588
   3.9755557  50.7812233  65.8709335   1.2095875  28.9356194  62.1094170
   1.3278736  28.2541676  61.4477043   2.0885155  29.2873993  62.2507210
  50.2223663   9.1394444  85.3547363  49.4706650   8.5670385  85.2013626
  50.3176384   9.1597042  86.3069687  26.5072918  57.6422043  67.8233795
  26.5511436  58.0280342  66.9484863  26.2394447  56.7357559  67.6722565
  74.1651917  65.1720657   6.4305277  74.1741028  65.4191055   7.3552561
  74.7536240  65.7987442   6.0095201  85.1540146  31.3791580  77.2843018
  85.3106537  30.9232178  78.1112366  84.9462891  32.2774048  77.5416718
  82.5816422  14.2451735  45.9464989  83.1862564  14.4557362  46.6580696
  81.8234024  13.8572817  46.3833618  41.1617355  69.0957565  56.6012840
  41.8227196  68.6112442  57.0958366  41.3947983  70.0155487  56.7273445
   9.2119942  42.6697044  21.1889324   9.0780363  42.8396187  22.1213570
  10.1463165  42.8238182  21.0492039  42.2536621  58.7854958  33.3269386
  41.3647728  58.8184929  33.6805229  42.8197899  58.8333931  34.0972900
  74.0292053  42.9475288  82.9996796  74.0925140  43.4425545  83.8164825
  73.9760895  42.0330276  83.2773514  38.1624184  54.1795540  30.8683281
  39.0451546  53.9265366  30.5981579  38.0245972  55.0362778  30.4642735
  59.9520149  19.5683842  89.1531372  59.1755257  19.9360828  89.5751495
  60.4362564  20.3309212  88.8364716  80.6190796  22.0336590  39.2022591
  80.2634125  22.2720337  40.0583611  79.8698883  22.0855923  38.6087532
  10.3693867  53.5147972  56.9909134   9.6586504  54.1337090  56.8234825
  11.0481491  53.7530060  56.3594284  15.2223520   3.0052426   5.8874626
  14.9183550   3.2422061   6.7636280  15.2234869   2.0480464   5.8850713
  28.1408634  60.0989075  16.4938202  28.2680435  61.0287094  16.6822872
  28.0516491  59.6900444  17.3546944  47.8804855   7.6707678  42.4725761
  47.7130585   7.7615857  43.4106331  47.9371300   8.5706129  42.1511688
   1.7877144   2.6624110  49.1690674   2.4890809   2.2817285  48.6404877
   1.9070961   3.6079712  49.0802155  28.5397091  49.0518456  22.4370480
  27.9728680  48.5785408  23.0460682  28.4324532  49.9724541  22.6762371
  61.1888618  68.2543640  44.4391975  61.2028732  68.1038055  45.3843765
  60.4060059  68.7853470  44.2928238  50.9715424   4.2344189   1.2592231
  50.7110405   3.6621864   0.5374749  51.9249763   4.1570907   1.2940533
  84.8197708  53.2688980  85.0181808  84.0220795  53.0737724  84.5264053
  84.5205536  53.3991928  85.9180298  77.0364456  20.6690731  69.0591049
  76.2661209  20.6306686  68.4922256  76.8682404  21.4095001  69.6419525
  32.7431107   6.3233476  29.1136723  32.2939873   5.6854796  28.5590134
  32.0520973   6.9209938  29.3992386  15.1045914  15.6465082  88.5198135
  15.4402409  16.5417023  88.4729309  14.8597202  15.5302992  89.4378357
   0.7156954  51.2560043  25.9663868   1.1197488  52.0272560  26.3640594
  -0.2176711  51.3494568  26.1569786  74.0656204  15.1690359  55.1795502
  73.9070511  15.8860540  55.7935295  73.1971054  14.8062372  55.0055199
  76.9512024  33.4336891  71.4661560  76.0382690  33.6680603  71.6330338
  77.3003159  34.1714363  70.9660797  16.3768997  46.0029106  47.9236336
  17.2471199  45.8811340  47.5440025  15.7994013  45.4736633  47.3735199
  51.8561821  55.5887146  22.6057701  51.9751053  54.6390991  22.6236286
  51.5905190  55.8136368  23.4974346  61.1559105  41.0689926  22.6368351
  61.6164780  40.4607773  23.2149220  61.7405396  41.1753998  21.8864231
  50.1518059   6.2071371   2.7059474  50.5213280   5.5740328   2.0904274
  50.7200661   6.9737539   2.6310451  44.0288239  10.2208862  70.1301346
  44.8698273   9.9930334  69.7338638  43.3970947  10.1376400  69.4158401
  36.8428802  36.1608696  73.3096848  37.1147766  35.2788544  73.0559998
  37.4806595  36.7381439  72.8898926   2.0809393  70.9245071  16.3323021
   2.9941750  70.6660995  16.2079735   1.7012520  70.2183075  16.8551388
  10.9476128  50.0187187  22.3229427  11.2830725  49.2128067  22.7156315
  10.5454559  50.4910088  23.0519447  15.3673954   5.4531016  14.2645178
  15.0526409   4.9441099  13.5174646  16.3014965   5.2504950  14.3158836
  31.9177227  48.6182213  28.8523026  32.2836533  49.4348259  28.5124664
  31.2468243  48.8973961  29.4753494  68.2757034   2.4421742   1.9110271
  67.5072403   1.9095504   1.7060699  68.0430603   2.8967073   2.7206631
  14.2186842  42.7951927  49.7742043  14.4331989  41.9207382  50.0990829
  14.9160194  43.3551750  50.1153450  28.0333691  17.6589851  80.0327530
  28.4379978  16.9374943  79.5511398  28.3574390  17.5608406  80.9280624
  73.8104095  44.6583633  80.5170059  72.9437103  45.0603180  80.4578705
  73.7663879  44.1081352  81.2990189  24.0121632  18.0498734  67.1860046
  23.8029423  17.5800781  66.3787003  23.8275871  18.9671383  66.9840393
  81.9679260  47.4249458  57.0980415  81.2965698  46.7458954  57.0316925
  82.1769485  47.6446228  56.1901398  85.1707077  14.1935625  87.5913773
  84.5843201  13.6364212  87.0795364  84.8849335  14.0738058  88.4970398
  85.3229828  11.9580345  66.9388428  85.7076111  12.7258186  66.5159912
  85.3314514  11.2820082  66.2612305  40.5155869  51.7179146  18.1917648
  41.4161606  51.4359589  18.0314579  40.0316925  51.4243393  17.4198227
  83.3486633  40.6719131  48.3975906  84.2506561  40.3922729  48.2412453
  83.3741837  41.0939369  49.2563591  15.9400425  61.6468353  55.0238037
  15.6263084  61.5611000  55.9240570  16.1073723  62.5831833  54.9166260
  81.2190247  57.7938080  18.6886482  81.6443405  58.4413605  18.1264973
  81.1361771  58.2302361  19.5365276  84.6620636  45.2025452  26.2160034
  84.8953171  44.4820404  25.6306000  83.7736664  44.9967499  26.5069313
  60.0830536  68.9037857  36.5357246  60.4385719  68.3608551  35.8321152
  60.8370361  69.3929367  36.8650818  57.1095047  47.2782516  45.7563553
  57.8827744  47.1053009  46.2933578  57.2247505  46.7235527  44.9848251
  59.4254379  66.9241486  85.3481674  58.7171326  66.7347412  85.9635162
  59.0279350  67.5005035  84.6954498  13.4678106   9.3341961   9.2561026
  13.8075533   9.7443151   8.4607353  12.6439590   9.7903461   9.4276447
  80.9133072  53.7379456  76.4113464  80.5627823  53.8471642  77.2953339
  81.5195084  53.0006828  76.4834671   6.5861487  67.1470184  24.3782921
   7.4200139  67.6040115  24.4881058   6.1428781  67.6229401  23.6759796
  24.3500462  10.8576870  81.3795929  24.5896378  11.6478500  81.8638153
  23.4044456  10.7775908  81.5047226  56.4018860  55.9997444  78.4204559
  55.8037987  56.5886612  78.8805695  57.0223846  56.5825500  77.9827957
  51.1367073  46.2468796   7.8810544  50.7400970  46.6904335   8.6308517
  50.6772614  45.4088287   7.8280258  29.8770542  49.4969139  25.5197239
  28.9352283  49.5123215  25.3495617  29.9936047  48.7933846  26.1582355
  68.0650711  66.9957581  11.2054377  68.5118332  66.2986755  10.7251091
  68.1206055  66.7281265  12.1227846  57.8820419  29.4553661   1.8473128
  57.5311737  28.6519394   2.2315347  57.1949768  29.7564259   1.2527264
  42.2228088  47.5475845  36.3937035  42.2464943  47.0128403  37.1872520
  43.0940590  47.9408607  36.3438110  32.2950974  44.0593491  82.3285522
  32.6462975  44.7446976  81.7600632  31.4330406  44.3832130  82.5897141
  42.1020126  -0.2886405  63.6841507  42.4761581  -0.1237705  62.8186646
  41.4877434   0.4326123  63.8208885  50.6745071   0.9105915  41.8787155
  50.9850082   0.1665862  42.3947372  50.9102516   1.6783315  42.3995171
  69.0174255  30.2164783   7.9520454  68.9509659  30.1952438   8.9067001
  68.5235519  29.4501171   7.6604695  30.4452515  65.6210938  79.4724503
  29.8584709  65.4446869  78.7370605  30.9996204  64.8427887  79.5285645
  85.1106873  27.4562702  37.0350571  84.4651108  26.9874706  36.5062027
  84.5885010  27.9609718  37.6586151  25.8837318   3.9352274  40.1371307
  25.2989292   4.4877348  40.6557541  26.7349148   4.3696222  40.1920929
   2.1726875  71.0670395  38.0596161   2.6519175  71.1934814  37.2407227
   2.8533106  70.9051514  38.7128944  54.4513435  38.8495216  57.7230148
  53.5019341  38.7449226  57.6604385  54.5925484  39.7944603  57.6648369
  13.9923410  30.5910568  19.9444695  14.5798302  29.8423424  20.0470161
  14.1928139  31.1567020  20.6901817  70.9701004  27.3283234  27.4455299
  70.4011459  27.3025589  26.6762028  70.4593201  26.9048328  28.1354542
  36.6070747  29.6872921  12.6247063  36.8785095  28.9719028  13.1998358
  36.6694984  30.4707279  13.1711140  83.6740799  20.3378506  71.9900131
  83.0165939  20.0553112  72.6257095  83.3270874  21.1558475  71.6340485
  85.9475479  58.8109703  36.2837410  86.1746902  59.7310333  36.1491089
  85.1931381  58.6645317  35.7130852  18.0032711  55.1097069  14.9625702
  18.6400089  55.0150452  15.6709728  17.6745949  54.2227592  14.8158464
  52.9807587  11.9888716  55.2629204  52.1917953  12.3194962  54.8334389
  53.1909256  11.1833277  54.7905235  51.3097420  62.9202271  69.8134155
  50.9418602  62.8636360  70.6952820  51.1168594  62.0699310  69.4184113
  24.9542370  62.2029800  46.5958252  25.7011604  62.5417442  46.1022873
  24.7337437  61.3791504  46.1611786  77.5532455  13.3036289  64.4343262
  77.6856689  13.0728846  65.3538055  77.1119080  12.5424004  64.0575180
  62.6086578  38.3767395  44.1228371  62.0410194  38.1397209  44.8562126
  62.7393112  39.3203621  44.2163200  55.5420227  57.6529427  25.9889984
  56.2662010  57.2590027  26.4754200  55.2312279  58.3606873  26.5535641
  37.7826920  11.5957241  74.4196167  38.2372131  11.0053024  73.8187485
  38.4751244  11.9480124  74.9787827   3.1896276  61.9604721  31.7745514
   3.9815609  61.7634506  32.2748070   3.4548204  61.8668900  30.8595924
  59.9933205  47.9337540  82.2891617  60.2623596  48.3614845  83.1021118
  59.6045456  47.1058502  82.5714035  45.6831093   5.5365338  85.3636551
  46.1146431   6.3558969  85.6058426  46.3591194   4.8679671  85.4743805
  16.0814533  48.7250214  15.2025681  15.8337393  49.5533867  15.6132765
  15.3939981  48.1127129  15.4647064  83.7660904  57.8166924  21.2038269
  83.1636353  58.5485649  21.0709877  84.6240158  58.1658325  20.9623966
   4.6247005   1.3905072  27.1210918   4.3871922   1.3075813  26.1975403
   5.2605958   2.1056640  27.1415825  11.1027308  42.6591187  81.8273239
  10.5799837  43.4601440  81.8638000  11.4617386  42.6476021  80.9400711
  63.8414154  62.9639740  73.1235580  63.6371498  63.6521263  73.7567673
  63.7915916  62.1519508  73.6279068  84.0154877  16.7857895  26.8196831
  84.3581238  16.9530773  27.6976604  83.9258194  15.8338499  26.7749329
  21.5460968  66.1142044  22.2817326  20.6090984  66.3087692  22.3019238
  21.6743431  65.6386795  21.4609642  61.9176331  69.5771408  50.5273056
  62.0918617  69.1061478  49.7124214  61.6692619  70.4578705  50.2464867
   8.8406153   8.5387764   7.4452505   9.5660915   8.4120979   6.8338022
   8.5810146   7.6521921   7.6958647  41.8003616  56.4938202  65.9824829
  41.9752502  55.5689774  65.8083878  42.3977013  56.7204971  66.6952515
  40.2575798  11.5538740  79.4173584  40.6378822  12.1072578  78.7351761
  39.7274628  10.9155664  78.9401016  81.3001480  26.1960850  33.7347565
  81.6876526  26.8508224  33.1539001  81.9260330  25.4718742  33.7306709
  27.1136761  63.7113914  79.6435547  26.4681454  63.0084534  79.5700760
  26.6847878  64.4723206  79.2520523  25.9767952  58.3783684  49.0124359
  26.1964092  57.4876251  48.7393494  26.5911961  58.9341965  48.5330620
  48.0541573  49.2265015  42.9581413  47.3384018  48.6994705  43.3133430
  48.8082695  48.6369705  42.9575768  28.7730122   5.7299056  15.2676754
  28.7767277   4.8038888  15.5099783  29.6736126   5.9106479  14.9984455
   9.9855452  49.5483437  64.3766174   9.7333040  48.6446304  64.1871109
   9.6977024  49.6933670  65.2779236  45.9968185  35.4251442  14.9060850
  46.5603790  34.6703377  14.7360935  46.4913902  35.9578896  15.5288305
   6.3643231  49.8228569  56.0464859   6.3836665  50.4798508  56.7423439
   7.1074119  50.0458412  55.4858360  44.4266357  17.2043056  86.6794205
  44.4725380  16.7426891  85.8421478  44.0694504  18.0646572  86.4593201
  45.7924652  67.2515640  14.2785320  46.2317429  67.6228256  13.5133982
  45.4900055  68.0127487  14.7738638  63.2738953  26.8921032  65.2984848
  62.7308846  26.1520996  65.0268860  63.5592308  27.2937393  64.4778137
  74.5034561  67.0675430  33.0638313  75.3145294  66.9354706  32.5729561
  73.8199844  66.7079544  32.4983253  63.3653107  51.5138588  51.5908165
  62.6833267  52.1799240  51.5042648  62.9158630  50.6868515  51.4167862
  72.6591263  30.7164307  57.8869133  73.4844131  30.6803417  58.3704796
  72.1054230  31.3035622  58.4016190  54.8117142   3.0721521  56.2738571
  54.4557877   2.3447919  55.7634735  55.7609825   2.9798689  56.1925735
   3.0031426  70.7085037  79.3893967   2.2738178  71.2216949  79.0416183
   2.7936974  70.5921402  80.3161240  20.3561649  38.9189835  74.1824570
  20.2499294  39.8057480  73.8380814  20.5393486  38.3827896  73.4109802
  49.4170761  49.7013397  79.5315018  49.9771156  49.4976540  80.2805710
  49.5346031  48.9609985  78.9362640  33.6426468  59.9332657  51.1643143
  34.5944901  59.9012451  51.2602234  33.5011330  60.3687363  50.3237381
  81.2788086  21.1309452  64.6009903  81.8955154  21.5852585  64.0269623
  81.6000595  21.3074646  65.4852219  55.5082245  23.0392952  88.6752930
  54.6311264  22.7993050  88.3764114  56.0436935  23.0255566  87.8820038
  24.8642483  56.5028343  31.3245544  24.8040562  55.9927979  32.1323128
  24.9847050  57.4054184  31.6196156  70.6390686  51.8654594  49.6409569
  70.1835327  51.9587708  48.8042870  69.9467010  51.9281807  50.2989311
  36.0501213  60.2812920  77.0252075  36.8075905  59.9054070  77.4737396
  36.4254990  60.7903671  76.3067627  25.2986317  62.3437996  11.5346861
  25.3114929  63.2734642  11.3071136  25.9213772  61.9405289  10.9298782
  34.5421143  45.4269981  77.5941849  34.6240654  45.0677681  78.4776230
  34.6300430  44.6678467  77.0178299   5.4692774  37.9900436  81.8017044
   6.1646128  37.4024925  81.5058517   5.2194204  38.4792557  81.0178146
  47.3259659  48.4405594  65.2530212  47.4752388  49.2232056  65.7835083
  48.1553001  48.2988434  64.7965698  39.4229164  65.4047699  14.6050701
  39.0511436  64.5923767  14.9486208  39.3715134  65.3083572  13.6541262
  64.9670181  63.1294594  65.2965775  64.5724945  62.4340858  64.7702255
  65.3803024  62.6709366  66.0281372  24.1285095  18.5057907   4.1739602
  24.1492596  17.8441029   4.8653145  24.9094772  18.3288345   3.6495473
  76.6425552  60.6394920  49.6256866  75.9976501  61.3411674  49.7149773
  76.1303864  59.8335762  49.6921196  56.9002724  47.0919685   0.5857006
  57.8341179  47.2527199   0.7210668  56.4647560  47.8130035   1.0403104
  50.3431206  12.8661051  34.4147644  50.6252708  12.6463251  33.5268898
  49.4207077  12.6119318  34.4427681  32.5898438  14.8265314  10.2616673
  31.7736816  14.8784790  10.7590714  33.2645149  15.1113834  10.8780355
  77.1836319  67.9757156  86.9512634  77.3999634  68.7665329  86.4572525
  76.3228836  67.7160568  86.6227417   1.6363367  54.1809196  34.3024788
   1.0508128  54.9371338  34.2633057   1.2605494  53.6220169  34.9826584
  66.5391541  65.2597733  83.5726166  67.3251419  65.4026489  84.0999146
  66.8713531  65.0110168  82.7100601  55.6678734  15.7244625  59.8896141
  56.0272446  15.0976820  59.2617340  55.0579224  16.2544975  59.3765335
  50.0005302  15.8189087  87.6231537  50.7868958  16.3542137  87.7295227
  49.9065056  15.3625956  88.4593124  13.9243536  29.5197601   1.4440013
  14.6059237  29.4517269   2.1126313  14.0948582  28.7865906   0.8527150
  12.8159075  47.3626022  39.0071373  13.3277626  46.8829575  39.6584282
  12.0021124  46.8648758  38.9281464  71.4867249   1.6652122  26.5518627
  71.3522797   1.0065346  25.8704681  71.3385849   1.1948338  27.3722477
  38.5239601  63.5650826  65.0343399  38.5774956  63.3654976  64.0997086
  38.8438263  62.7734299  65.4670105  46.2304077  15.8945704  67.3007507
  45.9924278  16.7349644  66.9091721  46.3107033  16.0804214  68.2362976
  17.0328102  28.7699242  71.4625473  17.0164185  28.3903408  72.3411179
  17.2201843  28.0297203  70.8852921  48.5170403  22.4923916  65.4659576
  48.5674591  21.9859676  64.6552582  48.7902184  21.8795166  66.1485901
  66.1838760  49.5917015  15.5752048  65.9201813  48.9961205  14.8737888
  65.3708496  50.0187721  15.8450785  24.0067940  24.8714676  85.5588531
  24.2530899  25.4117908  86.3095932  24.4812565  25.2554111  84.8214874
  73.4804459   8.7969418  56.8281250  73.6788254   9.5359221  57.4032631
  72.7907867   9.1221867  56.2494850  39.1111412  33.9801178  11.9510708
  38.4158745  34.3052406  11.3791151  39.2649689  33.0829697  11.6549397
  43.1287956  60.4032288  58.3960609  43.3520432  60.9676247  59.1362267
  43.4169235  59.5308304  58.6646423   5.7082896  11.2058954  19.0612545
   5.7493238  10.4240971  19.6120186   5.7548757  10.8707848  18.1658421
   0.5892303   4.3948936  26.2339535  -0.3526153   4.2546687  26.3313999
   0.8584797   3.7600470  25.5700970  46.5327072  40.5883789  11.9202404
  46.7315216  41.3548164  12.4580832  45.6411324  40.7404327  11.6068678
  60.9306488  50.7133255   8.9975920  60.1840248  51.0531082   8.5043068
  60.9152870  49.7700157   8.8358479  47.4134674  39.6923141  36.2061920
  47.4633904  39.8416939  35.2620392  46.4759483  39.6335526  36.3901443
   9.8856459  58.4894943  87.4981689   9.5613146  58.1576614  88.3353806
   9.0977745  58.7580833  87.0255661  28.5887680  12.1392403  68.6905594
  28.9673424  13.0182972  68.6774750  27.6429119  12.2859097  68.6992188
  69.8015366  24.5949650  28.8273239  70.4508972  24.1340961  29.3585129
  68.9587479  24.2697945  29.1438828  62.4337540  12.4053793  28.4909134
  61.5003510  12.4112997  28.7029362  62.4635506  12.4941587  27.5383053
  68.2846527  68.2835388  85.0938644  68.3393021  68.6981354  84.2328415
  68.3049698  67.3445282  84.9092712  72.4575500  20.6824455  79.5176010
  71.6619034  21.1454182  79.7799683  72.9171906  20.5113449  80.3395996
  42.1169052  38.8201828  67.1276169  42.2877388  37.9806213  67.5544434
  41.5606155  39.2942810  67.7456818  15.5301619  13.8844681  12.0439873
  16.3611698  13.7724695  12.5056314  15.7361002  14.4759979  11.3201685
  61.3801117  29.1337643  25.4560757  60.7804909  28.4884605  25.8306046
  62.1783295  28.6393375  25.2700081  40.3507423  55.1835556  87.1937408
  40.2052231  55.7143784  87.9768677  39.7076225  55.5064888  86.5625916
  53.3705139  38.8470154  88.3144684  53.5247955  38.1493340  87.6775513
  54.1251068  38.8061485  88.9019699  34.1576691  49.9534836  82.2851791
  33.5432587  49.4305000  81.7701797  33.7229958  50.7999077  82.3893738
   3.8121414   9.4653540  85.9422989   3.5407081   9.8403130  85.1044693
   3.0080760   9.1028643  86.3142014  75.9144058  65.7406082  26.4078770
  75.0675888  65.5889130  25.9882050  76.2377777  66.5486984  26.0095634
  53.2286339  55.1799088   7.7409177  52.9372482  54.8924522   8.6061888
  53.6677895  56.0151596   7.9013324  44.3726540  29.6918831   0.8450444
  45.1991768  29.2228909   0.7304094  43.6997604  29.0509186   0.6156805
  82.5975952  19.1982536  77.8909378  83.1824799  19.9434128  78.0283508
  81.8761673  19.3439884  78.5029373  83.9822693  61.2876053  77.7657547
  84.0526047  60.7925987  76.9495087  84.8888702  61.4387894  78.0330582
  83.3097687  10.4840527  42.4174385  82.6018066   9.8683167  42.6068840
  83.6664886  10.1885157  41.5797997  63.1228638  40.6023521  20.9518127
  63.1023560  39.6866264  21.2297611  63.6014175  40.5904007  20.1229134
  80.1678162  23.2077866  36.5276871  80.1799469  24.0954437  36.8856659
  79.9504852  23.3254147  35.6029358  47.3156204  10.8577118  27.0381985
  47.6134682  11.1328764  27.9052639  47.6302795   9.9578991  26.9512558
  71.3961411   2.4100714  43.4953003  71.8964157   2.3247895  42.6837044
  72.0392532   2.6956904  44.1441917  80.3158569  10.6535416  41.4347305
  79.3641510  10.7501097  41.4006424  80.6055908  11.3449068  42.0299644
  71.2647324  27.2120438  19.4950180  70.4759979  27.6855221  19.2305508
  71.8665771  27.8953133  19.7902393  51.8620186  64.0490341  84.7394714
  52.4576454  63.3041649  84.8209229  52.4334602  64.8165283  84.7647324
  27.0402927   0.0835142  75.4846497  26.2774029   0.5755971  75.1811981
  27.5476398   0.7170647  75.9920425  82.7472687  41.0096474  62.9665794
  81.8704147  40.9786530  62.5839462  83.2851028  40.4822884  62.3759384
  61.0993652  12.6778803  80.1653671  60.1661606  12.4737902  80.2262497
  61.5183487  11.8344021  79.9944000   7.7594666  60.6059532   4.6176338
   8.0859480  60.5960808   3.7178872   8.0914869  59.7945366   5.0018196
   0.5870424  39.2447395  44.3630714   1.4755660  39.4601784  44.6465225
   0.0928327  40.0549736  44.4876175  56.3455086  38.9946671  59.8883858
  55.6103439  38.4640503  59.5814514  56.7548981  38.4641457  60.5718918
  30.8093929   8.1383638  62.6380653  30.0804958   7.8429337  63.1836472
  31.5802135   8.0469494  63.1981659  76.6129761   2.6207485  57.7009163
  76.1924438   1.9062477  57.2225113  76.2311096   3.4156263  57.3286552
  37.8008919  62.0226135  40.4509468  38.2331886  62.4640045  41.1820602
  38.4741364  61.4483566  40.0859795  83.9319229   5.8034987  60.1152725
  83.4301376   4.9995246  60.2496948  83.9440918   5.9222751  59.1655502
  63.0538788  46.4403572  66.4586334  63.2801514  47.2901764  66.8365860
  62.5900459  46.6541290  65.6490707  15.9476318  29.5524521   7.1091928
  16.8310375  29.7960548   6.8326397  15.4181261  29.6306343   6.3156295
  44.8004951  34.4726067   8.9663448  45.6917152  34.2405167   9.2272873
  44.5688705  35.2083092   9.5331993  47.2948647   2.4880569  18.1507072
  47.7380142   3.1952331  17.6819324  47.8982391   1.7472501  18.0926132
   9.0855808   4.9717455  65.6750565   8.2420387   5.2654862  66.0191269
   9.5894661   5.7769289  65.5566864  11.1704006  67.8901901  77.8655853
  10.8095608  67.9498444  76.9810181  11.4731407  68.7769623  78.0610733
  51.6794434  70.4271469  50.0227585  51.6215439  70.2505875  50.9617500
  51.5123863  71.3664322  49.9449120  72.5916214  17.6656666  44.9466362
  72.8881149  16.7555447  44.9447937  72.0339432  17.7374573  44.1719971
  44.7859230  37.4085312  24.8513432  43.8364258  37.5244942  24.8160744
  45.1361313  38.2993660  24.8525181  77.7417450   1.6437516  80.8293533
  78.5896454   1.3511164  81.1635132  77.4251785   0.9093423  80.3033676
  60.5780258  41.8858681   4.4401269  60.5043030  41.7798500   5.3885765
  61.5068550  41.7470627   4.2550883  84.5686340   2.7431884   9.3476992
  83.7723694   2.3760111   9.7315903  85.2727661   2.1843009   9.6764488
   4.0090981  62.6657944  19.5020256   3.4971581  63.4578667  19.6656475
   4.6539178  62.6470337  20.2091942  64.9638519  22.2305183  26.1517735
  64.5428467  21.9507427  25.3389339  65.3803711  21.4381790  26.4908085
  15.1699629  47.8766823  45.8784294  14.3037567  48.1377068  46.1911316
  15.5006685  47.2855644  46.5547791   0.3661592  29.0776501  40.6524353
   0.8394903  29.2934704  41.4559326   1.0434234  28.7669468  40.0515938
  72.0981674   6.1763678  57.0966530  71.1426086   6.2091527  57.1420670
  72.3573761   7.0668073  56.8596725  84.5159454  67.6294327  16.2235432
  84.6513977  68.5301056  15.9291382  83.5860062  67.4640045  16.0683289
  85.9428253  66.5723038  78.0008163  86.3791504  66.1281357  77.2737885
  86.1196823  66.0180359  78.7609100  84.9715500  67.5475388  50.9406242
  84.8304062  68.4844894  50.8048820  85.6227493  67.5023727  51.6407166
  57.0248909  13.0031338  67.9372864  57.9612198  12.8217831  67.8558502
  56.8645515  13.7167444  67.3198013  28.2502308  44.8763199  18.2207298
  28.0881863  45.6402664  18.7742290  27.8159752  44.1546211  18.6754894
   4.6469898  63.6025925  76.3815002   4.0463691  62.9025002  76.6371536
   4.1129689  64.3966446  76.4046021  57.3722954  64.4763794  63.0137672
  56.9339104  64.9243240  63.7372284  57.7646103  63.7008209  63.4148026
   1.8946316  33.3863068   8.3601303   1.0060458  33.3031845   8.7061615
   1.7800128  33.7917480   7.5006466  51.3652382  64.4040451  46.0170555
  52.1533089  64.0247726  46.4060631  51.5989304  64.5546341  45.1011162
  43.0361938   1.0123817  26.7939510  42.5470963   1.8218039  26.9417686
  43.0157852   0.5625543  27.6386223  30.1496181  34.1199570  79.8758850
  30.1350460  34.3670273  80.8005295  30.1101151  33.1636009  79.8828583
  18.5991459  21.2854385  76.5615005  19.2781372  20.8914585  77.1092072
  18.9155712  22.1720943  76.3884430  51.0452385  70.9341888  71.2691345
  50.2949257  70.6968918  71.8140717  50.9658432  71.8807831  71.1513062
  65.8878479  68.5375366  49.1846390  66.5171356  67.8163605  49.1959839
  66.3617020  69.2749710  49.5691986  15.6366587  55.0123444  64.9376297
  14.8790398  55.4089546  65.3676834  15.3284750  54.8012009  64.0563354
  23.1014977  11.3891268  58.1159554  23.6898079  10.9514036  57.5007133
  23.5968437  11.4287500  58.9340591  71.6910858  19.3414726  67.0847015
  71.5409241  18.4837837  67.4822617  72.2637711  19.7951603  67.7031097
  55.6729317  38.2880821  84.4611130  55.1412010  37.5856285  84.0868835
  56.4756966  37.8534241  84.7489929  45.5828629  66.0531464   0.6988087
  45.9586525  65.9990921  -0.1798792  46.3406448  66.0563431   1.2836059
  46.5616264  58.7074318  64.9547806  47.1734695  59.1232605  64.3473511
  45.8152008  58.4582863  64.4097977  44.1458435  38.2642517  75.5598602
  43.3721771  38.2855110  76.1230850  43.8253136  37.9218445  74.7254410
  53.4192238  70.6887131  38.3759537  53.7126846  70.3748245  39.2312851
  54.2166367  70.7251968  37.8477173  14.6044598  55.3101768  40.3033829
  14.7090731  55.1490974  41.2411156  15.4991884  55.3445625  39.9649925
  63.1827316  43.2498436  35.8671265  62.8116798  42.3691483  35.8130035
  64.1295853  43.1131973  35.8351326  13.3239384  13.5757360  72.6989365
  13.2827311  13.1876888  73.5729828  12.4250059  13.8486290  72.5154114
  73.3040085  54.8997917  68.6792831  74.0452194  54.3407478  68.9123459
  73.5147095  55.7500839  69.0650787  83.4756851   4.0026131  12.4938650
  83.7775345   4.9104614  12.4633560  82.6774673   3.9977267  11.9656096
  47.1068039   8.6218128  66.3018570  47.6842995   8.4673519  65.5542831
  47.3800392   7.9757009  66.9530945  83.7992249  66.3879547  48.4941444
  84.0605545  65.4735107  48.3858109  84.2101746  66.6588440  49.3151054
  66.4695663  15.4882336  36.5752525  67.3643036  15.4445410  36.9125481
  66.2345886  16.4139652  36.6387863  60.7929001  10.2873821  83.2301865
  61.5054626  10.4886103  82.6235657  60.4239006   9.4671650  82.9025955
  67.6635132  45.1573601  74.4687881  67.9558792  46.0607758  74.3479843
  68.4354019  44.6272430  74.2703323  42.1574440  70.0076447  33.3806725
  42.1579819  69.0629501  33.5349045  42.8395042  70.3454742  33.9611015
  46.6118546  43.0407448  48.5796051  45.8609848  43.5908279  48.3563614
  47.3388367  43.4140511  48.0812416  81.0962753   2.4501956   5.6211267
  82.0062561   2.5728331   5.8915482  80.7807083   3.3343518   5.4342680
  51.3351898  21.1639442  74.0229950  51.5687218  21.2456608  74.9476624
  51.0635414  20.2514210  73.9243011  56.0496635  53.6637917  33.8319855
  56.9584503  53.3692703  33.7720222  55.6995506  53.2062531  34.5963898
  56.9068527  11.5090971  64.2933731  56.0389404  11.6166553  63.9042854
  57.3590775  12.3304882  64.1009140  39.6508293  69.9460297  12.7067089
  40.3477898  70.5340652  12.9977236  39.1349144  69.7774429  13.4951506
  81.4323502  57.2850990   1.9213126  81.9774323  56.5156136   1.7569681
  81.9905090  57.8686523   2.4352713  48.2409592  10.8877831   3.3072374
  47.5853043  10.9018593   2.6099942  48.0670509  10.0757141   3.7831903
  21.9414444   0.9822693  76.1082840  21.5042801   1.6593976  75.5919342
  21.2280331   0.5124944  76.5402374  74.2434235  18.2204609   8.4628677
  74.9585266  18.4939003   7.8883338  73.6383438  18.9621563   8.4617844
   1.9648348  20.7823620  61.8622055   1.3014933  21.0139427  61.2121429
   2.5651090  21.5279293  61.8679466  72.0696945  70.0495987  10.8396502
  72.4126816  70.8705826  11.1926117  71.5178070  70.3169022  10.1046648
  49.5558205   7.3551402  38.5447617  50.0539513   6.9460325  39.2523842
  49.5303116   6.6917534  37.8551979  65.2793121  36.9326859  44.1692581
  65.7925797  37.3825340  44.8403969  64.3758698  36.9897919  44.4803123
  52.3304672  10.6633530  88.8401031  51.7594070   9.9035778  88.7266769
  51.8042412  11.2856712  89.3421402  78.0491486   4.6867290  46.2497177
  77.5756989   3.8809714  46.0427704  78.0167084   5.1979904  45.4411469
  25.6155052  53.8730965  81.1465530  25.9418793  53.9659309  82.0415878
  26.2892418  54.2808304  80.6024399  29.8740387   9.5137482  35.5729065
  30.8248901   9.5595226  35.4728088  29.7321472   9.5226278  36.5194893
  78.5360947   2.4273465  39.8840370  78.1031418   2.4920278  39.0328064
  79.4059830   2.0812738  39.6846275  82.3692780   9.5048838  71.9444580
  81.4603424   9.8047571  71.9325104  82.3266754   8.6262836  72.3219223
  52.8949623  14.0057096  57.4344826  52.9515190  13.3344364  56.7544632
  52.3064575  14.6668339  57.0700531  83.7610626  54.4348946   3.7697797
  84.5318222  54.1797333   4.2767820  83.3002396  53.6124229   3.6042211
  74.4713821  12.4149380  74.7399979  75.0816040  12.9914236  75.1999207
  74.1694794  11.8019981  75.4103622  38.6497612  55.8099632  73.2645035
  37.9446259  56.4340782  73.4362335  39.3753548  56.3490486  72.9496460
  34.7801819  12.7875414  12.1300993  34.7578964  13.6239357  12.5950499
  34.0667953  12.8476334  11.4947233  29.5496864  47.3588257  45.2564735
  28.7564430  47.6251450  45.7213097  30.2391071  47.9130325  45.6222420
  65.3829193  53.8510399  42.9154701  64.6036072  54.3955307  42.8039474
  65.2022247  53.0655899  42.3990936   4.1216607  63.4756508  66.9709549
   4.2719660  63.6670761  66.0452118   4.9300699  63.0542488  67.2627182
  30.5048885  48.0357475  67.9396210  30.1809101  47.9665337  68.8376617
  30.5211697  47.1334038  67.6206589  21.5014267   4.9368262  76.2450638
  20.8010960   4.2851815  76.2786636  22.1989594   4.5668988  76.7862015
  80.7267990  36.6713638  45.9543953  81.3126221  35.9145966  45.9356308
  80.0766373  36.4544449  46.6225777   9.3001194  31.5951672  71.8809814
  10.0262308  31.8233776  71.3005447   9.6634836  31.6771126  72.7627335
  14.3077250  35.9183121   2.3482821  13.7704411  35.1573868   2.5686271
  15.1851444  35.5606956   2.2123404   3.4427056  49.2883835  32.3082352
   4.0457540  49.5132065  31.5997009   2.5738826  49.3463249  31.9107151
  83.2822571  56.0431252   8.1042185  83.7007141  56.2201920   8.9466963
  83.1722336  56.9062653   7.7053294  14.4038725  51.8123131   9.9830656
  13.5789061  52.2628632   9.8023195  14.9204206  52.4479828  10.4783773
  18.1304970  12.6535244  60.0165100  18.2177944  11.7087135  60.1427765
  17.2704563  12.8652210  60.3794785  41.4024658  57.0055008  12.5178833
  41.2911682  57.1989899  13.4486923  40.5490341  56.6741676  12.2384090
   2.8329151  54.8644066  52.7873535   3.5927198  55.2719994  53.2030411
   2.7368062  54.0240631  53.2354813   6.3246326  35.8584862   7.4130654
   5.8686361  36.6855545   7.2573185   7.2534218  36.0821075   7.3532739
  82.8541489   8.7899761  58.5840225  82.2154236   8.2162724  58.1607819
  83.1630478   8.2888565  59.3388023  36.7980270  69.6400223  82.0723572
  37.5901146  70.1666412  82.1795578  36.7916603  69.4030304  81.1449814
   1.2642760  56.2330742  42.2470474   0.4182235  56.6794548  42.2813110
   1.4929854  56.0825653  43.1642570  66.2416534  55.8836708   3.5558686
  66.3650513  56.6257210   2.9639509  66.7875977  56.0892715   4.3147521
  79.2430267  35.3588371  47.9292107  78.3134232  35.5162201  47.7639923
  79.3450699  34.4112740  47.8400764  67.4619904  59.1421013  79.4545746
  67.9935150  59.1237640  80.2504272  66.9723206  58.3198738  79.4745941
  63.2443161  53.0475388  33.4699783  63.0760155  53.9840126  33.5744820
  62.9022827  52.8382530  32.6008148  68.3123932  44.4671173  45.1731262
  69.2652664  44.3802910  45.1461220  68.0819473  44.2945709  46.0860100
   0.4357797  17.8342533  61.3461647   1.0854808  18.5220909  61.4910736
  -0.2962918  18.2818069  60.9219055  86.4865417  16.1175632  42.1582985
  85.9672241  16.0963383  41.3545074  87.2856903  16.5848274  41.9148636
  52.7651176  10.5961714  18.9570351  52.4077225  10.2942972  19.7921238
  52.7850151   9.8125219  18.4077358   6.7372751  13.0872650  67.9983444
   7.2791510  12.7646999  67.2782364   5.8889446  13.2723255  67.5954590
  36.9277458  14.0482540  65.2366104  36.1593056  14.2261753  64.6943207
  37.0255470  14.8316813  65.7778168  25.2247314  48.5880890  30.2887497
  25.2636433  47.9097443  30.9629612  24.5837116  49.2175636  30.6190357
  23.5446739  59.8464432  24.5924759  23.3467445  60.3383026  25.3894253
  22.7191753  59.4195404  24.3632584  31.9258060   1.6879746   9.0759811
  31.9058475   1.0343869   8.3769417  32.7331963   1.5015870   9.5551615
  56.1931343   0.1014065   0.0653911  56.8992081   0.1473777   0.7100472
  55.4147606  -0.1170683   0.5778682  85.9473343  52.3632088   2.0890155
  85.6074295  52.6157570   2.9474533  86.5731201  51.6633530   2.2756281
  84.0093002  41.7553749  11.9964819  84.8052444  41.7548866  11.4647856
  83.6975784  40.8510208  11.9618473  36.5788841  52.8600426   9.7694302
  37.3712349  52.3824387   9.5238628  36.8971901  53.7056427  10.0854645
  54.2894936   9.9518356  30.8845577  53.5460930   9.9050722  31.4857235
  54.4042702  10.8874025  30.7179050  54.0388985   4.2564487  65.4513092
  54.1239357   3.4392736  64.9601593  53.6718445   3.9918387  66.2948074
  79.3470383  20.6454086   0.8761241  79.3464279  20.7564316  -0.0746153
  80.0654221  20.0359592   1.0456306  47.2270622  48.3216972  22.3409061
  47.6261902  49.1527443  22.5983734  47.4516754  47.7184677  23.0493526
  36.5269089  57.0722198  42.3289948  36.5234299  56.1150436  42.3346748
  36.9839211  57.3148575  43.1342888   1.6563337  68.4765244  17.4327335
   1.7309583  67.6482544  16.9587841   2.4696608  68.5401001  17.9334221
  70.4030151  53.2860832  26.6222458  71.1994858  53.1037025  27.1208477
  70.6313477  53.0691643  25.7183437  77.4196167   6.1911049   4.5811687
  76.5165253   6.3206987   4.2915735  77.3803787   6.2771544   5.5336852
  21.6363087  70.5851822  71.4175339  21.8131847  71.5175247  71.5428085
  21.3091202  70.5219193  70.5202179  24.7618484  48.8144875  27.4019127
  24.5343456  48.6963005  28.3241425  24.6095238  47.9565163  27.0057907
  75.3918610  54.5822296  78.1146317  74.8647995  53.7853088  78.1725311
  76.2925644  54.2683716  78.0342712   7.1432204  31.7157688  12.3605747
   7.2716684  31.0384750  11.6964922   6.8065462  32.4679108  11.8735800
  48.6893005  17.4214191  74.7421875  49.1630287  17.1662388  75.5338287
  49.1727142  18.1763763  74.4066544  85.7481537  57.7432899  85.7978134
  86.6224670  58.0649261  85.5779037  85.3893433  57.4365387  84.9651108
   8.3218212  40.1107597  87.2267609   8.8371382  40.5113792  87.9268951
   7.8424206  39.4028664  87.6572189  78.1766739  11.8665323  32.3535233
  78.1958389  12.3136969  33.1996346  78.9444046  11.2950068  32.3672256
   8.5740805  65.1403885  47.6482849   8.1395817  64.7781448  46.8761330
   9.1322308  65.8376465  47.3040047  10.8717241  53.4839897  82.0029831
  10.8802891  54.4303284  81.8594666   9.9534330  53.2343750  81.8997040
   0.3622369  63.6324883  65.1833115  -0.0585520  63.0303917  65.7970276
   1.2283204  63.2539444  65.0321960   7.1736774  50.7512016  32.0568314
   7.1210737  49.8398056  31.7690353   7.3012753  50.6963234  33.0038986
  68.1954269  37.1207962  76.8168793  69.0624237  37.0231819  77.2105942
  67.6734543  37.5549164  77.4916458  56.1335030  56.8675461  38.7963219
  55.3430290  57.2240715  39.2016220  56.8121796  57.5159492  38.9839401
  15.8669462  71.7350845  59.5913353  16.4860210  71.0184937  59.7308884
  15.4529409  71.8635483  60.4447594   3.8112941  12.6057682  62.0397911
   3.0598853  12.1401014  61.6726799   4.4945707  11.9392376  62.1112213
  78.3236771  70.3665924   9.9798374  77.8663788  69.6008148  10.3272610
  78.7182999  70.0599365   9.1634617   4.1390309  19.2896099  59.9087906
   4.2497783  19.6156120  59.0156555   4.1745906  20.0740204  60.4562073
  62.3847275  16.5103016  86.5231247  61.7898712  16.2222042  85.8307571
  63.0272980  17.0592918  86.0737457  31.6162930  52.1473732  58.5139198
  30.6657162  52.1542816  58.6261292  31.9176121  52.9301071  58.9751892
  13.1357422   3.3647363  17.8775406  12.8603754   4.2796302  17.8194485
  12.4762516   2.8839009  17.3774376  33.5549355  49.3032799  59.6104660
  33.3628273  50.0504570  60.1770859  32.7373581  48.8061829  59.5841637
  65.7515030  69.9393387  42.1925430  66.4878540  70.0883789  41.5994034
  65.9946823  70.3986359  42.9963684   4.9147425  21.4746552  76.2037811
   5.1014538  22.0628967  75.4721069   5.0229425  22.0198631  76.9830551
  61.9677696  48.5441704  29.1727676  62.4682198  48.3346519  29.9613647
  62.1791725  49.4599037  28.9911880  42.3985786   2.0266380  14.5576458
  42.5296364   2.9739087  14.5992832  41.4490738   1.9140240  14.6022444
  57.3791618  15.4554958  83.5142975  57.6319618  16.2144279  84.0399857
  56.4231949  15.4931221  83.4835815  62.4585381  13.1676226  35.9396706
  63.1614761  12.6460457  35.5522919  62.9106674  13.8748999  36.3996391
  73.0314713  27.4692211  42.8948402  72.0860138  27.3701916  42.7828560
  73.3264465  26.6140995  43.2078705  19.6535988  45.4594269  88.7068558
  20.3524017  45.1629257  88.1237640  19.2204056  44.6542931  88.9902878
   9.9571991  25.4105644  49.7240334  10.4006834  25.7893848  48.9650574
   9.6424093  26.1666241  50.2195244  13.7617073  28.4471130  77.0782852
  12.8732100  28.4342175  77.4341431  14.3214560  28.6099491  77.8374863
  42.7655640   8.6729956   3.3083122  41.8496208   8.7885599   3.0554838
  43.0457573   9.5415430   3.5970142  44.1256943  65.4900894  10.3407850
  44.5046577  65.4685135  11.2195072  43.5289116  66.2383270  10.3556299
  24.9149647  59.5383186  12.4391966  25.5614624  58.9186935  12.1010580
  25.3701668  60.3803368  12.4445610  73.0982056  29.7916870  44.2196198
  73.0172195  29.0386124  43.6343422  74.0151749  29.7841816  44.4941063
  59.9605713  60.0788002  43.1980591  59.7599297  59.1511955  43.0734863
  59.5224457  60.3107567  44.0168877  76.8769531  21.0630131  12.8671827
  75.9311981  20.9490585  12.7734146  77.0529480  21.9248409  12.4896765
  86.5770493  31.8170147  58.2157021  86.9119949  30.9203491  58.2216110
  85.7105865  31.7463913  57.8150940  64.4057236  46.2824936  15.9393797
  64.6834946  45.8657608  16.7551041  64.3316193  47.2114105  16.1581230
  38.3435516   3.2391882  43.2012520  38.9170723   3.8183935  43.7030792
  37.7870903   2.8236554  43.8599739  34.2283173  56.6893120  51.1226768
  33.8268356  57.5565796  51.0689354  35.0771942  56.7912598  50.6922684
  58.5728798  46.0546379  64.1944504  58.1146584  45.5321045  64.8526459
  58.6872902  45.4596367  63.4534264  33.5177116  62.7795677  73.1356354
  34.3318596  63.2266312  72.9042664  33.4269257  62.0911293  72.4768219
  57.2993088  22.1808624  21.9822140  57.0046120  21.8264008  21.1433201
  57.0113983  21.5365410  22.6288910  31.5845585  47.9827461  54.8198471
  31.8982983  48.6243973  55.4570923  32.3626976  47.4763184  54.5869026
  50.9532280  67.9161377  70.6636353  50.4361267  68.2089539  69.9132385
  50.3374710  67.4141769  71.1976013  70.5520325  46.9363708  23.6420040
  71.1589432  46.2586899  23.9397221  70.5830841  46.8828430  22.6868076
  68.1513901   5.2751293  29.7712822  68.6269302   4.5734696  29.3265724
  68.8270187   5.9116001  30.0050659  23.9152317   8.2982473  73.8834763
  24.1007442   8.5074177  74.7989349  24.1876221   9.0779810  73.3996887
  30.2001686  68.5819397  53.2999725  29.2933598  68.2975769  53.1856613
  30.2572231  69.4028015  52.8109322  33.7877426  64.7026596  19.9001160
  34.0739632  65.6155396  19.9311333  33.3733521  64.6105957  19.0421886
  66.8303299  51.5553398  88.1407928  67.3200836  50.9754868  87.5575714
  66.1157761  51.0123672  88.4736938  57.5308456   3.7854674   6.9139867
  57.9443359   3.0471470   6.4666142  57.9954605   3.8506346   7.7483239
   3.2048051  38.5636292  76.8855133   2.2973812  38.8046608  76.6991882
   3.3404019  38.8266449  77.7958298  45.1075935  45.9380684  33.7793579
  45.1994591  46.8824997  33.9052200  45.6586914  45.7427139  33.0214920
  83.2910004  66.4939499  21.0578270  82.7045212  65.8517990  21.4577160
  83.4635239  66.1480789  20.1821327  12.3342505  49.9485893  43.1970329
  11.7415314  49.2078476  43.0697021  12.2985868  50.4288254  42.3697891
  48.0073814  10.2489395   8.5068016  47.4006691  10.4723377   7.8009505
  47.8840103   9.3091450   8.6402063  82.0830688  41.7008362  28.6651287
  82.7640915  42.2387047  29.0690327  81.5410461  42.3241081  28.1814194
  24.6773491  71.3298645  79.6302567  23.8531761  70.8485947  79.7033920
  24.5098000  71.9911194  78.9587708  49.4264069  45.2629471  16.2539806
  49.4981117  44.4791641  15.7092113  50.2770996  45.3320961  16.6873074
  35.2022285  66.6220932  73.8302917  35.0906868  65.7857361  73.3782959
  35.0613937  67.2819366  73.1513214  55.7018013  29.7850227  60.6161995
  56.1556358  30.6094933  60.4415169  54.7766571  30.0261421  60.6631088
  70.6146011   4.4947648  63.2436180  71.1896591   5.2589726  63.2046013
  69.9484024   4.7290621  63.8897781  82.9502487  47.6467743  11.8134861
  82.9628448  47.8138351  10.8710613  83.6395950  46.9970207  11.9507885
  24.5616436  25.0900593  79.3590469  23.8182526  25.2303391  79.9454956
  24.3852882  25.6577148  78.6087875  58.3911438   2.1096344  60.9820671
  59.2248573   1.7035135  61.2191696  58.2651825   2.7972894  61.6359024
  19.5836372   3.3875916  59.9050522  20.1256485   2.7318349  60.3437309
  20.0802631   3.6235299  59.1215172  80.7449112  64.7595139  17.3545284
  80.6348724  64.2782516  18.1745949  79.9234848  64.6205292  16.8831787
  75.7550812  46.7734718   6.5327029  76.4628220  46.9109421   5.9030638
  75.7352142  47.5784531   7.0502338   7.1810050  50.7551537  10.0337334
   7.3759265  51.0328484   9.1386786   7.5820742  49.8892593  10.1085701
   0.7156282  63.8458252  61.5886230   0.4853266  64.7382126  61.8471527
   0.1838700  63.2873917  62.1557350  11.3493309  66.0718842   3.7505238
  11.1079702  65.1728363   3.9734387  11.2670050  66.5531235   4.5738449
  75.2480316  31.3343143  74.7113113  75.9512558  31.9162617  74.4231415
  75.3484344  31.2898846  75.6621933  53.9822731  65.5554123  52.8267899
  53.4012222  64.8073730  52.6887589  54.3262482  65.4314728  53.7114105
  36.5161400  55.9726982  82.5107880  36.1044502  55.4141617  83.1701660
  35.7849922  56.3147926  81.9963684  81.2334747  38.2132721  75.4951477
  81.1844711  38.3248024  76.4445648  81.2386169  39.1057167  75.1491089
  64.9322128  47.7913399  20.1236916  64.7998810  46.9083405  20.4687042
  65.6346207  48.1560593  20.6620560  66.3850479  14.9257698  52.3041153
  66.0575333  15.2554865  53.1409264  66.4341431  13.9772615  52.4230881
  11.3599176  33.8293190  64.0223312  11.0744839  33.1075325  64.5824966
  12.3001680  33.6887245  63.9110069  87.0853119  14.5560827  81.8501205
  86.2211838  14.2527866  82.1285477  87.0894928  14.4291382  80.9013901
   5.5739827   6.2243958  42.2168846   6.1932058   6.2597270  42.9459572
   4.9420872   5.5520782  42.4716988  67.4139938   1.6010175  28.4151154
  67.3626099   0.7402742  28.8307018  68.3412704   1.8340429  28.4607296
   0.4946254  43.0944138  78.1020660  -0.1528906  43.7765160  77.9240417
   0.0973760  42.5608292  78.7903366  58.4640770  36.8774223  64.4668808
  58.7981567  35.9824562  64.5273666  59.1779594  37.3729439  64.0655518
  58.8150139  68.9008789  14.2823410  58.4289742  68.3896408  13.5711155
  58.7766685  69.8064346  13.9745684  76.1706161   8.8136692  56.2770424
  76.2675247   9.7538424  56.1256638  75.2472153   8.7013445  56.5027580
  80.5031509  14.4012594  38.4399071  80.0723801  13.5721331  38.2320137
  80.7801590  14.7466393  37.5912552  49.4701080  34.2701340  66.2736969
  50.0610123  34.1430855  65.5314636  49.4923782  33.4362030  66.7430496
  41.8358841  44.7160034  19.1284466  42.4941521  44.2928925  18.5771809
  41.5104713  44.0153008  19.6935596  57.2503471  58.0656433  55.6090240
  57.6897659  58.9158096  55.5899582  57.1237297  57.8822975  56.5399284
  21.7581501   6.6358395  73.9411621  21.7184315   6.2963309  74.8352509
  22.5669098   7.1471591  73.9148331  25.1099529   0.4214251  52.4045448
  24.9511871  -0.1283480  51.6372261  24.6915283   1.2557148  52.1921425
  23.9371853  13.9694386   6.2322183  24.0922756  13.5405903   5.3906317
  23.4805965  13.3110781   6.7559733  60.1171303  61.3049355  19.5630341
  60.1325073  60.5701065  20.1762409  60.5858154  60.9838676  18.7926579
  31.6945038  70.0921478  10.4583626  31.3915348  69.6320343  11.2411366
  32.0521202  70.9164200  10.7884007  60.4102898   7.6054554  11.5665407
  59.9544716   7.3525462  10.7637329  60.2303848   6.8921552  12.1789703
   5.3206697  44.2965279  76.5501938   5.9481049  44.5706444  77.2190933
   4.5800571  43.9467010  77.0455170  14.9757347  28.5377598  79.4281158
  14.5545454  29.2149467  79.9574966  15.0980749  27.8042030  80.0307388
  35.0423622  59.1660423  56.5482101  34.6965027  59.8448448  55.9686928
  35.4049950  58.5073624  55.9558678  79.6615219  69.3977356  60.9777565
  78.8113861  69.6996994  60.6578789  80.2958527  69.7861862  60.3752899
  58.5895119  52.4025536   5.1187706  58.6921310  53.2123947   5.6186271
  57.8514137  51.9565926   5.5341730  43.8614769  46.5723686  76.5493698
  43.8324661  46.7411957  77.4911194  44.2695847  47.3546448  76.1782608
  54.4083748  71.1788712  69.1435776  53.9732971  70.3546600  68.9253464
  55.2403030  70.9139862  69.5359497  55.6221771  52.7115479  27.7423248
  54.6955032  52.7184525  27.5026188  55.6339417  52.9801216  28.6609993
  12.8607893   6.0941181  14.4256115  13.7951918   5.8874617  14.4051886
  12.8218060   6.9956889  14.7448015   5.7828007  24.3222523  12.1379242
   6.3525190  23.6130066  11.8402262   6.1166520  25.1007671  11.6921806
  14.5767984  10.1102829  62.7813072  15.1200600  10.0542927  63.5674133
  14.4295578   9.1994324  62.5265465  74.6969986  62.6711807  24.4336224
  74.1749115  62.7918701  25.2267723  74.0954437  62.8751602  23.7175579
  63.4296608   4.4439240  38.1693573  63.3759193   4.2249146  37.2391014
  62.5581970   4.2465534  38.5126190  23.8785019  66.0243378   0.2523916
  24.0932274  65.2056351   0.6994398  23.3212490  65.7587585  -0.4791583
   1.1322328  44.9597092  32.8370399   0.6553274  45.7482834  33.0957870
   0.5887752  44.2371674  33.1513939  56.4108620   8.1794710  74.5426254
  56.0088692   7.3161306  74.4463043  55.6723480   8.7743797  74.6726837
  69.5105667  54.7484360  39.6807976  69.3772583  53.8115158  39.8244476
  69.5360489  55.1244164  40.5606956   2.2357261  18.5888939  43.9052162
   2.4395311  19.2823353  43.2776527   3.0262766  18.0498543  43.9316444
  22.6418495  70.2022781  17.4759598  23.1507740  69.9122772  16.7189102
  21.7877331  69.7847824  17.3645496  30.1974907  29.9213753   3.0748138
  29.3316574  30.2690105   3.2886224  30.6258945  29.8071365   3.9231369
  74.7970734   6.7778664   5.2786765  74.2918930   7.2528157   4.6187887
  74.7954254   7.3547063   6.0425377   0.5595657  23.7390480  10.7756519
   0.3295433  23.0505943  10.1516695   1.0699751  23.2904835  11.4498215
  53.8412628  53.6303024  64.8313370  53.9508972  52.7527733  64.4650574
  53.4348526  53.4842262  65.6855774  42.4625893   3.5708077  11.5865183
  42.6882896   4.4721622  11.3566256  41.8451614   3.6563399  12.3129463
   8.0574770  10.1808605  49.1175766   8.0523930  10.9931870  49.6238670
   7.4861164  10.3604364  48.3708954  62.1864700  36.5253944  61.3125801
  62.5465164  37.2099953  61.8764229  61.8109016  36.9992104  60.5705032
  25.8552074  38.3917542  79.0121613  25.1893005  38.6776733  78.3868179
  25.4112759  37.7383804  79.5527725  75.2521362  12.0912342  27.6493988
  75.1398163  11.2855816  27.1448803  75.9353409  11.8817396  28.2862473
  34.6088181  69.5824051  83.4746323  35.4745979  69.4225693  83.0989838
  34.7853317  69.8609848  84.3732224  42.1645889  29.4585953  70.1194839
  42.6134644  29.1826992  70.9186249  42.0788536  28.6566868  69.6039047
  21.2610416  61.4840164  73.3644409  20.9692478  61.5092392  74.2757263
  21.8528233  62.2317924  73.2816467  56.9056664  13.1326866  23.2953281
  56.5644379  13.1628962  24.1891308  57.4152222  12.3231258  23.2607231
  64.0307617   3.5436754   7.9131813  64.1438065   4.0503736   7.1089988
  63.2476120   3.0162637   7.7558651  45.2783852   6.4933286   9.0501261
  46.1398697   6.9031525   9.1283550  45.2758446   6.1063762   8.1746302
  39.9937286  41.9489899  86.5838089  39.1245956  42.0252304  86.1900787
  40.5992317  42.1230202  85.8631744  42.3646507  65.2691269  50.1596069
  42.9367714  64.5667343  50.4687386  41.6713753  65.3204269  50.8176117
  40.6167984  19.1835308  87.8606186  40.1012383  19.2633648  88.6631546
  41.4009132  18.7031956  88.1264648  45.4632339  18.7559738  13.8907442
  46.2155380  19.2062550  13.5066624  44.8209648  19.4493008  14.0424662
  72.9213867  63.9499435  28.6149559  72.0259857  64.2604446  28.7494183
  72.8593445  63.3569832  27.8661003  40.7265053  15.0675373  65.9104767
  40.7342567  14.6254501  66.7594299  41.6308708  15.0099611  65.6021881
  49.0071716  51.1885414  48.0699692  49.4746857  50.6947594  48.7436447
  48.8360710  50.5484009  47.3791885  60.5095062   9.1497421   5.9654703
  60.4783363   8.2015924   6.0930386  59.6010323   9.4346714   6.0640874
  53.1113472  55.9558372  68.5338440  53.1728287  56.5585060  69.2749557
  53.7071648  56.3198433  67.8790588  82.3045731  45.3978348  83.8578644
  81.8073883  45.2866859  84.6682281  81.7552719  45.9639130  83.3155899
  19.4167061  46.9006195  19.0639820  20.2813511  46.6658630  19.4008942
  18.9036980  47.1084747  19.8449097  36.9372902  45.2901344   2.8252587
  37.5658340  45.8713760   2.3970997  36.3110657  45.0658569   2.1369443
  86.1281433  69.5209198  24.5405140  86.5374832  69.0216904  25.2472305
  85.2119598  69.6035080  24.8051167  20.1445789  55.0675011   4.3482432
  20.3335495  55.7857056   4.9521470  19.7209854  55.4886551   3.6002934
  13.1517839  40.0646324  57.5407219  13.0680428  40.7886391  58.1612358
  12.4305506  40.1926498  56.9245491  62.5663567  54.6691513  54.9649277
  62.1615105  54.6387138  55.8317642  63.4843636  54.8790054  55.1365623
  72.6098328  50.2893486   7.5991607  72.0662918  50.8364639   8.1661348
  72.2619171  50.4361610   6.7195969  48.3293419  62.4495430  54.7482605
  48.8750992  63.1722832  55.0581436  48.8764648  61.9933052  54.1089363
  56.1435966  29.4806919  33.9898491  55.6053619  29.6405907  34.7650719
  55.5288925  29.1477489  33.3359985  67.8492508  66.5412827  62.6996994
  67.5772934  66.0775452  61.9077263  67.9148865  67.4574127  62.4302063
  79.3739548  51.8389549   4.7585669  78.5812912  51.5691338   5.2223687
  79.9972687  52.0515213   5.4532065  24.6587563  56.9364967  64.1510468
  25.4611855  56.9687271  64.6719131  24.7776833  56.1818161  63.5743790
  80.1621170  50.5815277  39.4127502  80.3556137  50.7592125  38.4923058
  80.7507706  49.8640251  39.6470642  78.1648636   9.2841377  34.1973763
  78.2047729   8.8716917  35.0602379  77.2370682   9.2602587  33.9631729
  35.2382660  64.6721039  14.4739485  36.0674477  64.4605560  14.0450716
  35.4916344  65.1585846  15.2584076  65.7242432  57.8272972   1.1117568
  66.3217773  57.6676941   0.3812027  64.9902954  58.3019524   0.7215629
  21.7450066  33.0637207  23.4538746  22.4060974  32.4613686  23.1127548
  22.1332417  33.9318924  23.3453331  45.5329475  66.7446213  48.8573227
  44.6474686  67.0447693  48.6521950  45.9671326  66.6803589  48.0066833
  30.8001194  69.8356552  44.1342087  30.3726635  70.4420319  43.5293732
  30.1164532  69.2072296  44.3663940  77.7924881  32.1312027  83.2734375
  77.1404419  31.7238121  82.7032547  78.6184082  31.7133236  83.0295944
   3.9382267  22.4938545  49.1886368   3.4917719  23.2206898  49.6229439
   4.7128682  22.3324146  49.7272453   4.5481887   2.8015840  73.6611633
   5.2407207   2.4036899  73.1336060   4.6100435   2.3614333  74.5089035
  52.0946198   7.7670488  42.3487740  51.4598007   7.4409122  41.7109108
  52.3555794   6.9913054  42.8451157  20.4989586  53.3624496  54.1855621
  20.9661198  52.9815712  53.4419708  20.8597622  52.9138870  54.9503136
  70.4324570  48.8902283   5.3969679  69.6811752  48.8680496   4.8042459
  70.9385681  49.6517296   5.1137686  74.9561081   5.7930679  57.6756058
  75.2907944   6.5329666  57.1688843  74.0419235   5.7107854  57.4040833
   1.6234676  46.6625977  30.6976433   1.1597950  46.9866791  31.4697895
   1.0961787  46.9637375  29.9577007  44.4476585   7.3265100   1.7973866
  44.7111549   6.4514427   2.0820951  43.9048233   7.6578074   2.5127912
  21.0817757   8.5279570  53.5928612  21.5414009   9.3668365  53.6283302
  21.7450218   7.9037151  53.2984848  64.2562790   1.8092232  71.1512070
  63.8678741   2.0081046  72.0031586  63.7452736   1.0699350  70.8217239
  81.6892776  58.9502068  26.3444576  81.8045959  59.0280838  25.3974247
  82.3396759  58.3010101  26.6123505  80.0698242  32.9320564  79.8100739
  79.9602585  33.3374634  78.9499130  80.9511795  32.5592537  79.7886353
  68.4570999  28.6219540  18.6004887  67.8333435  29.0724049  19.1699181
  67.9261475  27.9892292  18.1167774  34.6112518  53.0656891  29.8915768
  34.8799286  53.8708878  29.4491940  35.0188408  53.1198616  30.7559643
  51.8555984   1.7578316  57.2432251  51.2156334   2.4535825  57.0928612
  52.2800713   1.6352441  56.3940926  53.9414825  55.1172791  25.4978943
  53.1519890  55.0648727  26.0365810  54.2866898  55.9945564  25.6635818
  36.8338661   0.9249800  66.1489487  37.0215034   0.4976068  65.3132553
  37.2731590   1.7732450  66.0881119  72.9965210  12.9534903   0.7508669
  73.4123535  13.2187300   1.5712125  72.6187592  13.7607841   0.4018667
   8.1407394  48.1984978  40.0028915   7.6344562  47.3934593  39.8941422
   7.6807528  48.8449059  39.4673576  11.0032473  42.3808441  57.4490623
  11.6841850  42.9791031  57.1414261  10.7191267  42.7508202  58.2849007
   6.4327617  16.4382591  30.3187923   5.7369957  16.8926601  29.8437538
   6.0814342  15.5622139  30.4779949   6.8610296  16.6962662  24.6590919
   7.1473446  17.6045952  24.7549839   7.3808074  16.3569508  23.9304447
  83.5046387  63.4297981  51.8370438  82.7440262  62.8656273  51.9763794
  84.2575760  62.8576736  51.9853210  11.0974379  30.3413734  15.4868755
  11.9304228  30.5674210  15.0730276  10.4389038  30.5296593  14.8182106
  33.1744690   1.3151219   4.5876403  32.9577866   0.3827719   4.5896816
  32.3717270   1.7469382   4.2954545   9.0904112  22.5890064  50.7250137
   9.6705770  22.0888844  51.2990494   9.6726675  23.1912403  50.2618446
   5.5848026  50.9147072  29.4274921   5.7850304  50.2970085  30.1307602
   5.4400010  50.3634109  28.6585083  16.2974319   0.2748958  19.9302292
  15.7378750  -0.2381747  20.5132275  15.6894751   0.8304291  19.4423733
  34.3260689  16.1767292  77.0704803  34.0277672  16.0135708  77.9652557
  34.9557762  16.8926926  77.1547394  69.5910797  25.1972961   5.6931300
  69.0164871  25.9479790   5.5429621  70.4682846  25.5755005   5.7539644
  58.1561546  43.3874130  65.1365204  58.9469528  43.3441963  65.6741104
  58.3166618  42.7684937  64.4241943  12.5437050  71.0498734  37.8061905
  12.3949099  71.3819046  36.9208412  12.6717958  70.1083603  37.6905136
  13.5672293   7.8731747  28.3347988  13.7864628   8.5612211  27.7064991
  13.1115808   7.2107849  27.8153210  68.2673492  44.7932892  32.9718857
  69.1472549  44.6634483  32.6181335  67.8737183  43.9208412  32.9610939
  33.0459633  49.3149490  48.5073242  33.0460281  50.2373161  48.2514534
  33.3306046  49.3198891  49.4212112  57.5651474  35.3695602  37.1825066
  58.2296257  34.7757187  36.8331413  57.0003433  35.5637131  36.4344864
   3.6674292  19.4819698  50.1619415   3.1034498  20.1794567  49.8277664
   3.1301920  19.0308990  50.8132057  46.3915405  41.5067329  39.6936951
  47.1235924  40.9439659  39.9459267  46.8053207  42.2861443  39.3228378
  42.1004219  64.9074783  27.7501030  41.4030876  64.7100449  28.3753853
  42.8860893  64.5220871  28.1379623   1.2551831  69.2973709  20.6000118
   1.9871908  68.9353561  20.1006718   0.4748990  68.9785004  20.1464615
  83.6483917  24.3868542   5.3092299  84.4670792  24.8335247   5.5247960
  83.5811310  23.6846275   5.9562125  48.7628136  10.6337509  36.5427094
  48.2211571  11.1915340  35.9843903  48.7493439   9.7788649  36.1123352
  41.4049950  63.0191689  23.5495892  40.8580933  62.3981476  23.0684814
  42.1615486  62.5044441  23.8305130  78.4210815   1.1007293  29.1053448
  77.8368912   1.8589740  29.1097507  77.8825531   0.3815438  29.4354801
  56.7894821  53.8849564  69.0906830  56.8588905  52.9319954  69.0334167
  55.8518219  54.0617981  69.0148239  56.7942734  33.4013977  32.0001564
  56.2208138  34.0630074  32.3870010  57.3446083  33.1074486  32.7260742
   4.0418577  47.3266068  39.2854271   3.5213284  48.1082230  39.4707718
   3.3975661  46.6620522  39.0415192  32.9106026  33.8537445  79.0211563
  31.9604034  33.9286919  79.1091156  33.1662788  34.6268349  78.5179749
   8.8866014  16.7240791  11.9231272   9.7448692  16.3246021  12.0646410
   8.4642639  16.1608448  11.2745667  67.5112152  19.4562435  87.0170670
  68.3543396  19.8282661  87.2758484  67.3730087  18.7301350  87.6252594
  82.6057968  28.2602997  31.5712070  82.9569092  27.8560810  30.7777596
  83.3793030  28.5510921  32.0542908  34.8710327  67.0939560   3.8810108
  35.2842598  67.8865662   3.5386066  35.6004028  66.5617371   4.1988087
  20.6982574  30.1856098  75.7363968  20.7088394  29.2980061  75.3782349
  19.9302406  30.2043400  76.3073883  16.7589321  19.5837593  85.3231201
  15.8089905  19.6597958  85.2333374  17.1029568  19.8658237  84.4755859
  57.3234215   5.2137551  58.6644859  56.6087494   5.7340698  58.2974014
  56.9225655   4.7338624  59.3892288  18.9701347  30.6519165  70.5116119
  18.3498116  30.4054337  71.1976700  19.2621593  31.5298595  70.7569122
  11.1413536  24.5114746  53.9678802  11.6016607  25.3425789  53.8512039
  10.3727264  24.5818520  53.4017601  16.2653770  57.9007492  65.6993179
  15.5085020  57.5453224  65.2334442  16.0182800  57.8609581  66.6232224
  84.6120911  28.2364235  26.5426178  83.9716721  28.9127827  26.3220711
  84.2699127  27.4406528  26.1353149  15.0963068  28.8141689  82.8483047
  15.4558954  27.9577370  82.6171112  15.6338148  29.1091099  83.5833740
  35.8033371  66.3235703  83.8149185  36.1511383  65.5220642  84.2058792
  34.9583359  66.4529953  84.2455673  56.4244957  56.9476395  87.3091049
  55.7148666  56.3833504  87.0021210  56.3278694  57.7524185  86.7999573
  45.0028877  68.8844452   8.7977085  45.5505867  69.5266190   9.2492266
  44.2488594  69.3871689   8.4895916  46.6435509  65.7850494  78.8058624
  46.1386337  65.4164047  79.5307007  47.5372658  65.8460999  79.1431808
  53.5030098  30.4233093  63.8281479  53.3922958  29.4727993  63.8505936
  52.6180801  30.7645340  63.6989403  24.6401291  18.5785561  16.5201340
  25.1205692  19.4061604  16.5420361  25.1302986  18.0014877  17.1057587
  57.5516739  62.4461555  67.5699844  58.2587624  62.1789398  66.9827423
  57.7386169  61.9925537  68.3918915  49.8840752  60.9216766  17.4337273
  49.8668671  60.0300102  17.0860672  50.1122055  60.8143539  18.3571281
  35.0330200   9.2523212  66.2110443  35.1281357  10.0988741  66.6475449
  35.4721565   9.3667307  65.3682480  62.9874191  24.6958714  24.3438454
  62.2598381  24.2711983  23.8894100  63.7532539  24.1697044  24.1138954
  17.8796940  69.8167038  13.7608252  17.7671318  70.1266937  12.8622322
  17.7698822  68.8676224  13.7023115  20.5500755  45.6123886  62.0914574
  21.4372616  45.2530403  62.0906525  20.0151424  44.9287910  62.4949112
  63.5098915  21.5653896  78.0424194  64.2817612  20.9993706  78.0340424
  63.5110245  21.9847183  77.1819611  16.1861267  22.9349537  24.8408127
  15.7633324  22.5827618  24.0575886  16.8142490  23.5752335  24.5065441
  37.7954674  40.7763672  85.3871460  38.2152710  40.9216805  84.5392761
  37.6037865  39.8386726  85.4019318   5.2053642  20.3774395  16.2404976
   4.9912481  21.2864265  16.0304298   5.8060799  20.4383736  16.9832363
  51.5171204  61.1149521  77.1059036  52.2781868  60.8669662  77.6307983
  50.7880135  61.1145325  77.7260895  16.8922787   9.7299614  84.6863708
  16.1054478  10.2600126  84.5591888  17.2097988   9.5561523  83.8002548
  32.0431099  11.8731241  15.8430786  31.2438946  11.3716536  16.0043678
  31.7347031  12.7102356  15.4961481  13.0743332  39.6331787  87.5538712
  13.2123098  39.0844078  88.3259125  13.5347395  40.4481812  87.7539444
  18.2535362   6.3111467  78.9032059  17.3750095   6.5063591  79.2292633
  18.1069927   5.7538700  78.1388779  59.7663956  28.5642662  79.6633911
  59.9393692  29.1494579  78.9259186  59.1230354  29.0328159  80.1951599
  60.8936043  32.5050545  85.2771301  61.7606316  32.7555275  84.9581299
  61.0693359  31.9239769  86.0171967  86.7547913  29.6040611  36.9513321
  86.1881561  28.8797493  36.6857605  87.2005157  29.2842808  37.7357445
  36.6188011   2.6828046  18.1275311  37.4199524   2.2383945  18.4048214
  36.0254555   2.5944445  18.8734303  33.4547424  33.7633133  73.5480118
  34.0995369  34.2884102  74.0220871  33.3627472  32.9671593  74.0713730
  78.3683395   7.3797841  82.9297791  78.0936050   8.2499571  82.6407318
  79.0235443   7.5481339  83.6069794  72.5355148  17.7047405  21.7529106
  71.5946808  17.5322094  21.7169781  72.9107437  17.1255188  21.0896320
  44.0890617  51.2973671  45.0436287  45.0400314  51.3874245  45.1050644
  43.9368095  50.3524094  45.0538559  69.6138382  64.1152420  26.3505077
  70.3136139  63.4904175  26.1604004  68.8278351  63.5757484  26.4364185
  41.5369263  14.4264364   3.7474897  40.6788521  14.8432417   3.8263059
  41.4243813  13.7757206   3.0545733  72.3359909  26.8576355  81.3983231
  71.5247040  26.8618298  81.9062805  72.3340378  26.0114727  80.9508438
  21.2937298   0.0354946  27.2125759  20.7096500  -0.7085552  27.3591118
  20.7514858   0.6796095  26.7572536  50.3074875   0.0763276  35.1749992
  51.0992165   0.5322082  34.8893929  49.6196251   0.7405164  35.1310654
  61.0970535  21.3803673  36.2202644  60.2567558  21.8354816  36.1654472
  61.0983925  20.9840450  37.0915604  13.2619810  65.9893799  14.2443438
  12.9883022  65.1636505  13.8449688  13.5568438  66.5253677  13.5081367
  64.4947662  55.5571594  84.9771500  64.2766113  56.4811859  85.0988770
  65.2565079  55.4148674  85.5390549  51.8172646  67.3248596  55.1593475
  50.9021301  67.5477982  54.9888763  51.9888725  66.5702057  54.5960770
  38.5746117  43.5220528  27.0265045  38.2771339  43.3520699  26.1327248
  38.4295616  42.6962814  27.4883404  50.8485451  52.9269943  20.2325478
  50.1594353  52.2916832  20.0382690  51.6385155  52.5492172  19.8459511
  18.3928757  10.3946075  76.5245209  17.9108181  10.9358168  75.8992615
  19.3052788  10.4572725  76.2419891  45.7205391  27.3010826  40.6699677
  45.5480347  26.4741936  41.1202202  45.0981369  27.3122520  39.9428329
  17.6369038   4.8197923  18.1224174  17.6540852   5.6672831  18.5670471
  18.1504974   4.2424731  18.6873550  39.2073174  71.2394409  76.9318390
  39.2312889  70.3456421  76.5901108  38.3009796  71.3639832  77.2134018
  60.1498985  43.8851089  22.9754601  60.9914627  43.9421730  22.5229740
  60.1284676  42.9963188  23.3301754  12.7153625  35.2055283  66.5202103
  12.8688917  34.3812294  66.0584793  11.9694128  35.5985413  66.0670776
  41.5063858  14.8583336  68.3761444  40.8474655  14.2738247  68.7508545
  41.9371719  15.2514973  69.1351471  52.7733231  28.2400723  80.0654373
  53.0809860  28.1105824  80.9625473  52.1894569  27.4991264  79.9031677
  61.8082733  36.7972794  50.7018013  61.0725288  36.2020493  50.8453484
  61.6068726  37.5615959  51.2417030  83.2555466  20.2018929  82.6636429
  84.0567474  19.6793804  82.6994781  83.5410919  21.0563164  82.3401337
  67.6935730  65.9290085  13.9286194  67.0902786  65.3375931  13.4786291
  67.5987930  65.7083282  14.8551989  85.7928238  34.4832611  14.4771624
  85.2502365  34.0225143  15.1171112  85.2271194  34.5836945  13.7115774
  18.3074341  45.6365013  16.9384975  17.3519287  45.6463623  16.8824348
  18.5019875  46.0421982  17.7833576  63.5274506  68.8358231  56.6247101
  64.0384369  69.6372528  56.5114059  63.6142197  68.6258926  57.5545654
  80.2347260  32.5494652  55.5854378  80.4086609  31.7229424  56.0358162
  80.9701843  33.1128159  55.8262100   9.2445974  39.5531731   3.1453791
   9.6248865  38.6882401   3.2986917   9.9737902  40.0812225   2.8203044
  32.6005821  40.1259727  61.9191017  32.6121597  40.7300987  62.6614838
  31.7325287  40.2389679  61.5318718  58.7502518  42.2705040  38.2917747
  58.4130211  41.3899384  38.4564323  59.4271278  42.3959999  38.9568481
  34.2294731  68.9127808  13.1321802  34.6320152  68.2939682  12.5228672
  34.3392639  68.5076370  13.9924335  40.9915695  27.1187191  68.7739258
  41.3125534  27.1872292  67.8747559  41.1993294  26.2214622  69.0346909
  28.1677723  70.8396835  67.4871216  28.3285160  71.2733383  68.3251724
  28.8929596  70.2218781  67.3941498  78.8278885  56.3638496  42.2245216
  79.5639267  56.2087517  42.8164864  78.4311981  57.1747093  42.5429230
  74.5555191  70.8641129  26.4453182  75.0067291  71.7047424  26.3679485
  75.2564926  70.2283859  26.5892391  13.4952078  22.4614449  26.6837292
  14.3783255  22.4006329  26.3195343  13.5424070  23.1867523  27.3065720
  77.7555084  49.7229919  40.4651031  78.4547806  50.1032944  39.9334831
  77.8059006  50.1918945  41.2980652   4.4168735  40.2740173  32.1960449
   3.6122017  40.6894569  31.8859768   4.7886090  39.8606224  31.4168491
  72.1985779  67.6193619  37.4635925  72.7020645  68.1082153  38.1145630
  71.8060989  68.2934341  36.9087715  70.7704926  65.7930450  14.4715929
  69.8218079  65.8929062  14.3925219  71.1114426  66.6851349  14.4071102
  19.0361462  42.4923706  70.6054993  18.8200722  43.2739258  71.1141434
  18.2116871  42.2426910  70.1881790  59.8350601  61.8139343  88.6896896
  59.3334427  62.4411011  88.1688538  60.4341316  62.3548431  89.2042389
  35.8199615  64.3460693   2.1379590  35.9133377  65.2961426   2.0681927
  36.2799110  64.1188965   2.9460876  24.5981064  22.7239151  14.6978130
  24.2854443  21.8276043  14.8206940  25.4555016  22.6239014  14.2841682
  40.2612610  48.9177589  31.7614498  40.8089561  48.7046738  32.5169983
  40.4441528  48.2225838  31.1293793  55.6086006  55.5356712  72.0625687
  54.9755745  55.1366653  71.4656601  56.0005722  54.7953949  72.5257950
  40.4516716  64.8116074  18.6350632  41.3449898  64.6039810  18.3610020
  40.5175629  64.9526291  19.5795231  82.9136505   1.7901981  63.3142242
  83.7076416   2.2899156  63.1242638  82.6028900   1.4992694  62.4568901
  53.2228203   6.0034070  49.8719597  53.7092400   5.7322836  50.6505013
  52.7608337   6.7968988  50.1424599  74.2200546  40.2523308  88.9411926
  74.9654617  40.8124275  88.7246323  74.2948227  39.5111198  88.3401489
  58.5804825   4.5574317  16.4574356  57.7245178   4.7139196  16.8562641
  58.8650436   5.4198437  16.1549416  29.9434452  11.9567366  11.3476324
  29.4320049  12.6567240  10.9418268  29.9132481  11.2398558  10.7140694
  30.9138374  45.7395744  85.4765472  31.1293049  45.2571487  86.2747192
  31.7626095  45.9878387  85.1102371   4.1480865  21.3472557  64.0682678
   4.1578412  20.4899216  63.6426964   3.3088231  21.3771152  64.5275955
  83.3651733  41.4449425  25.3883801  83.7571640  40.9406662  26.1013145
  84.0910721  41.6152039  24.7881184  52.3569984  49.5957298  29.7795391
  52.2044487  49.1758347  30.6260891  52.1579399  50.5196533  29.9311218
  81.9890060  66.2060776  64.8767853  81.5754547  66.6194000  64.1189194
  82.5987167  66.8661728  65.2065811  18.3323917  48.4437294  13.6066151
  18.8302402  47.6627045  13.8482389  17.6407471  48.5003548  14.2658968
  55.8149605   5.4397364  48.1899490  56.1820793   6.1126366  48.7632370
  54.9726067   5.7975364  47.9094963  45.2208405  38.0895767  17.3435040
  44.5147438  38.5675964  17.7784252  44.8844032  37.1983719  17.2496891
  37.4234772  60.7563629  50.0132904  36.7810326  61.3040504  49.5621414
  38.1853523  60.7541389  49.4338303  29.1146793   6.3868632  24.4017487
  29.7158642   7.0491929  24.7425251  28.5940609   6.1229472  25.1603889
   3.7584190  15.3047705  50.2475319   4.4858804  15.5219603  50.8305092
   4.1151328  15.4188700  49.3666420  51.6620522  66.8693085  60.8826485
  51.6426315  66.7314682  61.8296738  51.6596565  67.8208847  60.7790222
  32.9149170  30.4879417   8.8543940  33.3570023  31.0249634   8.1968212
  32.8489609  31.0555916   9.6222839  15.1602182  15.4940786  15.3538828
  14.4395523  15.3849115  15.9743299  14.9014482  16.2419415  14.8153915
  44.3172150  69.9147644   1.5609192  43.6157341  70.5623779   1.6298764
  44.1228371  69.2770691   2.2477887  64.4996643   5.6411033  21.4673862
  64.2917404   5.4756103  20.5478134  63.9431610   5.0316110  21.9522133
  33.1463623   6.5827351  23.0877819  34.0383759   6.5515246  22.7419891
  33.2541809   6.8276987  24.0068035   3.5002763  45.4405899  58.8690300
   3.4842277  46.3959770  58.9256554   3.2497716  45.2499962  57.9650650
  69.4461594  40.1996078  42.3169098  70.0903931  39.8824043  41.6840019
  68.7167358  39.5839500  42.2452240  67.0135880   5.8915443  35.6182671
  66.8918610   6.2114725  36.5121689  67.7145004   5.2435327  35.6891670
  71.1960983  14.8072548  55.3643265  70.2512817  14.9143610  55.2544594
  71.3171310  14.7024517  56.3080406  82.4134521  27.8347778  10.0162516
  82.5597534  27.5360069   9.1187191  82.8936462  27.2088337  10.5583220
  77.5844040  29.9876270   5.7228971  78.3618927  29.5079899   5.4370899
  77.2728653  29.5045357   6.4882703  53.6716156  33.4173546  31.4067802
  53.8323441  34.2738647  31.0108128  54.2598000  32.8235970  30.9401741
  71.7880478   3.1478508   5.1711726  71.7265091   4.1005831   5.1022806
  72.0906525   2.9914465   6.0657101  42.8133240  63.3197746  18.1195469
  43.3960724  63.2701416  17.3618050  43.3301315  63.7660980  18.7903233
  59.6646576  22.1561966  33.1723289  60.5303535  21.7572899  33.2599182
  59.0886154  21.5947247  33.6911354  52.6485901  71.5987015  45.8051682
  51.7211304  71.7910233  45.9432335  52.7896576  70.7649384  46.2537003
  66.6822662  26.5390797  17.6822281  67.2419052  26.2377911  16.9665012
  65.8122559  26.6149025  17.2903576  69.1029816  15.1598625  67.6600952
  68.6683655  14.3699141  67.3386612  68.8227463  15.2330332  68.5724258
   6.3412828  13.6804438  57.2391243   5.8851099  13.7438793  58.0782394
   6.1731358  14.5199060  56.8110352  10.5033445  55.9205971   6.3479276
   9.8762608  55.2250824   6.1497865  11.2853308  55.6877670   5.8474078
  58.5718002  25.7583904   2.0519083  57.8170280  26.2854385   1.7896682
  58.5039101  25.7003670   3.0049329  75.7080383  61.4645081  53.8392639
  75.5914841  60.6427841  54.3161469  76.6516953  61.6232300  53.8626404
  56.5394287  51.0035629  77.2171478  56.4906464  51.4190750  78.0780792
  57.4738197  50.8490067  77.0783920  14.2855835  54.1301651  79.3793793
  13.5099802  53.7698326  78.9494553  14.8827915  54.3382301  78.6608505
  18.0037251   0.5180328  15.0119305  17.7936211   0.4804108  15.9450293
  17.8513908  -0.3726008  14.6960220  41.4050903  56.9539833  56.6719093
  41.2641487  56.0081253  56.7133942  42.2160950  57.0536537  56.1733360
  71.7688293  11.7226658  24.3560352  72.1957016  11.2012177  23.6762524
  70.8788986  11.8580751  24.0305901  53.3477097  60.2856102  31.4948120
  53.7863846  60.4763184  30.6656990  53.9906273  60.5177612  32.1648827
  22.5802708  51.9107018  28.6224194  21.7521496  52.3613586  28.4570217
  22.6871548  51.3236847  27.8739414  86.6623535  47.1089592  88.9158325
  85.8879547  46.8785934  88.4025345  87.2423248  46.3526840  88.8268967
  79.6607361  41.1971703  47.0457916  79.5501404  40.8119354  47.9150391
  78.8112640  41.0778236  46.6210747  76.2490311  50.8538475  43.4766731
  76.1805496  50.7823410  44.4287376  77.0041199  51.4243202  43.3330307
  37.1565094   2.2817240  26.7287655  37.8275375   1.7759310  26.2703686
  37.4244308   3.1935883  26.6149540  58.6065254  34.6853371  85.6881943
  59.4683037  34.3147507  85.4978333  57.9896698  33.9962234  85.4415283
  70.5595703  58.7812424  39.6227303  71.4988098  58.6381760  39.7393112
  70.3447723  59.4784927  40.2423515  60.1856651  62.2381706  35.3815651
  61.0194855  62.4350395  35.8084297  59.7956390  61.5518227  35.9228973
  74.9884186  30.5085526  14.0525036  75.2771988  29.6609058  13.7143745
  75.7948074  30.9427223  14.3308191  84.6557465  46.8694687  60.3736649
  85.6062546  46.7564697  60.3761177  84.3430557  46.2536850  59.7108955
   1.1819715   3.4619310  86.3810120   1.9329463   2.8766513  86.4795837
   0.6368307   3.2832172  87.1472473  71.3967514  58.2812614  42.7467003
  71.3100128  59.2323189  42.6818848  71.1476898  58.0789490  43.6485176
  47.4292679  38.4327888  87.3422165  48.2960625  38.4678001  87.7467728
  47.3887634  39.2167282  86.7944641  10.8414669  29.7785244  86.5912857
  10.1813345  30.4670162  86.5110550  10.3476324  28.9625797  86.5100861
  19.1059532  51.2751427  20.6873131  18.7120667  50.4400063  20.9395733
  18.3817940  51.9003677  20.7176437  20.8934460  51.3904839   2.6653914
  21.7149296  50.9360123   2.4787014  20.2122040  50.7695847   2.4072776
  85.8414993  33.3484306  17.2331352  86.1655426  34.2292633  17.0450878
  85.6910706  33.3453026  18.1784363  68.7737885  45.4737358  17.7194920
  68.5960999  46.4111938  17.7958450  68.5456009  45.2596054  16.8148861
  14.8667212  64.2357941  42.6883812  15.7567453  64.0042801  42.4228783
  14.4896193  64.6601562  41.9177055  15.9603109   6.3827600  54.7516327
  15.6345081   5.5902443  54.3250122  16.8343086   6.1457787  55.0617943
  24.9699955  31.1636562  70.7888260  24.5363140  30.4017277  70.4046173
  25.6614246  30.7940807  71.3379822  54.5911255  69.5525436  40.5558357
  54.8890419  68.6487503  40.6589394  54.6288757  69.9194183  41.4391327
  25.8421860  64.9889297  74.2877502  26.4859295  64.3678131  73.9471054
  25.8543510  65.7135773  73.6624680  82.4041443  27.4375401  67.7959290
  82.9537964  27.4590282  67.0125732  81.9377136  28.2733307  67.7842484
  39.2028465  51.1224251  56.6341095  39.6251373  50.7477608  57.4071121
  39.9285049  51.4190025  56.0848465   5.2420945  58.2517929  55.9981995
   5.6000266  57.6184883  56.6203270   4.5427914  58.6926231  56.4807701
   2.8034511  30.9909954  79.9826660   2.5688181  31.1491375  79.0682449
   2.1776702  31.5134735  80.4843140  17.0421066   9.3838577  51.1990128
  16.2854042   9.9476852  51.0386047  17.4953976   9.3459930  50.3567963
  49.7553062  18.4201775  14.6194744  49.1435204  17.7833900  14.9888659
  50.5902252  17.9539032  14.5778170  27.7760754  58.9496155  19.4280777
  28.1709900  58.1308784  19.1281719  28.5140209  59.4681168  19.7487373
  25.3498917  33.5693169  83.2023239  25.7025681  33.0515404  82.4786148
  25.9384212  34.3213615  83.2678604  36.4863853  39.8878670  67.1945648
  37.1587906  39.2206268  67.0571136  35.7045174  39.5302124  66.7738571
   4.6952162  36.8192711  67.1198425   4.5949273  37.4810028  67.8041611
   4.2310238  36.0532799  67.4575043  44.8652039  54.2637253  24.8967018
  45.3648415  53.4829216  24.6580811  45.2794380  54.9727402  24.4048233
  14.5251493  69.9057541  54.3052559  13.9422102  69.7527390  55.0488968
  14.0815678  69.4929123  53.5642891  55.9218140  60.6582222  12.4982767
  55.8798676  60.1955795  13.3351955  55.6132126  61.5421410  12.6975021
  37.5143890  23.7918663   1.0666535  36.5921173  23.8925152   1.3022779
  37.9515953  23.5859680   1.8929037   5.0305886  22.3452015  13.8248987
   5.2259688  23.1284962  13.3105955   5.0843534  21.6259270  13.1956234
  66.9968033  37.1762695  22.3673153  67.2242050  38.1050186  22.3232269
  66.6059952  37.0662613  23.2341461  63.6414795   1.2977293  64.0638504
  63.1854897   2.0193696  63.6307869  63.4103622   0.5248228  63.5486450
  30.0742321  10.2068291  38.5519638  29.4243031  10.7305222  39.0205460
  30.8818493  10.3236628  39.0522957  74.7589722  64.4818878  81.9045410
  74.2365875  64.7233658  82.6694183  74.1389847  64.5005035  81.1754990
  84.6899719  66.2066727  68.7542877  84.4219131  65.4301300  68.2630005
  84.0666580  66.8836823  68.4909210  10.4763527   9.1913643  12.3372145
  11.1552296   8.5171013  12.3102341   9.7123060   8.7473841  12.7051096
  82.9873505  35.5517159   3.5837853  82.3336945  36.2438393   3.4841423
  82.5895996  34.7853470   3.1706214  11.5582371  50.7966576  81.8492279
  10.9694376  51.5513306  81.8454742  11.9718542  50.8198700  82.7121429
   8.7082462  38.8116302  49.5587196   9.3179483  38.7513771  50.2941551
   7.9149361  38.3749580  49.8688927  34.1428833  58.5907173  42.5810623
  34.9635124  58.1412430  42.3791580  33.9611168  58.3597260  43.4920158
  84.0649567  43.8857460  55.4135323  84.4337692  44.4484215  54.7326469
  84.0303192  44.4423752  56.1914749   2.7036352  61.7546730  23.1649818
   3.1163278  61.2783241  23.8854027   3.2807198  61.6037369  22.4163666
  67.3320389  63.3147202  79.6660538  68.0134125  62.9664993  79.0909805
  66.5436707  62.8282127  79.4252014  27.8349342  27.7671356  10.3218575
  27.1164360  27.5592022  10.9191484  27.4027596  28.0172386   9.5052147
  57.9982452  68.7720108  83.4675140  57.0612183  68.6504669  83.3144226
  58.1422462  69.7095871  83.3392792  26.8172779  17.9277325  59.0871925
  25.9328499  17.7913570  58.7474556  27.1448002  18.6867790  58.6046944
  58.3370895  12.1591797  80.5147858  57.8463173  12.9413548  80.2626419
  57.8957520  11.4423008  80.0592270  81.3025131   2.8954244  45.5982208
  81.4280396   1.9648565  45.4124298  81.5257797   3.3356471  44.7781067
  20.2854652  61.9817009  86.9897003  20.8368206  62.5115204  86.4139175
  20.4838448  61.0775795  86.7458954  78.0949097  21.3740768  73.7432480
  77.9740448  21.1169643  74.6573181  78.9939041  21.7003040  73.7030716
  82.4989243  40.5317039  72.7542496  83.0222626  39.7502632  72.5762177
  81.6952209  40.4015121  72.2509155  63.9320145  22.1269627  23.4060669
  64.6637878  21.6005821  23.0841045  63.4145432  22.3211308  22.6245575
   1.8590117  55.2549171  61.0045013   2.0630243  56.1046448  60.6138992
   1.0323844  54.9962769  60.5970383  22.5845718  48.0066490  22.0935917
  22.4135399  48.6607819  22.7711525  22.6099434  48.5073891  21.2782097
  24.1043015  25.8608418  55.0016785  25.0108147  25.6468372  55.2222900
  23.6389503  25.8223000  55.8372574  45.4063683  21.2474194  80.5286026
  46.0271263  21.0881138  81.2395935  44.5635490  20.9565067  80.8768234
  77.8077316  43.4513893  69.5004044  76.9374466  43.4817047  69.8977890
  77.7559814  42.7377548  68.8645782  51.6934853  54.7101898  30.6794472
  51.5561752  54.6232758  31.6227512  51.8648453  55.6426010  30.5472603
  66.0727158  21.2999859  78.7585754  66.2648087  21.0518665  79.6628799
  66.1100998  20.4769497  78.2712936  25.2784843  12.9291744  79.1665421
  24.7945251  13.6244593  79.6121826  26.0644855  12.8054914  79.6986465
  56.4252815  54.4268265  56.2698402  56.9505119  53.9694557  55.6132011
  57.0072823  55.1054764  56.6118126  47.9918060  22.6642876  69.1742477
  48.5684929  22.2667160  68.5218658  48.5219727  23.3536072  69.5742340
  58.1905937  64.7867508  47.3779259  57.7425690  63.9492226  47.2593613
  57.8036613  65.3610229  46.7170753  18.5951958   2.8092122  46.8703842
  19.3508892   2.2295210  46.7749100  18.2663116   2.9228292  45.9786682
  35.4418945  64.4082642  88.0931931  34.5414124  64.3046570  87.7855759
  35.3797417  64.3338623  89.0454636  80.7005234  29.8823261   8.5937920
  80.2176361  30.4957886   9.1476126  81.1419144  29.2988434   9.2110062
  65.8441315  56.5438690  28.1622982  65.4451523  56.2721214  28.9888611
  66.7444382  56.7715225  28.3943462  41.8217125  39.0659714  22.8450527
  40.9629478  38.8653374  22.4729023  42.4445610  38.6561699  22.2447567
  46.9444084  14.1926556   5.9352832  46.4486275  14.7643309   5.3490920
  47.2407608  14.7700634   6.6388507  15.9993658  13.7877769  77.8430939
  16.9330635  13.8529768  77.6426239  15.9434061  13.0943251  78.5005341
   9.5008020  44.6875992  84.6022568   9.3598461  43.7738609  84.8501434
   9.2272596  44.7321510  83.6860580  78.4004364  39.5679512  18.2212753
  78.9173279  40.3562508  18.0550480  77.6885071  39.6092987  17.5827770
  72.9256287  46.8103485   6.4124951  73.8121872  46.4494591   6.4160285
  73.0499115  47.7520676   6.5306158   5.2353888  18.9720192   4.7145896
   4.4211669  18.7227917   4.2773705   5.9170933  18.8078613   4.0630040
  65.7028732  36.9205551  34.2537079  65.1954498  36.9077759  35.0652428
  65.0774155  36.6639290  33.5760841  21.3289165  12.0705605  78.3048325
  20.8253822  11.9706306  77.4969330  20.9640694  12.8524437  78.7192917
  22.8630028  38.2272911  67.0724640  23.1688652  37.3903389  66.7229004
  23.4596596  38.8755417  66.6982880  71.6042862  59.6734390   7.7260780
  71.0430298  60.1035995   8.3712044  72.0762024  60.3907394   7.3029866
  80.7082748  71.3209839  42.8976440  81.1348953  70.4674683  42.9734459
  81.3346329  71.8597412  42.4142838  77.4081192  56.7515869  72.6567688
  77.1779556  57.6690865  72.5103073  77.9261398  56.7601471  73.4616394
  23.9833946  34.4309959  68.0237350  24.7125397  33.8311386  68.1810608
  24.2702293  35.2614670  68.4035721  54.0329552  40.9272690  14.8986473
  53.3130264  41.3891716  15.3282785  53.6550522  40.0888519  14.6331673
   1.1898857  64.9379578  70.6915207   0.3766928  65.1959610  71.1255493
   1.2598065  65.5298080  69.9424820  29.3857651  51.4394073  53.7857628
  28.7738667  52.1527901  53.9671478  30.0222321  51.4825134  54.4994011
  77.4769287  59.0656090  85.0664902  77.8095398  59.3168106  85.9281693
  76.5662842  58.8166351  85.2245178  45.5717010  68.3717880  79.2369614
  46.1945114  67.6750488  79.0298615  45.0406265  68.4613266  78.4456482
  11.9028950  56.5637512  78.0317154  11.8906345  55.6096458  77.9557724
  11.1912413  56.8584175  77.4634247  52.8670082  13.7295771  42.2176361
  52.1694412  14.3751135  42.3312645  53.6701393  14.2489748  42.1797066
  17.4172516  15.7512836  69.8878937  16.7527161  15.0630598  69.9190674
  18.2320919  15.2887421  69.6921387  23.5792599  37.1426773  12.7239199
  23.8933144  37.7145615  12.0235262  22.6446495  37.3379898  12.7916517
  39.1153526  55.6364822  61.5702019  38.2206650  55.4548492  61.2824974
  39.1176491  55.4130898  62.5009651  69.4099350  54.7389336  52.3086586
  69.8623276  54.3785706  51.5459595  69.2606049  53.9837189  52.8775024
  60.2263336  10.4922571   1.8754154  61.1475601  10.6250935   2.0988624
  59.7443542  10.9472466   2.5660048  74.1747513  60.7178574  41.6528015
  73.4153824  60.9933853  41.1393013  74.6491852  60.1188889  41.0762787
  30.5014610  69.4879227  22.5932064  30.9700317  68.6603012  22.7014332
  29.9769897  69.5721283  23.3894939  82.0467300  45.0831223  60.2220345
  81.7824402  44.1631470  60.2273865  82.4562454  45.2196465  61.0763741
  74.9703674  64.2691269  18.0459290  75.0976181  63.4339676  18.4959793
  74.9769135  64.0433884  17.1157513  28.8978901  15.4098930  64.4178009
  29.7490044  14.9977121  64.5659332  28.9163036  16.1988220  64.9595413
  27.9282780  25.4797344  13.4420147  28.7640724  25.8948746  13.6549397
  27.7943935  24.8388786  14.1403065  76.4467392  41.8604507  88.3179855
  76.3803635  42.3409081  87.4927673  77.3509903  41.9951935  88.6015244
  16.8189583  48.8198700  71.6382446  17.7347488  48.5438004  71.6015701
  16.5020771  48.7183723  70.7407379  53.7281113  21.7066307  65.1515884
  52.8127823  21.8217850  64.8963547  54.2280769  22.0119991  64.3946075
  68.8190536  70.9617767  83.2103043  68.3854294  71.7821503  83.4451981
  69.7117615  71.0593033  83.5416565  24.3068848   9.5595884  19.8985500
  24.3748322   9.2048893  20.7850056  23.3749294   9.5013914  19.6880722
   1.5637285  16.7662945  16.0379715   0.7838148  17.3175602  15.9741602
   2.0500703  17.1244335  16.7805614  31.8222980  10.4398556   7.5201602
  30.9552536  10.4888544   7.1175847  32.0074501  11.3363199   7.7999849
  61.1494827  70.3198700  10.6774750  61.6943283  70.9872894  11.0945148
  60.4151192  70.8082962  10.3054829  42.5313950  25.2370377  12.5826893
  43.0345001  24.4393024  12.7461987  43.1042519  25.9457455  12.8756065
  54.8358955  15.1103668   7.0741153  53.9190254  15.0928593   7.3484812
  54.8025665  15.0225706   6.1215329  62.1137695  16.0621891  36.2224426
  61.3130798  15.5511503  36.1042557  62.0989189  16.6992607  35.5081978
  51.8191948   3.7858775  61.2986488  51.0501328   3.3322151  60.9537354
  52.4732208   3.7108030  60.6037827  61.1627808  53.7477303  38.3975639
  61.7612190  53.0816956  38.7359505  60.7567062  54.1238480  39.1785011
  57.8419800  23.4054775  36.1067352  58.4202766  24.0491562  36.5159798
  57.0081329  23.8640480  36.0035706  19.3640690  14.7366314  82.1622772
  19.9937572  14.0321789  82.0090714  19.8425522  15.5368748  81.9457245
  16.7711792   1.7492894  12.5000124  15.9247751   2.1947391  12.5375128
  17.4115200   2.4355247  12.6878328  32.7192154  62.5832443  84.6452560
  31.8356342  62.5574341  84.2780380  33.2535362  62.0959167  84.0181656
  63.2830963  70.9064331   4.3141031  63.1626511  70.2565460   5.0064707
  64.0107346  71.4487152   4.6185713   5.9381428  36.3208237  39.2830963
   5.4733768  36.7752304  38.5804291   6.5183845  35.7090797  38.8299713
  66.7747116  18.0211315  41.3700829  66.8745270  18.9678402  41.2700157
  65.9458694  17.8204079  40.9353790  38.6907005  30.4253654   9.6115150
  39.1083450  30.5629616  10.4617338  37.9531822  31.0354977   9.6054087
  72.5829468   2.8112938  39.0025864  72.5878296   2.9952333  38.0632362
  71.6838150   2.9912140  39.2772064  66.5130463  66.0184402  69.2425919
  67.1235580  65.4967194  68.7217178  65.8548660  66.3151550  68.6141052
  51.3033333  26.5756817  78.5515747  51.9565735  26.9946079  77.9912033
  50.5383186  27.1484051  78.4970551  39.1758957  68.9736786  18.6069031
  39.2527275  68.1151047  18.1907578  38.2791176  69.2511597  18.4197578
  23.1912422  23.1029072   9.0548191  23.6591702  23.2497559   9.8768339
  23.0025520  23.9819393   8.7262945  59.6423531   8.0959902  48.2375755
  60.4498291   7.9140968  47.7568169  59.0511551   7.3848729  47.9905319
  73.5453720  15.0660791  44.8792839  74.2182007  14.8827801  44.2235947
  73.1028900  14.2273178  45.0093575  18.4165802  31.2582207  87.7046509
  18.7800121  30.8845787  86.9018173  17.7144585  30.6566391  87.9523544
  71.9691925  26.1552143  62.0966263  71.6129684  25.8014812  61.2816353
  72.1785736  27.0663109  61.8909683  20.0626640  27.4491081  74.6888046
  19.4236374  27.2637310  74.0006866  19.5536194  27.4322186  75.4992523
  33.8280106  27.0827789  77.3649368  34.4609222  27.6175976  76.8857498
  33.1057739  26.9573116  76.7494202  21.9639530  62.4431458  82.6517258
  22.5746288  61.7219124  82.4996338  21.1246147  62.1192703  82.3248520
  59.8348007   7.7968483  57.5162926  59.7791443   8.1807613  58.3913612
  59.0059853   8.0312605  57.0987396  71.0908432   0.7564985   4.3324914
  70.1604538   0.5513409   4.4247346  71.1793060   1.6369338   4.6975126
  20.0000095  10.1094904   6.1642900  19.6956215  10.7366791   5.5083828
  19.3406239   9.4156752   6.1563873  78.2065811  49.2132568  62.0184975
  78.9488678  49.7998199  61.8729553  78.5504532  48.3402557  61.8291664
  79.3810806  31.3140106  35.7644806  80.2277756  31.2416935  36.2050629
  78.8125381  31.7391834  36.4065208  62.6390152  56.7470398  10.3689699
  63.1228867  56.8397865   9.5482998  62.1061058  55.9615746  10.2453537
   8.4332676  23.3252525  20.6324005   8.3685703  24.1705971  21.0767384
   8.3648996  22.6792755  21.3354454  11.9370604   0.7611747  79.3792725
  12.6655731   0.2719944  78.9969101  11.1653261   0.2266581  79.1923294
  81.5928116  44.1498413  76.7346268  81.1350555  44.2470245  75.8996124
  82.0300903  44.9909172  76.8673553  39.4703751  31.0693607   6.7699714
  39.4199219  31.2819366   7.7019038  40.0532074  30.3111935   6.7284598
  48.7605057  70.1402206  72.1419983  47.9794235  69.6327515  71.9215088
  48.4552612  70.7841187  72.7810974   3.8118379  34.1202965  18.1937237
   3.2407448  34.6903381  17.6788082   3.2791159  33.8646317  18.9467678
  69.8702164  25.1406765  87.3069687  69.7959366  25.8301868  86.6472015
  70.3833847  24.4547729  86.8798523  75.7282486  22.7439594  21.6444988
  74.8170776  22.8453102  21.3693008  76.0589905  23.6396370  21.7123604
  71.8782120  49.5878792  30.2486668  71.0113144  49.2259674  30.4323635
  72.0737000  49.3004150  29.3568249  10.8042679  68.4021378  63.5080261
  11.4650984  68.7061920  62.8858643   9.9930477  68.8201065  63.2191391
  65.0505142  38.2712440  75.5859756  64.9775467  37.3180542  75.5375900
  64.2237091  38.5932808  75.2269287  56.3371429  21.4568291  19.5005054
  55.5081863  21.3059673  19.9547157  56.0889816  21.5825844  18.5846272
   4.9723897  15.4113274  84.8451996   4.2447181  14.8167391  85.0273819
   4.8325305  15.6908598  83.9404678  72.4520493  23.8254929  84.4856567
  73.0005035  24.5863228  84.2944260  71.9794922  23.6597729  83.6698990
  71.3244247  23.4444294  32.9300957  71.4968033  23.2987671  31.9998817
  70.6373749  24.1107464  32.9448967  53.1988564  26.9230671   1.5348316
  53.0705719  27.0274563   2.4776347  52.6911316  27.6341076   1.1438494
  35.3072701  54.5741386  54.3241577  36.0884056  54.0209503  54.3303185
  35.6287231  55.4450798  54.5573196  16.9919548  54.6818161   1.3878354
  16.1808205  54.6077232   0.8850373  17.1345673  53.8044739   1.7430239
  86.8817444  29.3986092  24.4764996  86.2589264  30.1248245  24.4459209
  86.3755646  28.6633511  24.8220539  75.6677399  33.5437546  20.8449593
  76.2512283  33.6457329  20.0930500  75.9997177  34.1662254  21.4919128
  60.8779488  67.4896317  65.5977936  60.4226036  67.0443115  64.8832397
  61.6922760  67.8031387  65.2043304  79.7069397  64.3320847  73.3975296
  79.6135025  65.2515945  73.1485138  80.1990051  63.9377403  72.6773987
  40.4991875  65.7316284  71.8151474  40.7394791  65.2660370  72.6162262
  41.1594124  65.4644775  71.1756439  73.8408127  44.9714203  37.8675003
  73.7547302  45.2075195  36.9438782  74.6463699  44.4560661  37.9089012
  21.6974373  25.5371761   9.0805807  21.4652195  25.4382915   8.1572561
  20.8605461  25.6733150   9.5247793  19.4169521  42.9089813  84.1668015
  19.0962677  43.7608795  84.4628830  19.5104790  43.0044975  83.2189789
   2.5872536  54.7235603  75.2533798   2.7432411  55.6595345  75.3792725
   3.3381855  54.4222527  74.7419662  41.3265381  68.5009689   3.1366711
  41.6286201  69.2778320   3.6072679  41.1462173  68.8131256   2.2499487
  33.6781349  56.9842262  36.3612061  33.8184090  56.5226631  35.5344543
  32.8790474  57.4917946  36.2195587  15.3318710  12.1161261  60.8893471
  14.6496449  12.4994373  60.3381004  14.8527479  11.6231403  61.5554085
   0.9883838  18.4959087  56.9929008   0.9112171  17.6072350  57.3400841
   0.1506692  18.6570053  56.5587196  60.5371094  21.5012436  84.5916977
  60.8331718  21.2139816  83.7279510  60.3999481  22.4437847  84.4966431
  32.2168274  52.7462959  31.5038090  32.8342171  52.7189789  30.7728424
  31.3961525  53.0463867  31.1130772  78.4823761  20.6164837   3.5865581
  79.0013962  21.3445473   3.9282854  78.8727798  20.4233570   2.7341957
  54.9661331  63.3030281  12.9988279  54.9494400  64.2418365  13.1848001
  54.2260170  62.9481125  13.4912691  62.0599403  22.1086922  26.6063099
  61.4562874  22.0540752  27.3471565  62.0645752  23.0359936  26.3689899
  24.1685543  23.2104492  11.6322975  24.7777519  23.2791462  12.3674107
  23.6390476  24.0061169  11.6848783   9.0781984  41.9028320   8.1101198
   8.5744610  42.6532631   8.4252949   8.9692078  41.2384148   8.7904902
   5.6583977  37.4554138  46.2211227   5.8569326  36.8612404  45.4973984
   6.5153170  37.7255325  46.5512085  47.1348801  69.2385712   0.2593173
  47.5318184  69.8758926   0.8530300  47.6266365  68.4314423   0.4108125
  77.0945282  55.9789963  85.7228851  76.3536377  56.1962128  86.2886810
  77.4613113  55.1813202  86.1042175   3.2620387  29.6813583  28.8940697
   3.9647460  29.1701260  29.2954140   3.6859994  30.1462460  28.1727047
  22.7525272  11.9409838   3.6771877  22.9173660  11.9915667   2.7356458
  22.1765442  11.1833019   3.7791378  51.1924667  42.7369423  36.5524673
  50.8180618  43.0329781  35.7227592  50.5730553  42.0821495  36.8746605
  18.8519325  48.1072197  51.0127411  19.6617699  48.0897026  51.5227280
  18.6747532  49.0379639  50.8765221   9.4046011   7.7909045  17.4063377
   8.7762766   7.4819541  18.0590172  10.2609558   7.6057105  17.7918129
  74.9951553  33.6668739  85.8349457  74.9289246  33.9712296  84.9298401
  74.2236252  33.1140327  85.9588013  64.9876480  49.3257408   5.7883396
  65.2002792  49.8045158   4.9872193  65.8371658  49.1354141   6.1862450
  25.8948421  34.3473320   4.0585952  25.6619358  34.0920601   3.1659460
  25.3707237  33.7726555   4.6165190  17.1773129  14.4773779  20.2961349
  18.1298027  14.3899832  20.3329906  16.8537788  13.5765247  20.3007851
  45.5395927  53.6546440  29.9307785  45.8029442  54.3706360  30.5089054
  45.7359581  52.8606834  30.4280701  72.6018295  44.8628807  24.3453445
  73.5503540  44.7565498  24.4176350  72.2888870  44.8422241  25.2497082
   4.9243340   6.7315779  62.1032524   4.2643867   7.4247937  62.0908737
   5.6623859   7.1119947  62.5794830  60.7035789  34.9197540  17.9555302
  59.8189392  34.6112556  18.1516743  60.5750351  35.7864380  17.5700874
  56.8507080  16.5632782   1.5326411  57.2296219  15.8877850   0.9701754
  56.3752213  17.1365776   0.9314176  54.5198936  43.3977699  35.4296570
  54.9091949  43.8387566  36.1847763  55.1977844  43.4348907  34.7548828
  27.5142002  10.9678230  64.9287415  28.4710560  10.9695873  64.9031372
  27.2899323  10.1958780  65.4483948  54.0252953  50.3996544  36.9131508
  54.6795921  49.7122078  37.0378418  54.5368767  51.2035103  36.8218803
  80.0222778  11.7004633  22.4822369  80.0595398  11.8800535  23.4217014
  80.3908768  10.8217440  22.3915634  45.7243156  56.4311943  87.9306183
  45.2297058  56.6527596  88.7196045  45.9151688  55.4976616  88.0218430
  54.9494514  49.0479507  78.0241470  55.5309105  49.7615585  77.7616501
  55.5111084  48.4507980  78.5182953  60.9283104  18.4497986  78.2905121
  61.5530853  18.4230976  77.5658188  60.1160126  18.1054630  77.9192505
  13.9872942  50.3686905  18.5787888  14.0758657  49.7515602  19.3051071
  13.0424280  50.4762917  18.4697895  81.2746658  55.4811821  32.5766754
  80.5100784  55.9432449  32.2329674  82.0235367  55.9570274  32.2175140
  33.7565765  55.5150223  77.5911407  32.8455963  55.7735939  77.4515381
  33.9419136  54.8987656  76.8825455  69.8036194  60.8522835  68.4143066
  70.4563751  60.3256607  67.9529953  69.8712387  61.7201500  68.0162201
  76.3774261  13.9638538  88.9096146  76.7016830  14.2478170  88.0549469
  75.6276779  13.4041758  88.7074509  64.4675980   8.2262535  19.2165871
  63.8293304   7.7737889  19.7680550  63.9479980   8.8542461  18.7147198
  31.9035797  10.4556360  61.6012802  31.4908772   9.6282377  61.8489075
  32.7623253  10.4307146  62.0233803   0.0793613  46.7745781  58.3706856
   0.5064405  46.8392639  59.2248802   0.6586721  46.2134628  57.8551407
  83.2431259  20.8269138  49.6182976  83.1183701  20.9895363  50.5532951
  83.3756332  19.8810272  49.5552940  39.8868904  44.6623917  39.7128792
  39.3742523  44.3848686  40.4720993  39.2348442  44.9686813  39.0825958
  19.2963409  55.8645058  29.4430122  19.2148228  55.6631737  30.3752403
  18.9514751  56.7534561  29.3589134  45.2527733  33.4746628  59.5025520
  44.4099503  33.0275993  59.4249802  45.8835144  32.7715111  59.6573944
  35.1375732   1.7673063  53.5362701  35.5496750   2.1146669  52.7452316
  35.5511208   0.9139794  53.6668243  82.4631882  31.8432922   0.3062703
  81.7972717  31.6526031  -0.3543486  82.8856125  31.0002594   0.4708377
  64.8269501   3.9000270  68.9767075  64.5362091   4.7364178  69.3402252
  64.8307419   3.3022964  69.7243271  81.5767288  44.4527435  87.0102997
  80.6329498  44.6071243  87.0512390  81.7961884  44.0826187  87.8653259
  81.0890274  47.5421143  13.6931715  81.0646973  48.4988747  13.7089577
  81.6926727  47.3295898  12.9813547   6.9607058  69.5279160  85.3811417
   6.7734294  68.6897202  84.9585571   7.0007954  70.1560516  84.6599884
  75.5304413   7.1451912  22.0833473  75.7739105   6.3634815  22.5792160
  76.0807114   7.1134381  21.3007698  31.4673424  42.1358223   6.5959868
  32.1838264  41.5790291   6.9007230  30.9051437  41.5479736   6.0914073
  13.2372198  63.0630989  33.9273071  12.9225845  62.7515602  34.7759438
  14.1028252  63.4276276  34.1119041  55.0218506  56.2953796  45.9299126
  54.8723793  57.1564751  46.3203011  54.1993141  55.8249397  46.0653954
  63.9809952  62.9200478  33.8212700  64.7927094  62.4150696  33.7727661
  63.6275978  62.8913994  32.9321594  43.4408417  41.4962158  65.6167450
  44.1467628  41.0245094  65.1747055  43.0269356  40.8387871  66.1759415
  67.4851227  45.7406731  79.2308731  67.6251526  44.9426079  78.7212448
  67.4926376  46.4439087  78.5815353  77.4405823  32.9421463  55.0572662
  78.3914490  32.8852043  54.9631805  77.1910858  32.1164436  55.4722328
  66.0033569  32.6163025  15.7703667  66.3302841  32.6873512  16.6671982
  65.7888260  31.6892681  15.6663752  59.8337212  35.9393196  52.4167786
  60.1613884  36.4773827  53.1374397  58.9890442  36.3292427  52.1915855
  60.5262718  27.5901928   2.6830318  59.8789482  27.2624111   2.0587220
  60.6364632  26.8761387   3.3108983  69.0066605   1.5444456  65.1958542
  68.9382858   1.7711297  64.2684021  68.3858566   2.1284101  65.6315460
  81.7824631  11.2522697  58.1903915  81.7470398  11.6332855  59.0677757
  82.1643066  10.3843622  58.3214073   6.5402179  45.8779411  38.8913765
   5.7090044  46.3198013  39.0648079   6.4768095  45.5982475  37.9781532
  15.7874203  51.3788033  50.8250732  15.3647442  50.7906151  50.1992874
  15.1361008  51.5019302  51.5156212  48.3313713  15.5967751   2.9199450
  47.4059143  15.6206388   3.1632342  48.7123909  14.9308453   3.4923034
  34.9137154   7.7395287  59.1664848  34.8905945   6.8303337  58.8680534
  33.9967690   8.0141878  59.1689720   2.0860889   8.6759663  15.4309254
   2.3322682   7.8284307  15.8014793   2.2358406   9.3003445  16.1408253
  78.4730911  26.0362415  17.5146275  77.5919647  25.7309570  17.7306061
  78.4333420  26.2410450  16.5804405   2.8102188  67.3958435  46.1285896
   2.4214907  68.2304993  46.3902740   2.1875863  66.7356949  46.4331589
  16.4572239  19.8134232  22.9334526  17.2559452  19.4680481  23.3321915
  16.7668018  20.4548588  22.2939587  48.9458122  67.7796097  54.5807037
  48.0450859  67.4644699  54.5057869  49.3756866  67.4677429  53.7843475
  74.1949539   3.5902417  71.0238647  74.3348160   3.2945061  70.1242981
  74.7859497   3.0499008  71.5482483  44.4524078  39.2880173  27.6922703
  44.9606628  38.5081253  27.9151573  44.0272789  39.0680275  26.8633537
  76.6152344  69.6936646  23.8505383  75.7038727  69.9820480  23.8006630
  77.1229095  70.4540710  23.5671883  55.7222328  32.7515793  27.7473431
  56.5103149  33.0654373  28.1907997  55.4760818  31.9608974  28.2274094
  25.5191536  58.5834770  26.5071945  24.7551651  59.1438255  26.6434479
  25.5435905  58.0196609  27.2803345  67.6351852  27.0772419   5.0600090
  67.3305740  26.8313522   4.1865206  67.5240250  28.0273647   5.0937786
  48.7222443  14.8726568  23.8770561  48.0124435  14.5125017  24.4087524
  48.6390877  15.8209639  23.9772129  48.4051552   9.6892433  39.1014862
  48.5006905  10.0873547  38.2362633  48.6182327   8.7660646  38.9652061
   1.8105359  51.2089691  10.0966549   2.7424884  51.4247818  10.0631657
   1.5221553  51.5248642  10.9529724  46.4610672  62.3013573  40.1044731
  46.2329025  63.0681000  40.6300926  45.6411896  62.0498428  39.6793022
   5.9410987  61.3532372  37.2642097   6.6989141  61.0993195  36.7374535
   5.1858387  61.1343346  36.7184105  80.0854492  38.7740135  70.3731308
  80.3242416  38.0717239  69.7681503  79.8755951  39.5167809  69.8070145
  33.5960503   7.4659138  12.7448235  34.1011124   8.1830254  13.1280928
  34.2325821   6.7607737  12.6271915  10.1609573  34.4641762  54.0176697
  10.9770193  33.9709625  53.9338875  10.4401846  35.3553658  54.2275314
   2.5881212  29.5945568   3.4119298   3.3536482  29.9885540   3.8302209
   2.0946105  29.2051888   4.1337829  14.1426563  10.6888332  13.8637714
  15.0524149  10.8847294  14.0878172  13.7672739  11.5360756  13.6239805
  29.2617149  42.9844856  78.1560364  28.7649994  42.1681557  78.2117996
  30.0038128  42.7750397  77.5888901   5.9200168  65.6669693  48.9472923
   5.6789064  65.5034790  48.0354996   6.8715172  65.5642776  48.9655380
   9.1260653   1.8538365  18.5375767   9.6778746   2.5156841  18.1208076
   9.2643318   1.9830216  19.4758873  57.3844299  62.3270607  43.7535706
  58.2362823  62.5293617  44.1404228  57.1731148  61.4535484  44.0830536
  49.7435036  11.3633280  75.7592316  49.8836060  10.5343380  75.3016510
  49.0401764  11.1776056  76.3813858  24.5115623  52.8684006  22.5089455
  24.8760910  53.4751892  21.8646183  24.8741360  52.0161285  22.2672672
   6.6986175  16.9470959  46.5347862   7.4154263  16.5733356  46.0222206
   6.6023231  17.8378506  46.1978683  36.6425514  61.0839996  44.4728775
  36.2253914  60.7402916  43.6828957  35.9279785  61.4894676  44.9640121
   0.8773856  40.3124237  85.9478607   0.6507090  39.3835182  85.9924164
   1.5828669  40.4176941  86.5861740  74.5791702  68.2458496  42.7488213
  74.9750519  68.6669769  43.5118179  75.3075562  67.7999573  42.3165359
  31.4017277  62.7379112  40.0518265  30.5580235  63.1847992  40.1203041
  31.1765079  61.8100395  39.9842949  29.0830269  18.1358242   0.7408308
  28.3987961  18.7809906   0.9192104  28.8625069  17.3916988   1.3010820
  60.7019997  62.0083618  49.3200645  59.7471962  61.9773331  49.3802261
  60.9817581  61.1079140  49.4848709   0.2991422  29.1130257  45.4344292
  -0.5536545  29.2255707  45.8543129   0.9027296  29.6185436  45.9788246
   1.1475582  36.2361221  14.3383112   1.4095639  36.3615532  13.4262514
   0.3201799  35.7576256  14.2861919   9.8620033  49.4599724  25.6412468
   9.6094189  48.5551910  25.8251095   9.0516911  49.8813629  25.3547916
   3.1825025  58.1196022  45.3401184   3.7551298  58.1425781  44.5734367
   3.7818372  58.1016426  46.0862465  36.6927605  42.8134422  66.5323563
  36.3196449  41.9331398  66.4866943  37.1262436  42.9339638  65.6874847
  36.7328453   4.0672131  82.0043259  37.0661774   4.1967864  81.1164474
  36.3845596   3.1756299  82.0016708  56.5017662  44.0801582  45.5209389
  55.8070755  43.4630089  45.2912407  56.6652527  44.5680275  44.7137947
  82.9738846  50.3785934  73.7710495  82.4923477  51.2009850  73.8606262
  83.5413284  50.3481750  74.5413132  67.1520691  56.5948448  31.9123650
  66.6003189  57.3496857  32.1173401  67.0578613  56.0166931  32.6693954
  62.9765701  25.3725262  35.0718803  63.1271477  24.4610310  34.8214149
  62.1351929  25.5946178  34.6731491  31.4193745  60.8838425  29.2534485
  31.6624432  61.7669678  29.5313625  30.7893047  60.5905304  29.9116364
  72.8636017  19.0864201  25.4244213  73.2739182  18.4135418  25.9676590
  71.9253387  18.9092884  25.4916763  66.0995102   2.8428066  48.9797974
  66.9338455   2.3796864  48.9047203  65.5005035   2.1977482  49.3557167
   6.8976769  26.9626331  62.2667885   7.5710154  26.3646126  62.5911636
   6.1043525  26.4288502  62.2227097  19.6303616  67.9763107  11.2687063
  18.7699490  67.8166275  10.8808622  19.7353725  67.2776489  11.9145174
  11.5297432  46.7161331  46.2388802  11.5886011  47.5921021  46.6202545
  11.2556458  46.8666992  45.3342094   4.8123250  66.5969467  79.1083984
   4.9591241  65.6904755  79.3785629   4.7447338  67.0837326  79.9298019
  64.8729935   8.3644209  11.0754681  64.9144516   7.6929564  11.7563858
  64.3561707   9.0694284  11.4654608  86.7087708  53.6248245  19.5856361
  85.9241867  54.1361008  19.3875027  86.4340591  53.0229149  20.2773495
  12.8344545  23.7520485  77.3052979  13.0448790  24.5130024  76.7640915
  12.1384420  24.0571556  77.8872833  39.0238876   5.7062345  33.7950172
  39.0823059   6.4667077  34.3733788  39.1741600   6.0599451  32.9183540
  64.5774765  26.9879150  57.2781677  64.6487885  26.0829239  57.5817032
  65.2994461  27.0901451  56.6580505  34.3376884  26.2033215   3.4482012
  34.0965385  26.9064636   4.0512524  35.0947227  26.5449867   2.9723866
  46.4204559  63.5015450  26.6394386  47.1389008  63.7484589  27.2217674
  46.8237839  62.9204750  25.9945221  84.3415070  14.5598173  71.5219727
  84.4946060  15.2361374  72.1818085  85.2034302  14.4012861  71.1370239
  14.4777613  14.8441448   1.9588925  15.3440943  14.5340357   2.2225800
  14.2371922  15.4824009   2.6304483  70.7256088  57.7484512  49.5943451
  69.8830719  58.0606384  49.9243355  71.2936096  58.5184402  49.6213837
  54.6050949  26.5246429  16.7345181  55.3261528  27.1466866  16.6377296
  54.9698181  25.8157330  17.2642879   1.8029636   2.7372437  24.2480640
   2.1124742   3.4224651  23.6556911   2.4996567   2.0809026  24.2398872
  63.2859840  11.1487150  70.8512039  63.0085144  10.2569075  71.0607834
  62.4697914  11.6213360  70.6878204   4.8038411  22.1623592  67.6086807
   5.1369867  22.1136551  66.7126465   5.3401179  21.5383778  68.0978470
  63.0376701  56.2170792  49.6945457  63.6878395  56.2501945  48.9928169
  62.5308723  57.0223083  49.5896950  15.4769402  62.1997604  81.9942932
  15.0478287  61.8916359  82.7925110  15.3623466  63.1499062  82.0122452
  51.6883278  14.1103792  59.8614807  50.8864861  13.7452974  59.4873161
  52.2474060  14.2860899  59.1046524  11.0258512  51.1391449  49.4077301
  10.6439734  51.9998970  49.2359505  11.2147617  50.7833214  48.5394363
  27.0575027   4.8566670  57.8614273  26.8453159   5.7231379  58.2084656
  26.2143459   4.4065881  57.8090210  56.2740479  41.9118690  13.6588030
  57.0471535  41.4141235  13.9248629  55.5846214  41.2538834  13.5694542
  14.7596931  59.3113365  16.0761585  13.9090252  58.8726463  16.0640659
  14.5479584  60.2428284  16.1371880  54.4914131   9.6388197  57.3290062
  55.1511497  10.0785389  56.7927017  54.3711586  10.2168159  58.0824585
  69.7478638  55.8463783  27.7898922  70.1975555  56.2419548  27.0432110
  69.8530045  54.9037590  27.6608715  51.1419754  59.5311623  59.2975731
  52.0805092  59.6457672  59.1484108  50.8350487  59.0467491  58.5311699
  78.8766403  70.5213547  73.3048172  78.5520325  71.0898056  74.0031891
  78.5448227  69.6521530  73.5298080   7.9665804   5.9360352  12.2957582
   8.3920374   6.0219541  13.1488905   8.6869202   5.9564710  11.6657381
  64.1770859  62.7345619  87.6727829  63.8189201  62.7928658  86.7870331
  64.0175629  63.5984116  88.0529785  76.1596375  60.5916100   6.3686275
  76.1835098  61.3024483   5.7280259  76.5736160  60.9589767   7.1495848
  53.9077988  40.2724457  71.6009064  54.1502838  40.0439873  70.7035522
  53.1718750  39.6952133  71.8044891  72.8328094  16.3244629  35.8391266
  73.1131439  16.2797947  36.7532654  72.9706573  17.2385330  35.5907211
  48.9897385   4.5653429  55.0478745  49.1201859   5.3275275  55.6120453
  49.7542839   4.0129795  55.2109604  42.9354820  14.8862419  37.9797020
  43.4074097  14.1362371  38.3416557  42.3058548  14.5014858  37.3699760
  17.8260689   2.3064744  21.7687073  16.9356213   2.4645061  21.4550819
  18.3863049   2.5499187  21.0317516  68.6704712  19.2175388  34.9046402
  69.3418808  19.5910378  35.4755478  68.4479065  19.9263573  34.3010864
  38.0333099  19.8986263   7.7804904  38.2716637  20.8144741   7.6368184
  37.9969711  19.5199661   6.9021244   6.5398965  31.8749542  50.5696793
   7.3736558  31.5332794  50.2466660   5.8774028  31.3263988  50.1496506
   0.1293015  48.0998840  15.0786762   0.7436532  47.4072189  14.8357401
   0.6812608  48.7942238  15.4384842   8.8088923  42.3503761  85.6922836
   9.7273445  42.3975754  85.4268646   8.7231159  41.4917297  86.1065369
  18.8499603  57.2793274  74.2099762  18.7494965  56.5909729  74.8674774
  19.0871372  58.0583344  74.7130966  56.7780647  51.3643570  38.7000504
  56.6697083  52.2869606  38.4691925  57.6766891  51.3024406  39.0238914
  72.3421249  23.0820599  42.6359711  72.7270355  23.9475918  42.7735710
  73.0632782  22.5499172  42.2998314  86.8308945   6.2004738  65.3538437
  87.1592865   6.3511348  66.2402420  86.3035049   5.4049168  65.4258118
  38.0063438  40.8926163  76.2784653  38.5142365  40.1805077  75.8896484
  37.6859970  41.3950920  75.5293808  53.0820427  25.9668446  32.0824928
  53.6370010  25.3492527  32.5587578  53.2900772  25.8141727  31.1607323
  43.4187660  62.6798019  84.5919037  43.2205811  62.0790176  83.8735580
  44.3683395  62.6217804  84.6976013  58.8612747  29.6281261  76.3641586
  59.1807251  29.2197895  75.5595169  59.5985451  30.1533928  76.6752167
   4.1053281  10.5586834  49.8937912   3.6898403  10.0330029  49.2102280
   3.3913207  11.0776300  50.2640877  65.7922211  52.6415863  27.6965103
  65.9127045  53.2920952  28.3882847  66.2444305  51.8621330  28.0192947
  64.0907822  60.1066513   8.2129583  64.0653152  59.1498260   8.2213230
  64.5146942  60.3421898   9.0382185  71.5692596   1.6369731  75.0618591
  72.4366989   1.5943294  75.4643097  70.9812164   1.8603889  75.7833328
  35.3706856  42.6419640  57.4623566  34.9481888  43.4991417  57.4078102
  36.1428719  42.7898560  58.0083351  69.1299820  10.8925085  24.1272049
  69.0130386  10.3340378  23.3586578  69.3947906  10.2904892  24.8226776
  19.2647133  37.4447517   2.9033799  20.1311245  37.2366295   3.2530222
  19.4353313  37.7742462   2.0210221  27.3260803  46.5541306  70.9121552
  27.9479122  47.2816315  70.9293900  26.8256512  46.6858101  70.1068878
  19.5893402   8.2547874  13.4413033  20.2771797   8.8967037  13.6175175
  18.7860241   8.7726841  13.3893604  14.8518829  27.5108547  63.2471619
  15.7114658  27.9023170  63.0918961  14.4733410  28.0360603  63.9522133
  48.9168243  54.4477425  14.9931860  49.2688560  53.7125740  14.4913568
  48.4509048  54.0386887  15.7224493  50.1655045  15.6395874  61.6772575
  50.7632027  14.9964027  61.2960701  49.2996750  15.3762112  61.3654823
  25.3296566  42.2420158  67.0179214  25.8291168  42.8015022  66.4231567
  25.1225872  42.8077965  67.7617188  68.5897903  51.8018303  40.2820396
  68.9023285  52.0854187  41.1411819  67.6966553  51.4963760  40.4409256
  64.5730438  66.4939041  37.5817680  64.2556458  65.8053513  38.1660538
  64.9529266  66.0225601  36.8403091  16.9181805  63.7432365  40.3831940
  17.0905075  62.8600388  40.0568542  17.5691185  64.2916336  39.9452820
  83.2303162  13.0676374   0.1475867  83.0691147  13.6478071   0.8916625
  82.4861069  13.2144413  -0.4362224  22.3715439  26.8527832  67.5746155
  22.4410286  26.0845394  67.0078659  21.4816914  27.1755733  67.4324799
  42.7078705  26.8911228  60.0001984  43.5472908  26.8389645  60.4572411
  42.9414215  26.9136047  59.0722008  82.0658569  53.6749992  46.0071182
  83.0155411  53.5552750  46.0098648  81.8993301  54.2854614  46.7253342
  12.7024393  57.2685814  34.1520576  12.9160023  58.1953087  34.2606735
  13.4674606  56.8049736  34.4927063  39.0319557   9.0572939  61.1091080
  38.6377525   9.3361607  60.2826271  39.8046951   8.5559645  60.8487740
  78.6756973   6.6055870  59.1100349  79.2731400   6.5098171  59.8517342
  78.7081451   5.7585340  58.6654243  35.0442886  59.9625282  38.4401169
  35.4918098  59.1728935  38.1360855  34.9185944  60.4862900  37.6488457
  45.3541794  20.1565552  88.4815674  45.0896034  20.9997349  88.8493729
  46.0316811  20.3762093  87.8420563  21.8572311  57.8471375  31.2354965
  21.7302246  57.0123596  31.6863251  21.0041504  58.2784271  31.2852364
  32.2726288  50.2319984  88.5343246  31.3355598  50.0371666  88.5210571
  32.3292694  51.1534920  88.2815857   7.9179678  67.5072327   3.7047195
   8.0767937  68.0154953   4.5001259   8.7809410  67.1764374   3.4555466
  75.8400803  42.1546745  24.1652927  75.3584747  41.9670601  23.3596344
  76.6361008  41.6275253  24.0967655  68.9446945  68.9435806  22.9714031
  68.0718536  68.6992798  23.2791252  68.8544846  69.8553543  22.6943531
  22.9137344   3.4456015   6.0762773  22.2728958   3.9918022   5.6210613
  22.5690556   2.5560675   5.9978099  31.6347866  57.3727608  64.1842575
  32.1657143  58.0605736  63.7826843  31.2551136  57.7854309  64.9600067
  31.1975956   2.0743811  64.3750229  30.4034138   1.7005219  64.7567825
  31.0640736   3.0209711  64.4237213  38.1104813   0.8350493   9.8662577
  39.0540237   0.9818246   9.7997999  37.7616959   1.1351777   9.0269098
  52.2449265  53.5241928  47.6970596  51.4540024  53.4900436  48.2351189
  52.8562469  52.9296532  48.1318512  28.7956600  60.2380829  22.6663647
  29.6194286  60.5183220  22.2674866  29.0525837  59.5713539  23.3033085
  63.8890038  13.0943508  58.0095940  64.6996613  13.1182337  58.5180130
  63.1966667  13.2318449  58.6561203  55.8446846  64.1464005  34.9145660
  56.3180161  64.3629913  35.7178574  56.5176811  63.8084183  34.3237381
  59.9331207  56.5127182  50.9417191  60.2890396  55.6849747  50.6186180
  60.3977356  56.6685104  51.7639694  53.9020615  14.7391672  25.2203922
  54.5228653  14.0129385  25.2789383  53.0576897  14.3197298  25.0550385
  70.1258392  25.4670544  42.9366455  70.0234680  26.3139572  42.5024681
  70.2635880  24.8462276  42.2212219  18.4975281   5.8563571  55.7232628
  18.8450470   5.9952941  56.6042595  18.5528831   6.7158728  55.3056488
  69.8998032   4.7261395  42.9682121  70.4802628   4.1293764  43.4406166
  69.7287216   4.2851558  42.1360474  60.4132919  41.0046158  60.7085953
  60.5959282  40.0810738  60.5355644  61.2058411  41.3295403  61.1358299
  77.1336060  51.4569626  38.3828125  76.7598572  51.1086807  39.1922874
  77.3569870  50.6809578  37.8688545  61.6998138  17.5275097   0.1328713
  61.2226982  16.7922955  -0.2519051  61.0739059  18.2516174   0.1212220
  28.1335583  47.9952736  58.0701408  27.2898483  47.6154251  57.8249893
  28.0791588  48.1071281  59.0192261  75.6250839  54.1636238  11.7040548
  76.5212173  54.4611740  11.5470982  75.5929718  53.9856644  12.6440191
  31.1924572  37.8507195  84.1668472  31.1720676  38.2138557  85.0522614
  31.1925259  36.9023895  84.2968597  74.3903122  71.2719650  13.0112047
  74.0527115  71.1593018  13.8997803  73.7141266  71.7777405  12.5604229
  35.2882385  17.5748711   0.7058079  35.1009216  18.1776638  -0.0137639
  34.6556816  17.8088093   1.3850540  85.2089233  67.9099426  43.1468773
  85.3289490  67.0447083  42.7554741  85.7835693  68.4838181  42.6402435
  76.6836624  70.0413971  50.7376747  77.6178055  69.8735809  50.6133728
  76.6517944  70.8400726  51.2642975  59.3254852  69.0960236   3.6718071
  60.2215691  68.8803558   3.4134345  58.9374771  69.4855881   2.8882754
   5.1402001  16.0501537   1.8950164   5.5983810  16.7768612   2.3171530
   5.2842360  15.3050194   2.4783340  59.4969330  35.6092300  25.5984783
  59.6011505  36.3742523  26.1642628  59.7634659  34.8695107  26.1443768
  53.0431709  29.7937222  68.9390640  53.5275421  29.3036366  69.6034622
  53.4232635  30.6718483  68.9646301  69.9249268  50.1172562  76.8736420
  70.6374207  49.7272606  76.3672028  69.2557449  50.3281059  76.2225189
  82.8652191  42.9342842  32.6195946  82.4230423  42.1066360  32.4306107
  82.9386368  42.9541893  33.5737686   4.8484650   5.9284410  12.3046751
   4.5854735   5.6109610  13.1685457   5.7704377   6.1646104  12.4067612
  82.4216232  26.3247356  75.7730255  83.2524643  26.2582855  76.2436905
  82.0197678  27.1261311  76.1084518  54.4330978   4.5987034  52.4912338
  55.1671791   5.1293926  52.8006325  54.8012581   4.0702929  51.7830887
  12.9119253   3.2965939  79.8017426  13.8233624   3.3424470  79.5129318
  12.7747860   2.3738785  80.0162659  45.5532799  39.5398827  21.0806084
  46.1989670  39.0628853  20.5592747  44.7447281  39.0378838  20.9782619
  61.4821587   6.7115626  23.2658710  62.2533951   7.2672057  23.1532230
  61.5808220   6.3397112  24.1423569  24.1866341  47.3037300  45.1956902
  24.9711933  47.7196198  44.8382874  23.7264271  46.9618988  44.4291458
  51.9776382  68.8741226   1.5757072  51.7744675  68.7976151   2.5079625
  52.9300995  68.9640808   1.5447434  18.0684261  17.8127956  20.3351250
  17.4201698  17.2736530  20.7882500  18.5388641  18.2623749  21.0371189
  56.9008026  38.1080284  15.4581900  56.1549568  37.8857422  14.9009342
  56.8327370  39.0545959  15.5831213  57.3022919  32.8183823   2.7582150
  57.4834061  33.3655739   1.9940094  56.6155090  32.2189522   2.4662411
  27.6438942   0.6549771  21.6806850  27.7006512  -0.2293513  21.3187809
  26.9026604   0.6192306  22.2852726  77.8762970   1.8130605  32.8191452
  78.6236954   2.3912644  32.6664848  77.6857147   1.4361113  31.9601803
  69.4271240  52.8180618  42.7972717  69.3264771  53.2038994  43.6674614
  70.2548752  53.1723785  42.4724426  79.2532272  24.9033298  14.2420607
  78.8684311  24.0369053  14.3742390  78.5507812  25.5139866  14.4654484
  73.2725601  45.8601837  35.1315308  73.2620697  45.1707993  34.4675484
  72.3945389  46.2397842  35.0965538  51.9577255  40.6062546  45.4389496
  51.9204559  40.2230034  46.3152809  51.3884964  41.3741798  45.4889641
  34.2428322  54.1956863  11.5000353  34.5896759  54.6967239  10.7618666
  34.0249672  53.3410187  11.1281338  34.5105553  47.3778496  20.7998009
  35.2469368  47.1646729  21.3729782  34.8401146  48.0784760  20.2370014
  10.5528946  19.3787537  22.3291225  11.4945021  19.4824352  22.4664421
  10.3157740  18.6182098  22.8597622  69.4414749  61.7560425   0.5977312
  68.9253159  62.1941566  -0.0789294  70.3449402  62.0133781   0.4139943
  20.6894608  46.4783592  85.3909836  21.1740131  45.7675858  85.8107910
  21.3627834  47.1086426  85.1348419  51.2998276   2.2494762  24.0105839
  50.5893478   1.8042806  24.4723740  51.2099800   1.9645492  23.1012020
  85.5118866  28.6001720   2.8045604  86.0546188  27.8189411   2.6979930
  84.7103195  28.2803020   3.2185676  28.7142811  43.8243294  52.2339211
  29.3429546  43.1531563  52.4994926  29.1592770  44.6529884  52.4114914
  71.3531723  63.4513741  18.3559933  71.5869293  63.5240517  17.4306240
  71.0254745  62.5570183  18.4507256  67.2849274  38.0265541  45.7632751
  67.4695282  38.7841606  46.3184242  68.1119919  37.5457382  45.7314529
  46.6723480  61.0994263  19.2951012  47.2902298  61.8301430  19.3176613
  46.7994232  60.6523895  20.1319065  56.3808365  66.5165482  51.8340073
  55.4745789  66.3170013  52.0687523  56.9041405  66.0780945  52.5049362
  80.2540359  41.8114204  17.6483002  80.4043808  41.8602257  18.5923595
  80.7681732  41.0562439  17.3626213  27.2350006  28.1114082   0.3459819
  27.6190033  27.3794289  -0.1366977  26.2901001  27.9767933   0.2733705
  71.1843262  43.8521614  41.5425148  71.1921463  44.5303001  40.8670158
  71.9432068  43.3046722  41.3410606  53.9383583  68.4480133  46.1142578
  53.2641258  68.4009323  45.4364471  54.1408653  67.5341644  46.3145294
  55.0582962  31.1562309  81.0326538  55.1652069  32.0946312  81.1882401
  54.7575455  30.8070812  81.8716278  66.2711792  69.6773529  66.6067200
  65.9282684  70.5363541  66.3602066  67.0937500  69.6001129  66.1233521
  56.8806267  28.8351192  69.1994705  56.5904999  29.6888485  68.8782120
  57.7831383  28.7569408  68.8902893  48.1017990  29.8027153  62.9860306
  47.4454384  29.8797932  62.2935829  48.3406410  28.8757935  62.9875450
  69.1681366  69.4357529  68.2654572  68.3527298  69.9364929  68.2897873
  69.6512299  69.7270050  69.0387802  46.4135208  61.9686356  58.5744858
  47.2085114  62.0500641  59.1013527  45.7382545  62.4095078  59.0901184
   9.4768248  12.0158920  11.4948349   9.2859030  11.3905535  10.7957401
   9.4964628  11.4857798  12.2915955   4.5818748  42.8509521  11.2008562
   5.0622582  43.2959442  11.8990307   3.7616498  43.3386612  11.1259995
  80.0249481  52.2056122  29.7161236  80.6161194  52.1992683  30.4689255
  79.2133865  52.5860252  30.0520992  52.2686081  33.5174675   1.7264051
  52.0458450  34.3757591   1.3659232  51.4356079  33.1663361   2.0411215
  85.4586411  71.7621689  59.9933014  85.5340347  71.0897064  59.3162994
  86.3590775  71.9163666  60.2790604  40.4198875  70.4649887   7.4512577
  40.2715492  69.5836563   7.1085038  40.8611641  70.3250198   8.2890625
  32.8344917  65.5243988  13.3830690  33.6790695  65.0963821  13.2426271
  33.0516052  66.3407364  13.8332710  24.7348175  69.3073730  24.2384357
  24.5191574  68.3799667  24.1402569  23.9769650  69.6834106  24.6861935
  74.1702499  11.8562450  54.6784439  74.8777771  11.7883377  55.3195572
  74.3486938  11.1567879  54.0498352   8.5165586  33.8019562  40.5812073
   8.5139408  32.8690224  40.7953415   8.0920238  33.8523140  39.7247810
  63.8245697  34.1426163  42.7126961  63.3150978  33.7316360  43.4110947
  63.2804909  34.8725624  42.4170761  57.0332756  31.8204918  72.6012878
  57.7868271  32.3263550  72.9054108  56.7649231  32.2540550  71.7911987
  70.1418686  46.5900002  55.4452705  69.4374466  45.9426651  55.4139290
  69.8816986  47.2579842  54.8109665   4.5955253   3.1761110  52.9766350
   5.1368175   3.3815136  53.7388954   3.7508638   3.5848885  53.1655235
  30.4963875  32.9462509  62.8009491  29.7232056  33.1662560  62.2813148
  30.1888142  32.2833023  63.4191170   4.2376723  16.4893131  32.5627899
   3.5787044  16.3519135  31.8822670   4.8834200  15.7986221  32.4138374
  60.0583305  40.5889320  86.9405594  59.6228828  41.4412689  86.9287262
  60.4553070  40.5107193  86.0730820  10.7836218  57.0438309  71.7310333
  11.4014111  56.3151474  71.7909241  10.9695387  57.5794563  72.5022507
   9.0643187  60.4363441  16.3172073   9.0604591  60.2690277  15.3747511
   8.3336363  59.9186707  16.6553612  69.8420410  26.8665180  68.4852600
  69.4995422  27.7600880  68.4639740  70.5422668  26.8627949  67.8326492
  49.0176697  65.1032104  31.0145912  49.8521919  64.6681137  30.8399658
  49.1912651  65.6578293  31.7751789  65.3190918  59.0735741  30.4105263
  64.4543915  59.4065475  30.1704082  65.9049225  59.8213120  30.2925472
  35.1355095  14.6504259  63.4002533  35.5053368  15.4118767  62.9534264
  34.9794388  14.0151129  62.7015038   5.8035398  64.3404236  80.7170486
   6.2199140  64.1180801  79.8843231   6.5086741  64.2787170  81.3614120
  67.3677368  12.7403021  85.9698486  66.7464218  12.1259747  86.3607483
  67.8406677  13.1096897  86.7155838  17.6370144  16.1161423  13.8352442
  17.3969231  16.0781040  12.9094248  16.8143101  15.9701309  14.3022242
  41.8352470  41.8569221   0.9557272  41.6250954  41.2973938   1.7033901
  42.6348038  41.4781647   0.5903752  28.5226688  43.2078094   5.9598107
  28.5937271  42.9649162   6.8829489  27.6048565  43.4551353   5.8471870
  17.8579941   6.2638106  10.8339529  17.2586746   6.9433756  10.5253448
  17.4835987   5.4467239  10.5046673  67.9289703  41.0260582  53.1488533
  68.7573242  41.1770020  53.6041336  67.2576294  41.2731934  53.7848244
  58.7961121  60.9262466  85.5246124  59.0086746  61.0221329  84.5962524
  58.9182472  61.8024826  85.8900299  16.7795887  70.3368530  55.7614212
  16.0440884  70.1682129  55.1724968  17.5456753  70.3579254  55.1879234
  52.7608719  66.2861481  41.1916924  53.2521706  66.7560654  40.5178719
  52.2174988  65.6671295  40.7040520  84.3387604  48.9682045  78.2770004
  84.3958588  49.8644524  78.6082306  84.0582504  48.4511948  79.0321503
  65.1375885   5.1535211  73.7169418  65.9843826   5.3127227  74.1338654
  65.0577774   5.8486404  73.0637436  51.7074165   6.5659709  87.8714981
  51.3851738   6.0212979  87.1533585  50.9177513   6.9445357  88.2579498
  22.7266769   1.7781110  63.8423157  21.9762917   1.1880486  63.7717476
  22.5165100   2.5041542  63.2550163  61.0753021  26.6273689  38.5953598
  61.8226013  26.2310715  39.0433807  60.3518066  26.5437737  39.2164879
  81.8495407  70.5242691  56.7861900  81.4124908  70.5956955  55.9375916
  82.7069321  70.9270096  56.6486740   1.0327127   9.0456028  22.8107834
   1.1675549   9.9566040  23.0717964   1.4884387   8.9665976  21.9727478
   2.2234306  12.4422722  49.5850029   2.2449481  13.1838360  50.1898613
   2.4142389  12.8257790  48.7290001  63.8660622   6.4527330  70.0697021
  64.2548141   7.3180356  70.1975937  62.9681129   6.6323862  69.7910614
  81.9004745  36.8430061  40.3488083  81.7008743  35.9459190  40.6164360
  82.3412857  37.2266579  41.1069183  54.9199066  22.7744408  62.9259758
  54.3292007  22.5718689  62.2005348  55.5871506  23.3420563  62.5401878
  79.0992661  56.1390533   3.2862136  78.9903336  56.9575310   2.8020055
  80.0376892  56.0919228   3.4689012  19.4405212  58.5387421  57.0125351
  20.1620617  58.7690659  57.5978203  19.6013565  59.0518379  56.2206383
  82.0819321  69.6552734  83.2178802  81.2690735  69.7054291  83.7208557
  82.4541473  68.8040924  83.4484940  60.3783188  63.3192711  10.6670189
  60.5025749  62.7263145   9.9259443  60.2189445  62.7406120  11.4126635
  59.2464333  27.5423050  10.4924955  59.2612000  26.9281826   9.7584190
  59.8766441  28.2207069  10.2499352  53.8160667  44.5323524  21.6671467
  52.9522629  44.4760246  21.2586060  53.6822815  45.0887070  22.4344826
  40.2805519  39.9327202  68.8572998  40.4674721  39.9106598  69.7958145
  39.7852554  39.1303177  68.6928024  52.0559959  30.1804390  33.8335915
  51.4260101  29.9592018  34.5194511  51.6924324  30.9620571  33.4175072
  56.1509018   3.8727117  85.0588760  56.3545113   3.9105830  85.9934006
  55.4540291   4.5179124  84.9392319  74.1521530  51.7846336  38.6464119
  74.7329254  52.2503891  39.2480850  73.2867584  52.1592216  38.8107414
  33.5599327  44.8561707  64.9318466  33.0530968  45.4903030  64.4246674
  34.0707779  44.3796005  64.2775116  23.3264484  42.6564217  64.1734772
  23.2381306  43.2441826  64.9237900  23.5103474  41.8003426  64.5601807
   0.2652660  25.9521408  36.5969925   0.9435340  25.9783211  37.2719002
  -0.4515605  26.4741211  36.9574509   1.2907724   2.2641001  68.1665115
   1.0217701   2.2979326  67.2485123   1.1922487   1.3439656  68.4112091
  52.0056534  11.5107594  74.0098419  51.4247856  11.6494112  73.2617798
  51.4181709  11.4662151  74.7642365  57.5333748  17.0290718  87.5920105
  57.3372154  16.9090538  86.6628418  58.3360367  17.5504780  87.6019440
   7.3596497   7.6507516  81.3274536   7.3628078   7.2891812  80.4411774
   6.7697678   8.4029112  81.2771759  53.6741791  71.3968582  34.5131721
  54.3235054  71.8536148  35.0479469  54.1920586  70.9030533  33.8774147
  16.7348900  36.9463387  65.9858627  16.2877979  36.1251373  66.1907272
  17.1687469  37.1930656  66.8026428   0.1302546  37.1500969  76.3019333
  -0.4909593  37.4143143  76.9805450   0.6682087  37.9278374  76.1537399
   9.6817980  28.0737953  12.5224018  10.0674496  28.9131699  12.7733078
  10.3869953  27.4389572  12.6485319  49.5366020  15.6517277  83.4027328
  48.7101898  15.3499918  83.0255966  49.8425522  14.9140396  83.9304123
  71.0439377  59.8966103  15.5366011  70.9860229  58.9411964  15.5286055
  70.4014816  60.1700325  16.1913700  76.6528168  21.6293182  17.8721962
  76.6339340  21.0554028  18.6380291  77.3458023  22.2612953  18.0635262
  28.4987564  40.7647667  73.4629517  28.2033749  40.1373062  74.1227036
  27.9940796  40.5444870  72.6800079  73.0948257  46.5369377  87.4927597
  72.9916763  45.9423180  88.2357407  72.4608765  46.2253456  86.8468094
  72.6246338  66.9507370  63.8422279  72.0904083  67.3200378  64.5453949
  72.4210815  67.4902344  63.0781975  14.0859919   8.6154242  11.7276945
  14.1511717   9.3681364  12.3154097  13.9388981   8.9987230  10.8630114
  73.0369644  56.7411270  75.8973541  73.5662994  56.0955009  75.4291611
  72.6732941  57.2975273  75.2085953  28.7611160  11.5311470  14.0222712
  28.9226284  12.2500591  14.6332617  28.5351162  11.9631109  13.1985216
  38.1760445  20.3133087  72.9574661  38.9492531  20.7270126  73.3411713
  38.5287971  19.6506844  72.3635635  54.9132805  26.2982521   8.3382931
  55.5002060  25.6600018   7.9328475  54.3467979  25.7758274   8.9060993
   9.5030537  26.8906727  27.7915573   9.9697943  27.5822220  28.2607536
  10.1940680  26.3147182  27.4644375  47.5201683  28.2394886  79.9093018
  47.9770126  27.6418495  80.5012054  46.9626656  28.7651291  80.4829941
  60.4930000  53.8955078  34.8398399  61.1717529  54.3656158  34.3555565
  60.6329041  52.9753914  34.6161423   2.4944351  37.3320923  42.6124687
   1.8973808  37.4942322  43.3428574   3.3367116  37.1475029  43.0280762
  12.6779003  40.1376495  21.8485565  12.1582031  39.4692764  21.4019871
  12.2394924  40.2588196  22.6907845  53.3889236  31.6787128  88.9904404
  52.6587219  31.2977142  88.5027084  52.9835625  32.3413506  89.5497513
  71.4531021  50.4119682  69.3705215  71.0284042  50.9387054  70.0475922
  70.7601471  50.2362061  68.7340012  44.2399750  38.7631416  86.1209335
  44.8132858  38.0908737  85.7526932  43.7888298  38.3243599  86.8421631
  63.1655655   6.0545273  87.1876297  62.7676392   5.3479400  86.6790848
  63.6728210   5.6062546  87.8643723  79.2958679  47.9115334  44.9767418
  79.6797485  47.4723396  45.7356758  79.1983109  48.8232193  45.2515907
  15.0112934  55.3171692  49.6365585  14.3019238  54.9264145  49.1263275
  15.7544956  54.7288780  49.5031548  63.3693848  53.8823204   7.8163052
  63.2026520  53.9377480   8.7572403  63.2962570  52.9494629   7.6146474
   7.9886575  46.6213264  69.9416428   8.5422935  45.8472862  70.0445099
   7.1966314  46.4170914  70.4388504  73.3639374  31.0547752  55.2282257
  73.2281723  30.9364281  56.1683311  73.4890289  31.9977036  55.1211281
  19.8446865  65.4227905   6.9291568  19.7878666  64.4968643   6.6932120
  20.5427551  65.7691879   6.3733339  73.3817215  24.3082752  53.7877312
  73.0981064  23.5397301  53.2926254  73.4378128  24.0026379  54.6930885
  59.9892159  56.9559097  38.1921120  60.8352890  57.4033318  38.1777649
  60.0504570  56.3514214  38.9317589  33.0201530   0.7159433  29.6662540
  33.2394562   1.6424836  29.5679626  33.8624344   0.2638981  29.6167850
  62.1120148  21.1052837  15.5405207  62.8305473  21.3910904  14.9763775
  62.2114906  20.1546593  15.5919991  75.4882202  63.4248619  15.2449903
  75.6937637  63.9726639  14.4874306  75.9617691  62.6083984  15.0857067
  13.5276279  57.3619843  56.2554398  12.8573866  56.9520035  55.7086983
  13.5809822  58.2621460  55.9343567  50.2921982  71.1455688  58.7490120
  50.6798706  70.3239288  58.4475975  50.9208679  71.8177261  58.4859390
   3.0083022  36.2726631  52.0070839   2.6199789  35.5977554  51.4503593
   3.8459933  35.9016685  52.2843323  51.1154747  20.1098995  12.7321453
  50.7952385  19.6205349  13.4899073  50.5364151  20.8699913  12.6757498
  11.1023159  63.5980301  83.2994843  11.1148911  62.7524185  83.7478256
  11.2624531  63.3841972  82.3803253  66.9726791  25.1310310  55.8875465
  66.6282654  25.9859867  55.6293488  66.9308777  25.1348343  56.8438263
  65.6566467  71.3375168  35.0159073  65.2744598  71.3645325  35.8930817
  66.2390060  70.5780258  35.0316734  54.7993431  41.8931046  44.8226929
  55.3577385  41.4182739  44.2070923  54.2342339  41.2199097  45.2017632
  51.6448097   2.1684570  87.3344955  52.4322662   2.4624691  87.7924347
  51.1322517   1.7170064  88.0050964   1.5985272  18.5345764  51.7621574
   0.9059312  19.1749630  51.5995216   1.5584598  17.9425011  51.0111084
  62.6806793   7.8484664  41.7162094  63.0563011   7.2732778  41.0496559
  62.7048111   7.3304520  42.5207672  65.3467178  11.9358377  41.3252563
  64.4293365  11.6837378  41.4306068  65.6647491  12.0615540  42.2192802
   2.3489599  18.1172600   8.9502592   2.8602140  17.4450703   9.4008293
   1.6777433  17.6285458   8.4739609  29.0536518  33.3371048  72.0481491
  29.8171463  33.6675110  71.5747070  28.3124905  33.5361252  71.4760437
  14.8110924  29.5850143  26.1021023  14.9057932  30.5314217  26.2097034
  15.6681223  29.2922440  25.7922344  64.0784988  70.6378326  10.8996344
  64.0093231  69.6832275  10.9129496  63.8780441  70.9050293  11.7966595
  66.1293030  32.0692596  10.5429192  65.7808151  31.7873497  11.3886805
  66.1104507  31.2803764  10.0011263  69.6066666   9.0862160  26.1784229
  68.7355499   9.2344160  26.5464211  69.8889771   8.2543917  26.5586910
  42.6462097  65.7266235  53.6776276  42.2287025  65.5454178  52.8355560
  42.0443840  65.3622513  54.3266830  16.1522064  17.7848206  67.9598465
  16.9833469  17.3207741  68.0603256  15.6633186  17.2650814  67.3218079
   6.2492757  28.6800995  38.2159653   5.8812871  27.9824486  38.7582741
   6.5493383  29.3379879  38.8431625  70.7092361  63.6013680  74.4777298
  70.3747787  63.5225563  75.3711243  69.9936905  63.2863808  73.9254456
  80.7080307  50.7655830  61.8759651  81.0708923  51.6381798  61.7238503
  81.2950058  50.3712234  62.5210762  37.6650085  63.9876366  79.1831055
  38.1560135  64.4978485  79.8271713  38.1780243  63.1874924  79.0699005
  67.0436096  13.3525810   5.5789499  67.2738495  12.8465824   6.3581729
  66.8238831  12.6927862   4.9212098  18.0266094  70.2153549  50.7809296
  17.1633339  70.2287216  50.3676376  18.2773590  69.2915802  50.7820168
  50.5495796  39.2174034  81.6788559  50.9057808  39.6037254  82.4789200
  49.7143173  38.8355370  81.9485703   5.5233922  69.3794708  87.6220398
   5.6691365  70.2114944  88.0722961   5.9974480  69.4683151  86.7952347
  64.6533127  17.7639027  72.9178085  64.2522583  18.5979385  73.1622849
  65.5534897  17.8283768  73.2367935  79.2581329  69.0830383   7.6217465
  79.7408829  68.5281677   7.0091262  79.3514481  69.9676743   7.2682700
  81.1469574  21.3858528  32.3715057  80.6824646  20.5489922  32.3595963
  81.9945145  21.1950989  31.9696369  50.3913231  20.3789291  16.4758873
  50.5821419  21.1502533  15.9421482  49.9573402  19.7732639  15.8750038
  50.2309837  33.8695679  77.1936874  50.8981667  34.5520973  77.2661591
  49.8124084  33.8514442  78.0543213  80.0888519  65.6296463  23.5719891
  79.7227707  64.8300552  23.9499626  80.7524872  65.3209457  22.9551277
  69.6085205  25.9999695  49.9459991  68.7939987  26.2799797  50.3635979
  69.6971741  26.5738983  49.1850929   3.9984510  64.7756348  84.8175659
   3.8798296  65.1624832  85.6850357   4.8202014  64.2890930  84.8826218
  70.6315689  52.7576294  78.6595383  69.6827774  52.8745880  78.6110458
  70.9556732  53.5794182  79.0281219  10.8470764  29.4653969   1.3506453
  10.5503321  29.1598873   2.2078722  11.7971640  29.5411739   1.4390970
  83.7727203  57.1144218  14.2039566  83.3182068  56.5910759  14.8640738
  83.3429184  57.9690132  14.2382412  15.3247461  59.4834251  49.7115479
  14.6641665  59.2076111  49.0760994  14.8881054  59.4060364  50.5598335
  80.2110138  18.0464249  12.7668600  79.3394470  18.4316788  12.8573465
  80.4555740  17.7953987  13.6575947  74.2673340  19.4787502  22.3222790
  73.6357803  20.0844574  22.7102070  73.7428589  18.7231998  22.0571404
  18.6707134  51.1261711   9.2045431  18.2212124  50.7425423   9.9575443
  19.5855350  50.8666229   9.3139496  85.6795654  37.0344086  45.2675781
  85.0652466  37.1793900  45.9871826  86.2527084  37.8008766  45.2838440
   3.0234878   8.3539419  34.0306740   2.3817711   7.9170785  33.4706879
   3.6061947   8.8054533  33.4200821  62.6918488  35.4536858  65.7574615
  62.4777374  36.3641777  65.5540161  62.6390114  35.4027176  66.7118454
  63.9177361  64.1817856  15.4666624  64.2080383  63.9763298  14.5779886
  63.4824677  63.3839035  15.7669220  69.3268661  31.8194180  72.4361267
  69.1550369  30.9855976  71.9985733  70.0112228  32.2304802  71.9080048
  44.6941414  10.9336872  82.0661774  43.8223534  10.9283695  82.4613800
  45.1692123  11.6141262  82.5431900  51.2883949  31.0945530  16.8208275
  52.2339897  31.1183109  16.9674988  51.1850815  30.6089287  16.0024586
  82.6198425   5.6115203  81.1154251  82.6367798   5.0060229  81.8565903
  81.7162781   5.9258361  81.0835342  71.7916565  54.4025345  42.3079720
  72.5898056  54.4853668  42.8298225  72.0401917  54.7167664  41.4386482
  74.9544678  40.8054352  21.8999233  75.6635056  40.3749504  21.4222412
  74.3696213  40.0918465  22.1548424  33.9323120  38.9419212  70.2617874
  33.9422760  38.2472267  69.6033554  34.2647133  39.7127151  69.8017654
  76.3627548   7.3594022  17.9817924  75.4149170   7.2465453  18.0532284
  76.5764999   8.0155487  18.6451302  10.9485817  16.7209301   8.6962538
  10.3013048  16.0900612   8.3811817  10.6313925  16.9772854   9.5622244
  23.0215225   6.7052236  22.6456184  23.5811367   6.2894173  21.9897461
  22.1464119   6.6900983  22.2580814  39.6179466  60.6195641  65.2933197
  39.8557854  60.1505089  64.4935379  40.4471245  60.9651527  65.6238708
  58.7546921  23.6877995  25.1889763  58.9618530  23.5507793  24.2645626
  59.1984940  24.5051460  25.4152889  52.9888039   9.3769188  67.1733170
  53.4756699  10.1747599  66.9668198  52.4160995   9.2435589  66.4180298
  50.9785538  20.6386719  55.0357208  50.1321449  20.9103680  55.3906898
  50.8630028  19.7125435  54.8232002  76.1757584  31.9718342  81.1153717
  75.5902863  32.0822372  80.3662033  76.8580551  31.3787613  80.8007812
  57.2487183  38.4959984  72.0801926  57.4500351  38.6007195  71.1502838
  57.8757324  37.8419037  72.3888168  18.9487438  16.0193062  27.3057423
  19.0383453  16.8540306  26.8459206  18.6600266  15.4042397  26.6315250
  18.5046501  54.2091827  47.3724861  18.9531212  54.9001274  47.8600311
  17.9800129  53.7534332  48.0307236  25.9082451   3.0450232  76.2956314
  25.2180099   2.9882071  76.9563751  25.4576797   3.3366544  75.5030594
  26.8573704  20.1182556  52.8207016  27.2066269  19.7525902  53.6334381
  26.1261463  20.6688976  53.1005898  64.4042282  59.0069046  18.9459248
  64.6634827  58.3338890  19.5752678  63.4503441  58.9399300  18.9029655
  56.1284447  40.4462051  29.8297272  56.2757263  41.1758690  30.4314976
  55.9324074  40.8634186  28.9908409  67.1139526  65.6131287   3.1960192
  66.7517929  65.2399292   3.9996350  67.9381256  65.1444321   3.0644963
  82.6866608  67.9634857  39.9462280  81.9814148  68.6055679  39.8650284
  82.5279083  67.5386658  40.7891731  19.9370632  45.7781372  78.8395767
  19.1497707  45.6362572  78.3139572  20.3231544  46.5775528  78.4816589
  84.6404572  32.6862335  29.6601868  84.7721252  33.5103111  30.1290073
  85.4774551  32.5212746  29.2260666  86.5402908   6.1781816   9.9155397
  87.2741776   6.3424587  10.5076990  85.7647858   6.4171300  10.4232092
  66.7474365  64.5313492   6.4888639  66.6112900  65.1838608   7.1758313
  67.5513077  64.0788116   6.7442861  50.9324951  64.5460892  59.6566658
  51.3658257  65.3665543  59.8918343  51.2127151  63.9257660  60.3296471
   9.6024237  16.9823971  50.8011398   9.7675877  16.0857830  51.0927467
   9.3658867  16.8942318  49.8778267  15.9582081  51.9219589  54.9469948
  15.5997887  52.4540672  54.2366219  15.4949436  52.2227287  55.7287598
  84.3302460  30.0821285  34.9156113  85.1719742  29.9534149  35.3528290
  84.4578857  29.7198257  34.0388680  71.5903168  35.0233498  18.5990810
  71.4985962  35.4067917  19.4713135  72.3384552  34.4311333  18.6752548
  35.9042778  10.1177216   0.7798887  35.5281067   9.2660770   0.5575609
  35.4374809  10.3865414   1.5711344  38.6057701   0.4312922  49.2354965
  37.9229660   1.0266941  48.9264603  39.1545906   0.2765765  48.4666710
  36.1835365  39.0123901   9.2254009  35.7957878  38.2003441   9.5516863
  36.1884766  39.5969162   9.9833813  50.0258179  19.2623596  79.9817886
  50.8481979  18.8554726  80.2544937  50.2929878  19.9856510  79.4145966
  39.1781464   4.9689908  36.9472809  38.4622650   4.6152701  37.4751358
  39.2282257   4.3856864  36.1899986  85.4258728  35.4372749  62.5905991
  84.8563690  35.9750557  63.1407700  85.6187134  34.6675415  63.1259079
  67.8542557  47.1970215  48.6828308  68.0001602  47.5730400  49.5509071
  67.0903168  46.6307869  48.7924004  68.2956543  46.5953522   9.3181105
  69.0658875  46.9715652   8.8921566  68.6531143  45.9994469   9.9764023
  43.0372200  52.7903481   4.9663782  43.5347404  52.0611687   4.5962358
  42.9733086  53.4239197   4.2517219  18.9590454  66.8670654  21.7733784
  18.2123451  67.4639130  21.8227654  19.6984921  67.4275055  21.5381088
  18.6919441  59.0793533  13.1653090  17.9576626  59.6387367  13.4185925
  18.4976444  58.8226166  12.2638855  26.8828220  14.1236954  18.4842072
  26.2312756  13.4864902  18.7769356  26.4878845  14.5338402  17.7147694
   1.7631027  39.3130531  82.4398041   2.0661530  40.0917892  82.9066696
   0.9218650  39.1029434  82.8452759  19.7239456  49.2931938  39.8032036
  18.8556595  49.6960411  39.7981949  20.2970238  49.9639015  40.1746368
  17.1823444  63.2551498  20.9588013  18.0903187  63.1611862  21.2468739
  17.1759415  62.9036674  20.0684910  55.8779984  64.2525482   3.3705792
  55.1453400  63.8994522   2.8658316  56.2317352  63.4969902   3.8398716
  39.2785568   9.9424868  72.8449326  38.6226234  10.1498909  72.1793747
  39.3629379   8.9896793  72.8093185  32.0704842  62.1471519  23.5524712
  32.9564667  61.8026581  23.4402523  31.9090862  62.0907707  24.4942818
  55.0106163   2.3379638  11.8198366  55.5402946   2.5625467  11.0548315
  54.6723022   3.1773233  12.1316891  80.5023270  24.8627968   8.6498566
  81.4159546  24.7997150   8.9283075  80.1291809  25.5468407   9.2058048
  73.8646317  13.1057959   6.3671255  73.1431046  13.7267733   6.2670650
  73.8239288  12.8372040   7.2849674  85.6692581  69.7545166  58.1951904
  85.4753647  69.6851807  57.2603989  86.5730515  69.4496765  58.2755890
  74.8971786   1.6734176  39.3081360  75.4806442   2.3505635  38.9656792
  74.0179062   1.9813581  39.0884209  49.9127388  54.0984268  80.9111404
  50.4669037  53.6469536  80.2745056  50.0158920  55.0269203  80.7025986
  73.0538635  34.3049126  57.4125366  73.0074768  35.2467003  57.2478561
  73.8789749  34.1842957  57.8824997  74.3297348  59.5134735  69.3482208
  74.5496063  58.7012177  69.8044281  73.7555542  59.2387695  68.6333084
  68.1961746  57.7690468  29.1777306  67.6788254  57.9851685  29.9535370
  68.9940872  57.3706055  29.5253048  11.7047033  25.8422832  26.6506710
  11.4831944  24.9783649  26.3030949  12.1510773  25.6604824  27.4776726
  65.7186203   0.5360174  65.6310577  64.9766083   0.9286534  65.1711807
  66.0799942   1.2500863  66.1561737  43.1065445  55.3613434  19.0325832
  42.5604362  55.2661476  18.2522392  42.5073814  55.2117920  19.7639332
  24.2231541  20.9251328  81.2645950  24.8703938  20.4384918  81.7749786
  24.6342583  21.0452099  80.4085541  49.9194183  46.9348145  55.9904137
  49.6015396  47.8320160  56.0914574  49.1331940  46.4217491  55.8037376
  50.3060188  43.8336449   2.5435462  50.9331284  44.2287788   1.9378762
  50.5774422  44.1458015   3.4067495  22.6050358  63.8329697  23.6139736
  22.4879589  64.7146912  23.2602882  23.5040054  63.8241501  23.9426174
   3.0727973   6.5360599  71.1647797   2.2426107   7.0098844  71.2149048
   2.8473864   5.7005391  70.7557297  59.2565269  58.0069923  82.0341644
  59.1370468  57.8783989  82.9751358  59.6048355  57.1723404  81.7206802
  20.2673111   2.4537458  36.6801529  19.6653366   2.0107446  36.0821495
  19.7055378   3.0192454  37.2101097  42.4302788  17.2856598  88.5173798
  42.3251495  16.5265541  89.0909119  43.1507416  17.0471649  87.9340439
  82.3131180   2.1334357  16.7882996  82.6020508   2.3025804  15.8915606
  83.0712433   1.7313958  17.2123909  60.6965446  28.2020817  50.9943771
  60.4153938  27.5725384  51.6583519  60.6557770  29.0503025  51.4360657
  82.0615082  32.2330132  72.0444107  82.5438232  32.2838974  72.8696442
  82.4325562  32.9325256  71.5065994  42.3086319  52.4047508  33.0061684
  43.2392311  52.6242218  32.9609680  42.0543938  52.6228371  33.9028473
   7.9159112  38.0626564  14.5140295   8.6501961  38.1655388  15.1193991
   8.2549343  37.4970322  13.8202248  12.9831266  57.8571129  28.1803207
  12.0591803  58.0904045  28.2704906  13.4075546  58.6659431  27.8941536
  43.9891739  50.2091408  34.4816780  44.1293221  49.2729797  34.3395729
  44.6003761  50.6366081  33.8817291  65.2084122   5.0261741   4.1793866
  65.1791840   5.7044840   4.8541255  64.6724777   5.3740644   3.4666607
  61.0628738  44.6928291  75.2754745  61.0026207  44.7832489  76.2264862
  61.3771858  43.7990189  75.1392975  23.8300838  19.4498501  14.1137190
  22.8730755  19.4322968  14.1215115  24.0831528  19.0908833  14.9642086
  48.8315544  54.0358086  83.7587204  49.1619873  54.0138054  82.8606339
  49.3131523  53.3413620  84.2082062   2.8323567  56.1820221  57.4865036
   2.1406856  55.6439781  57.1013641   2.4126420  56.6159706  58.2293091
  60.8362007  21.4064579  68.5317535  60.2986069  21.8219299  67.8575058
  60.8757935  22.0516129  69.2377548  60.0431175  65.1829300  81.3956375
  59.5837364  65.9751205  81.1170044  59.9533577  64.5814819  80.6564331
  42.9839134  34.3826218  62.2146873  43.2849846  33.7425461  61.5697937
  43.3289680  34.0631065  63.0484047  28.1134109  67.1672821  69.0643692
  29.0620232  67.2104874  68.9439621  27.9989052  66.7384949  69.9124603
  43.7302704   6.1560078  14.9081793  42.8999062   6.4311471  14.5195589
  43.5029602   5.8988366  15.8017263  70.4407272  13.7966557  80.7687302
  70.7807236  13.9024639  81.6572342  70.1118698  14.6641960  80.5332260
  80.1939392  66.8248672  72.3725510  80.9367599  67.3462296  72.0681992
  79.4371490  67.4011917  72.2660141  35.8524475  53.8445091  32.1218910
  35.7647057  54.4807777  32.8316078  36.7308769  53.9948959  31.7726364
  85.0113983  19.9659157  63.3020630  84.4600372  19.3074799  63.7247849
  84.4454880  20.7331772  63.2166901  19.2035046  56.8947868  60.7402878
  19.8625984  56.7547417  60.0604248  19.5092468  57.6679192  61.2146492
  50.1924553  64.4813232  55.2954979  50.4272804  64.8702774  54.4529991
  50.9613609  63.9689026  55.5453644  67.0647354  64.6874695  16.4338646
  67.6360550  64.3713608  17.1338005  66.9858170  63.9446983  15.8352890
  48.7742500  46.8661423   0.3850184  48.3788834  46.7412758  -0.4777243
  49.6995583  47.0301399   0.2029779  73.7951202  19.9506512  75.5177536
  74.0526810  19.6054039  76.3725586  72.8774109  19.6955662  75.4230423
  38.1911240  21.5734215  69.9704742  37.7005692  21.5427074  70.7918472
  37.8065224  20.8789330  69.4356842  72.0189514   4.1871090  15.3591661
  71.3424377   3.7209506  14.8679943  71.6507187   4.2885303  16.2368622
  70.5649872  56.5840836  80.6035919  69.6499405  56.3450241  80.7511520
  70.7871094  56.1762352  79.7666016  26.0621948  46.8830414  86.8233185
  26.4546432  47.6947823  86.5019226  26.7695084  46.2398567  86.7758560
  73.5663834  61.0128784  64.7162476  73.7630692  61.5376167  65.4922638
  74.0678787  61.4267998  64.0138168  39.4171829  25.6793518   6.7165427
  39.5661964  26.5685291   7.0380878  38.8910713  25.7957745   5.9254150
  79.0445328  20.8397198  57.7011261  78.2052383  20.6340275  58.1128387
  79.6528244  20.1948223  58.0621262  27.2462616  19.8187675  75.1150436
  27.6197891  19.6546745  75.9809418  26.2998886  19.7658367  75.2484894
  67.9490891  41.8591805   2.4505658  68.6311417  42.3177109   2.9412653
  68.2499237  41.8838005   1.5422019  30.6801414   0.2164509  16.6254387
  30.2885208   0.0219003  15.7739611  30.0455704  -0.1130330  17.2618294
  10.5711479  61.9902039  39.2949142  10.9655056  61.5405769  40.0422745
   9.6292000  61.8643379  39.4094620  76.8703537  59.1114349  64.7934418
  76.9489212  59.3927116  63.8818817  76.5994873  59.8993187  65.2647171
  21.5951595  58.4852066  71.5438385  21.5618763  58.1853981  70.6354065
  20.8010578  59.0084648  71.6526108  77.2923813  41.4039726  67.6070862
  76.6775742  40.6809464  67.7315063  76.9544296  41.8776321  66.8470383
  10.6709671  16.3571072  73.6957626   9.9108791  16.3238163  73.1149139
  10.3644562  15.9661617  74.5139618   7.9471493  34.7089882  75.9748383
   7.8281837  33.7806549  75.7741547   8.8221655  34.7606773  76.3594208
  24.3073082  20.7966251   7.9511738  24.2326813  21.7371387   8.1127119
  24.2662373  20.7132320   6.9984984  71.5898056  22.5307121  56.5213127
  71.1139908  23.0688820  55.8886986  70.9047623  22.0906410  57.0245895
  16.3361530   7.5281653  74.5015869  16.3962765   8.3799658  74.0690842
  16.7648525   6.9219990  73.8974228  65.9678879  26.3555355  87.5420532
  65.5838470  26.5270081  86.6822052  66.6823273  26.9882927  87.6157684
  61.2279778  41.2654419  19.0802879  61.2955513  42.2172318  19.1561890
  61.7511406  40.9293900  19.8080254  69.0043793   5.0626984  26.0051270
  68.6720352   5.3219047  25.1457157  69.5800323   5.7815561  26.2660923
  45.1369362  65.3782578  40.9885483  45.7870445  65.4906235  40.2950325
  45.3471260  66.0600967  41.6266327  41.5046997  64.4602127   7.2672930
  42.4617157  64.4647675   7.2490849  41.2687416  63.5335197   7.2249484
  72.9816513  69.9420624  71.7025681  73.6087189  70.5908203  71.3829803
  72.3791809  70.4422226  72.2531204   9.9398069  38.4840851  30.7944717
  10.5769320  38.4359245  31.5072021   9.0909796  38.5287895  31.2346134
  23.2413254  69.4778290  88.8116379  22.5432377  68.9438553  89.1908188
  23.5108376  70.0595551  89.5224075  54.6499634  28.2507973  53.4019241
  54.0310364  28.1826286  52.6749344  54.8307762  29.1878834  53.4754753
  43.2882729  32.1082649   8.7858295  44.0466690  31.5246372   8.7647629
  43.6630669  32.9888191   8.7661266  71.8004837   4.1249013  73.2683868
  72.7187576   4.3690047  73.1525116  71.7984619   3.5601780  74.0412445
  39.7758293  58.3715820  58.2325783  40.3645630  58.1066628  57.5258636
  39.0860825  58.8708000  57.7952423   2.5999041  26.5428524  48.7078857
   2.2090402  27.3875008  48.4842224   1.9038516  26.0701904  49.1643219
  71.4374390  35.4539185   9.0071621  72.3941193  35.4808846   9.0234890
  71.1677856  36.1718903   9.5799103   8.5070124  59.4085045  39.1115723
   8.3862324  59.7705345  38.2337456   7.6952872  58.9330139  39.2883263
   4.1620317  56.0312157   6.7028174   4.6353331  56.8244629   6.4518628
   3.2909300  56.3405533   6.9512606  15.8680191  37.4383163  44.4512329
  16.3767242  37.9716644  43.8404999  15.4313993  38.0740814  45.0181503
  64.2053833  32.8705177  51.1590691  64.1685867  33.7824020  50.8703766
  63.8540230  32.3714790  50.4216843  56.6648254  32.9844513  24.9446011
  56.3114967  32.6556320  25.7712021  56.0373116  33.6505775  24.6639996
  55.7550850   4.1656699  61.4197502  56.0337639   4.7827301  62.0963631
  55.5203094   3.3723285  61.9011230  55.6859169  36.0947113  71.7196503
  54.7736206  35.9683838  71.4589081  55.7886581  37.0445137  71.7792664
  78.2748337  40.3308525  49.3864479  77.8977051  41.2072906  49.4630547
  78.0227966  39.8899040  50.1977882  60.0640526  15.4096603  47.8389206
  60.7404251  15.8737917  47.3456268  59.4097519  16.0796661  48.0369377
  11.7590694  67.3772659  16.1479912  12.2949581  67.0936966  15.4072876
  11.2851114  66.5900192  16.4160004  38.7647171  60.9977531  79.0087814
  39.6974487  61.1340828  79.1750946  38.5981369  60.1011238  79.2995377
  76.1461334  53.3769302  74.3568497  75.8954010  54.2986298  74.2949066
  76.7664795  53.3458900  75.0851593  75.8579102  24.3621998  25.2351513
  76.1054993  23.4376831  25.2492599  74.9007492  24.3538876  25.2380562
  66.2373428  57.9865227  82.9588013  65.6235123  57.6563416  82.3027344
  66.8142548  57.2449341  83.1417007   6.7989054   8.0939665  68.9676208
   7.5303798   8.6415300  68.6824036   6.0581284   8.6970167  69.0293655
  10.0595093  66.3285294  44.7031403   9.9851294  66.3079376  43.7490578
  10.7806816  65.7307510  44.9001160  59.8334541  46.0133667  30.7896595
  59.8346825  46.4909477  31.6192055  59.4995346  46.6433945  30.1510696
  81.1298599  41.7028580  43.3579140  80.2738647  42.0962067  43.5275536
  81.5658188  41.7012215  44.2100716  62.0102196  24.8193874  19.6962891
  61.9868088  24.8256245  18.7393970  62.4807739  25.6196270  19.9295826
  -0.2133549  26.1525917  69.7864456   0.1408396  27.0306568  69.9270782
   0.5543016  25.6113815  69.6019821  19.0126457  13.7916813  25.5317707
  19.0930405  13.0104952  24.9844894  19.9020634  14.1419849  25.5813122
  45.6516724  19.3693829  84.2420883  45.7408485  18.8879852  83.4195709
  44.7066383  19.4467716  84.3730621   5.4083190   0.9497306  85.6477966
   5.2670159   0.2425310  85.0184021   5.6724014   1.6978145  85.1121979
  43.7180443  66.8518448  33.1434364  43.0670013  66.5298462  32.5199852
  43.2424583  66.9229355  33.9710808  61.5722733   2.4761202  19.7088470
  62.3776627   2.2097993  20.1523037  61.4719963   3.4020000  19.9300308
  13.1424046  66.3788834  23.9128551  13.8236847  66.3925476  24.5850925
  13.4916801  65.8068466  23.2294712  24.4193249  70.6173553  43.3094292
  24.5192623  71.3664322  42.7219543  24.9983921  69.9480667  42.9447861
  61.4275551  28.3135624  84.4257355  62.2808952  28.6630344  84.6824722
  61.4829483  28.2210102  83.4746246  71.2151566  22.0695534  30.0989361
  71.3198547  21.4793682  29.3526459  72.0412827  22.5511742  30.1411629
   9.5164185  52.0183411  42.2979279  10.4633255  52.0984268  42.1830940
   9.2305479  52.8965225  42.5495491  29.7652187  33.1074905  75.7412338
  30.3393497  33.8050537  76.0574799  30.1489182  32.8419151  74.9054871
  15.5148335   9.5618992  77.0072708  15.3683548   9.8178587  76.0966339
  16.4595833   9.6516285  77.1322861  72.9745560  32.6300507  65.3906250
  72.2424316  32.8564301  65.9641953  73.7546234  32.8153458  65.9134827
  39.3324394  59.5816040  70.4653549  39.2004318  60.0709229  69.6533356
  38.4483719  59.4263039  70.7978287  19.4716911  61.8216400  81.7667236
  19.3986282  61.0568352  82.3376617  19.3742085  61.4700851  80.8817749
  67.0104599  15.6969013  11.6268864  66.1575851  15.5160398  12.0220003
  67.6345825  15.5893402  12.3446169  85.0606842  48.4396782  26.5175285
  84.1567612  48.4075165  26.2042866  85.5846863  48.5575294  25.7252140
  23.5726948   2.8487544  30.8992062  23.8312702   2.0808573  30.3895931
  23.5262108   3.5575032  30.2575302  10.9814100  63.0073662  68.4668808
  11.4810266  62.9534645  67.6521988  11.5846558  63.4099159  69.0916061
  53.2169876  22.1921368  22.0007133  53.3270416  23.1302204  21.8454113
  53.3666153  22.0857124  22.9401379  68.2613907  49.1765938  82.7543335
  68.2907791  48.2891235  83.1117706  68.9539490  49.1918068  82.0937500
  18.1625233  26.2531872  55.4837685  17.8369961  25.3688068  55.6515045
  18.5502396  26.5273418  56.3148804  19.8839245  62.4865608  14.9447432
  20.2664356  63.1716118  14.3964539  18.9404621  62.6411934  14.8978853
   5.5340605  40.5524597  19.2915974   5.0058289  40.1205025  18.6203194
   5.0211201  40.4623871  20.0947227  46.3748512  11.7214890  15.6669836
  47.0461655  12.3068132  16.0176506  45.7438164  12.3055363  15.2463694
  31.4831276  53.5601425  27.4194775  31.0235176  54.3625412  27.6667538
  31.1853962  52.9083214  28.0540771  26.3488407  42.8903427  73.7008133
  26.8518581  42.1408920  73.3821716  25.8863163  42.5586090  74.4703903
  11.3703403  21.5942879  17.6423473  10.6827335  22.2463531  17.5072994
  12.0700045  21.8565960  17.0441036  84.4939499  56.0748177  67.5483093
  84.9949570  55.2639542  67.6361771  83.6115341  55.7869873  67.3143616
  75.3289566  59.1937523  24.3551521  74.6789093  59.3016853  25.0494251
  74.9698792  59.6802292  23.6131039  61.2305489  22.7503376  12.7471066
  60.7405281  22.1305161  13.2874126  61.1746292  23.5790882  13.2227898
  75.1705780  37.5510139  81.8897400  75.1520691  36.6117859  81.7060394
  76.0317917  37.7019463  82.2792892  10.7534103   0.8426901  54.1294098
  10.0472031   0.2254641  53.9382706  11.2800322   0.8590620  53.3302650
  66.2493057  55.5782928  49.9958801  65.9552689  56.3050499  49.4467049
  66.4230652  54.8671379  49.3791962  45.0168915  47.8386383  25.5215435
  44.5469246  47.1167908  25.9390392  44.5199089  48.0181923  24.7234192
  54.7350540  31.9823208   1.9702686  54.2954140  31.9322128   1.1214842
  54.2650833  32.6690750   2.4432621  17.7648506  58.8820839  22.3859444
  17.3964233  58.9353218  21.5040951  17.3308392  58.1262321  22.7816143
  64.5080261  40.8287735  37.8945351  64.5910721  41.6739883  38.3360634
  63.5771751  40.6152687  37.9590912  17.7638836  50.3289261  43.5872612
  17.6929531  51.2007866  43.9759254  16.9044323  49.9324303  43.7299690
  56.9559250   4.3569560  35.9913330  57.4968987   5.1070514  35.7444839
  56.8789330   3.8424277  35.1878624  83.4817276  12.7451897   6.1604733
  83.6680527  12.4694405   7.0579576  82.6976547  12.2532396   5.9166551
  55.1740646  42.3455582  51.5395889  54.9463577  41.6723557  50.8983574
  55.5140228  43.0705986  51.0152054  56.4538040   6.9918017  12.9349194
  56.4976082   6.9342685  13.8893843  57.2915306   6.6389613  12.6350050
  71.6059494  30.6028194  12.9756289  70.6536484  30.5287075  12.9134893
  71.9033356  30.6372738  12.0664501  62.0970802  57.7629890  68.7998657
  61.5474777  57.0133247  68.5714645  62.8510742  57.6944695  68.2141724
  52.4674377  68.4126282  87.1352463  51.6132545  68.7302094  86.8424225
  52.2641983  67.6783295  87.7146606  14.6436987  47.0093498  19.4664440
  14.1489544  46.2018852  19.6059532  14.2800064  47.6259079  20.1019077
   8.7401276  59.3807487  13.6795540   9.1918068  59.6888351  12.8938694
   7.9651232  59.9387512  13.7446203  31.7401638  62.6358223  65.3032837
  31.0337601  61.9999695  65.1896286  32.5077362  62.1054153  65.5171356
   1.5602249  22.7515793   3.7770164   1.9318143  22.8410454   2.8994350
   1.8469939  21.8871498   4.0715594  77.2089233  20.0729599  47.8591728
  76.3588715  20.5121975  47.8858910  77.0167236  19.1998405  47.5171890
  16.8982544  50.9324226  46.6438408  17.4110489  51.3425484  45.9473724
  17.4997787  50.8829613  47.3867760   4.5286822  30.8645554   0.3758598
   4.9783397  31.2054405   1.1490593   4.8595433  31.3967495  -0.3476947
  69.5281296  41.8126984  22.4060726  68.8357468  41.1519585  22.4221745
  69.0622330  42.6462784  22.3403854  23.0587521  22.9525146  59.4474068
  22.4378128  22.2303200  59.5428047  22.5130444  23.7389183  59.4455681
  21.7845192  58.0163460  59.0636520  21.7760124  58.9449730  58.8316765
  22.2908859  57.9767761  59.8749809  12.8027439  44.4073334  56.7172012
  13.6367044  44.0853844  56.3750191  12.7470942  45.3096466  56.4026146
  28.0740280  62.8414307  16.5708847  27.4658470  63.4759827  16.9499493
  27.9122868  62.8880119  15.6285992   7.4394846  59.3891449  27.5487576
   7.8237114  60.0178146  26.9377117   7.1628757  59.9197159  28.2958946
  83.2156448  10.8060789  52.8441162  82.6013870  10.4596777  53.4913597
  83.0049896  11.7381735  52.7888374  39.9936714  56.7979431  69.9111710
  40.7085838  57.2795563  69.4950256  39.4803162  57.4706001  70.3586578
  19.3580589  23.5467796  75.6218719  19.5986423  23.1511669  74.7841187
  18.7473145  24.2463245  75.3898010  38.6830864  17.0077858  74.5822372
  38.2185135  16.1756897  74.4926758  38.1044846  17.5484715  75.1199341
  65.8765640  20.0287151  55.5163193  66.4997406  19.3629608  55.8072853
  66.2770309  20.4055023  54.7328110  69.2437134  25.7484264  78.7619781
  68.7497711  26.5122051  78.4638214  69.5382385  25.3241425  77.9560776
  53.1555901  45.7873840  50.5201225  53.8287315  45.1446152  50.2966156
  52.6192932  45.3520088  51.1827469  50.4915466  23.1960011  35.7097626
  49.7462692  22.8285675  35.2345886  50.2661095  23.0830612  36.6331558
  86.6979828  10.3784647  80.1546631  87.1053619  10.9761753  79.5277557
  86.4805145   9.6020517  79.6387939  63.2464828  50.2484016  43.9128647
  62.4600563  49.7405205  43.7132950  63.4735641  49.9964638  44.8079567
  47.9723282  36.3022842  66.8062668  48.4895287  35.5205345  66.6123581
  48.2578049  36.5675545  67.6805496  43.3888931  19.2207565   1.0235959
  42.8923073  18.5426426   0.5655635  44.0579109  19.4931393   0.3955393
  34.9841042  46.8918686  55.2976036  35.3805809  47.4974861  55.9239159
  35.4167213  47.0892181  54.4668655  38.0614815  58.4857330  80.1080246
  38.7744980  58.0494423  80.5743790  37.7903442  57.8550720  79.4409561
  75.6416397  63.9931145  34.3078194  75.7678070  64.9418869  34.2959137
  76.4045563  63.6559143  34.7773781  75.1149826   8.0225945  74.8950195
  75.9673386   8.0099630  74.4596329  75.2974701   8.3681307  75.7688293
  82.5405426  70.1687088   0.7880210  83.0457382  70.6199493   1.4643244
  82.8636932  69.2679367   0.8086407  38.6936989  58.6036568   5.7831912
  38.6834755  58.8584785   6.7057924  39.0091400  57.6999359   5.7878013
  73.0691757  26.0157166  11.1443834  72.2741394  25.6255951  11.5076427
  72.8513565  26.9407578  11.0299940  38.8152695  54.0934296   0.9927290
  39.1519966  53.3813934   1.5366466  38.8267670  53.7410583   0.1028225
  38.9619484   4.0381613   9.8749123  39.4812775   3.3280888  10.2521725
  38.7338905   3.7285233   8.9983587  10.9733849   3.7342088  62.3562584
  10.0331163   3.8779800  62.2492256  11.3751268   4.2423739  61.6515579
  40.3112106  22.5029583  82.1842575  39.6639900  21.8806858  82.5160828
  39.8092995  23.0942993  81.6233292   6.5481238   3.9144790  54.9184875
   7.3992214   3.6735542  54.5526695   6.7433681   4.2011862  55.8106232
   2.8332279   6.0700922  84.3778687   3.1630113   6.7445912  83.7841263
   3.4783275   6.0365772  85.0842361  15.3886499   3.1269057  21.1359692
  14.9314518   2.5747948  20.5016384  14.9604521   3.9799216  21.0635662
  81.1392365  36.9615364  32.0416756  80.9239120  37.2888985  32.9150009
  80.3293610  37.0626793  31.5415668   5.3058653  57.5276909  19.3875961
   4.5417500  57.2547073  19.8953743   5.9654708  57.7459412  20.0460167
  23.7084122  56.1256180  84.1194153  23.3649006  55.5621910  84.8127975
  24.6195984  55.8508873  84.0169525  23.2572231  35.8811989  72.2445450
  23.2199192  35.9828415  71.2934875  23.9198284  35.2053413  72.3873825
  65.9710770  18.7014790  13.7252350  65.8458328  18.8595409  12.7895203
  65.7208252  17.7859097  13.8490810  38.5317001  64.3668518  59.4826965
  38.2403107  64.3132095  58.5725060  38.9151573  65.2404404  59.5603333
   7.8562393  61.9259491  30.6638031   7.7953444  62.6489410  31.2881470
   7.1325998  62.0737114  30.0549145  49.5895882  51.9787140  51.8642807
  49.5681076  52.1913376  52.7973175  48.6882133  52.1066322  51.5686607
  56.7616310  35.3534431  79.3490219  57.2267838  34.5168648  79.3491898
  57.1588631  35.8482132  78.6323318  80.5233307  26.4993038  36.3594856
  80.8359222  26.5304585  35.4552994  79.8403473  27.1687202  36.3999863
  78.9879684  62.5539894  41.4458427  78.6133041  62.4462891  40.5716248
  78.3933945  63.1597633  41.8882790  60.9546280  63.2065773  56.8893814
  60.1054688  63.5397682  57.1794510  61.2488365  63.8390083  56.2338600
  44.5781097  27.6839828  33.4362030  44.3391838  28.5771503  33.6839828
  44.1611328  27.5519581  32.5847702  18.6445465   4.9087992  52.4854774
  19.2086830   4.3176336  52.9839821  18.5937176   5.7001638  53.0215683
   2.7752028  49.4313927  65.4947357   1.9113985  49.2218208  65.8499146
   3.1406164  48.5846519  65.2383423  72.2061844  31.9374580  36.7490005
  72.4962006  31.1423855  36.3018074  72.2540207  31.7196846  37.6798706
  58.5661163  24.6829777  64.0760269  58.1279297  24.6977501  63.2251434
  58.4448776  23.7877293  64.3923569  22.0850029   5.6398993  18.4946480
  22.8966827   5.2115703  18.2227268  21.6722164   5.0146894  19.0904255
  63.6100807   2.0234313  28.5949860  63.5736656   2.6729715  29.2971287
  64.3096466   2.3321276  28.0191822  58.4633446  63.6173325  86.3082581
  57.8944016  64.3869934  86.2957993  59.2815971  63.9179192  85.9128571
  83.6239014  33.3663673  60.8554001  84.1872787  33.1866302  61.6080856
  82.9698639  33.9814758  61.1872330  41.0469131  69.6920395  46.9263268
  40.7004280  68.8123474  46.7769241  41.2539062  69.7124481  47.8606567
  23.6948051  69.8932037   2.4829290  23.3903999  69.8001175   3.3856494
  23.3864307  70.7586060   2.2142153  37.8800240  45.7309418  79.5180435
  37.4788399  44.9903755  79.9728470  37.8788719  46.4376297  80.1636658
  79.3716660  45.5573540  82.3969879  79.9622040  44.9270210  81.9844589
  78.4956818  45.2657623  82.1442947  78.6459122  28.1576023   0.5940080
  78.2825775  28.9745331   0.2521878  77.9262543  27.5298042   0.5292827
  57.8052444  64.2391129  14.5898008  57.7015305  64.5298004  13.6837244
  58.6938095  64.5049896  14.8264179  78.0937805  66.1445770  62.4570732
  77.5278854  66.9142227  62.3967285  77.5068970  65.4358673  62.7207565
  66.3629379  54.5000992  52.8705597  66.0144196  54.9436188  52.0972176
  67.3116531  54.6060677  52.8002319  19.5144768  52.6731339  64.2203140
  19.4579620  53.6147919  64.0580826  18.9136829  52.5192184  64.9494095
  74.5293121  60.6500435  84.0003662  74.0143585  59.9023056  83.6971436
  74.9235687  60.3526230  84.8203278   3.4727366  66.0884476  37.1126976
   3.0896170  66.1765900  37.9854393   3.4213538  66.9680252  36.7386208
  12.0443802  63.9940720  40.3095551  11.5145359  63.3102837  39.8997612
  12.9468861  63.7595787  40.0933838  78.0533218  38.3752174   5.9545269
  77.4543152  38.9925041   5.5345526  78.8320084  38.8950081   6.1537752
  62.7942009  47.9222755  55.0990067  63.0428352  48.8341827  55.2501144
  63.6068878  47.4300461  55.2151299  50.6530075  47.0142517  28.2473907
  51.1793022  47.6318970  28.7550926  51.0611496  46.1634216  28.4078121
  61.3912849  50.1926003   3.1470711  62.1952705  50.6902695   3.2959549
  60.9955902  50.1115646   4.0148787  83.4166107  50.7283936  36.9880142
  82.5803909  50.3559265  36.7083015  83.1765747  51.5149231  37.4778976
   6.4635162  41.4950943  56.0914764   6.0740175  41.9349518  56.8471565
   6.0301247  40.6421700  56.0611725  70.3891220  31.5224152  42.0631638
  70.4782791  31.2132359  42.9646568  70.0568085  32.4160423  42.1481972
  76.6276474  42.6146126   5.3582492  76.0942535  43.2194977   5.8738451
  76.3944855  41.7474403   5.6897330  54.5675697  39.8292732  69.0822754
  54.5968895  38.9602699  68.6820145  54.0367661  40.3520126  68.4812622
  62.4195099   3.3776734   0.5885709  61.9344444   4.1055927   0.1998832
  62.1631126   2.6150069   0.0700797  79.8551254  18.8027706  65.3193970
  79.9163818  18.2609787  64.5326691  80.3459167  19.5955791  65.1030502
  23.8111076  50.5521469  62.8109589  23.1136284  50.3290749  63.4273949
  24.1532841  51.3877640  63.1285934  49.3417130  40.3110161  72.7021637
  49.7882385  41.1168594  72.9619064  49.5925369  39.6724014  73.3696213
  35.4294891  41.2934074  84.2844925  35.1765366  40.5439835  83.7454071
  36.1803093  40.9821930  84.7901077   2.2506399  70.7035675   1.6912793
   1.7828301  71.5190811   1.8710688   1.8248739  70.3504257   0.9100956
  75.6641541  37.4886398  70.7495193  76.2764359  37.3617058  71.4742432
  74.9083939  36.9469719  70.9767990  21.6012115  68.5162201  24.0167103
  21.6860828  67.8839188  23.3031178  21.6747990  69.3699951  23.5902214
  33.2766228  50.7547073  36.3948441  32.7571793  50.0462303  36.0147591
  32.9720650  51.5428772  35.9451103  60.2637749  13.7402344  38.0278587
  60.4383774  13.5979471  37.0975380  61.0636253  13.4530783  38.4683266
  78.7414932  23.4426823   2.1238804  78.0440140  24.0905170   2.2242119
  78.3663483  22.7735710   1.5513542  60.2814331  64.5941467   4.9342270
  60.6560707  63.8524933   4.4590087  60.5688934  64.4689789   5.8386221
  25.5031452  45.7531242  10.5189619  26.1632919  45.9100533  11.1940994
  24.7841568  46.3431015  10.7452726  63.7822418  70.2620697   1.7617766
  63.8757820  70.4207840   2.7010803  64.5553284  70.6700668   1.3717724
  78.1224747  35.7290764  88.1064911  77.4917297  35.5303535  88.7985153
  78.9704208  35.7376137  88.5505066  27.5352058  67.7997131   4.0582633
  27.8210506  68.6862869   4.2785401  26.6425304  67.9102631   3.7309365
  60.7061844  63.4858551  65.3731689  60.1449203  63.7721481  66.0937576
  61.3994713  64.1446381  65.3332748  31.8579674  29.8261089  69.0726700
  31.5561886  30.3911438  68.3614044  31.5885334  28.9459419  68.8101044
  68.4403152  62.2390366  73.0345001  67.8411636  62.0800438  72.3051376
  67.8744659  62.5267487  73.7509308  12.2003231  45.2558784  59.1815605
  12.5139666  46.1576385  59.2500305  12.4043036  44.9989700  58.2823257
  38.7462120  45.4663811  57.2117958  39.5438995  44.9841118  57.4293785
  38.4832077  45.1217270  56.3584061  77.6272812  66.7919159  79.9048004
  76.9969025  67.3490906  80.3613205  77.1041946  66.3189392  79.2575684
  50.1929512  47.3992500  47.4087486  51.0406494  47.6662788  47.7641869
  50.4021759  47.0013275  46.5636978  60.7187271  50.3955269  88.7197266
  60.0507698  51.0559196  88.5354691  61.2138481  50.3215294  87.9038773
  65.4865799  52.9180679  82.7214584  66.3564148  52.5542870  82.8866119
  65.3053589  53.4627304  83.4874420   9.2101879   6.3568501  54.3564911
   9.4228687   5.4238586  54.3335609   9.9829845   6.7877145  53.9912872
  58.4958687   9.3752508  64.0647049  57.8493462  10.0580940  64.2434921
  58.5690193   8.8931122  64.8883743  35.6653709   5.5209904  62.3741302
  36.1968384   6.0475044  61.7770081  35.3812981   4.7743201  61.8468552
   3.0836201  36.9802170  45.7925758   3.9926815  37.1430511  46.0442200
   3.1096528  36.1430664  45.3291817  22.6070271  68.9216232  56.4748650
  23.0747375  69.5351868  55.9082870  23.0624332  68.9766006  57.3149910
  24.0344524  36.4180717  20.2534733  24.5258713  36.8677521  19.5660667
  23.1438904  36.3540611  19.9084625  23.9846840  50.7420464  68.4839859
  24.2585926  50.4874992  69.3651276  23.6119576  51.6170044  68.5924225
  24.2667484   3.8029430  15.2640982  24.6636162   4.0983882  16.0835133
  23.4688530   4.3253603  15.1823969  26.0388298  63.5013161  52.1872063
  26.1325417  64.3093338  51.6826706  26.7148647  62.9208450  51.8375473
  11.0387611  53.0027542  67.2129822  11.7573175  53.1040878  66.5887756
  10.4424343  53.7237015  67.0108414  75.3654480  17.2106972  14.3657312
  75.0860977  18.0865402  14.6323652  76.0900421  17.3646030  13.7595053
  45.4289742  44.4674530  23.7750282  44.7081795  45.0528221  23.5425854
  45.1688728  43.6159592  23.4235516  18.3855476  51.2104683  52.1264725
  17.5240536  51.3305359  51.7269173  18.1978607  50.8892860  53.0084305
  70.3025436  45.9250031  48.0563812  69.9685898  45.0875626  47.7348213
  69.5536194  46.3291817  48.4945412  83.3845673  62.2185555  65.0735092
  83.9821701  61.4710655  65.0925369  83.5991135  62.6760941  64.2605743
  75.3638535  71.4786301  80.1182022  74.6045532  71.5273514  80.6990051
  75.0104141  71.1584549  79.2882690  73.7320480  11.1439190  40.6571312
  73.5561371  10.3952894  40.0871811  73.4111633  11.8998966  40.1654396
  31.7088280  71.6768036  71.2217178  32.3801994  71.4947433  71.8792496
  32.1556816  71.5573044  70.3837051  55.0577354  25.5453148  73.1619644
  54.1636505  25.7187691  72.8674164  55.3617058  26.3831635  73.5110245
  24.9153824  36.1215820  14.8130341  24.3983746  36.5966148  14.1624365
  25.2339668  35.3482170  14.3475800  33.7716141  62.0810242  77.3316803
  34.4888229  61.5246506  77.0278854  33.1209602  62.0369263  76.6310120
  80.5601044  69.9784088  39.8702469  80.2137222  70.7939987  40.2322807
  79.8434677  69.6277161  39.3413963  51.5977592  52.0682259   7.9284697
  51.2406158  52.9405365   7.7618785  52.3384094  51.9937210   7.3267045
  75.3485336  28.5795441  55.4351273  75.0345001  28.8752422  54.5806236
  74.6353607  28.7893486  56.0381203  15.0949173  69.3712082  36.0846786
  15.1414204  69.8062592  36.9360313  14.2399673  69.6212692  35.7343063
  84.0629578  17.1207848  50.9622078  83.2631302  17.6206436  51.1254501
  84.5162735  17.6113911  50.2766113  34.4518204   9.5377359  33.2924728
  34.5142784  10.4348726  33.6203079  35.3259621   9.1719198  33.4276848
  75.1867523  29.7063274  39.1735611  74.5755615  28.9885197  39.3391724
  75.4594193  29.9945278  40.0446663  32.9664383   1.7905061  13.8194408
  33.7130852   2.3343024  14.0705023  32.5905991   1.5011053  14.6508408
   4.6589818  22.7544289  79.0178299   4.0324841  23.4721832  78.9253006
   5.2138309  23.0141296  79.7533112  39.7934341  22.4663448  66.1591873
  39.2386131  21.7694607  66.5095520  39.6064262  22.4722424  65.2204514
  37.1006012  50.5642509  36.1668777  37.9004593  50.5622864  35.6410904
  36.4043083  50.7693481  35.5429039  85.8322983   2.7792618  12.1162558
  86.6094131   3.2830150  11.8742638  85.1233368   3.4223173  12.1255960
  77.4746628  44.9962349  64.1704025  76.8044510  45.4746742  64.6583939
  77.1708984  45.0171356  63.2629166  80.7267380  57.8072510  84.7046585
  80.3495941  57.8236046  83.8250427  80.1889420  58.4191399  85.2072601
  41.3047523  31.8619652  18.9039822  41.1917648  32.7187881  18.4924927
  41.8899918  32.0266342  19.6433125  49.4749947  21.3559017  71.1180801
  49.1477814  21.9286232  71.8117294  48.8824272  21.5085316  70.3820114
  31.3048649  66.1132507  11.1675997  31.9816265  66.2832870  10.5123806
  31.7734261  66.1163483  12.0022688  25.4236259  23.5134449  52.0290794
  24.6333065  24.0532322  52.0450363  25.2547798  22.8225727  52.6697197
  33.1644859  32.0094185  11.7396259  33.0917740  31.0550079  11.7466431
  33.0287628  32.2666740  12.6515627  41.2239571  67.1317215  80.9491348
  41.2621498  66.5787964  80.1687164  42.1145363  67.1133347  81.2995071
  62.2429237   4.2836771  85.3192215  62.2463570   3.3277755  85.3689499
  61.9829369   4.4757137  84.4182434  27.3045311  25.6346817  79.3266830
  27.4686642  24.9356499  78.6937180  26.4424191  25.4315681  79.6896439
  15.9511547  41.2329407  85.0789719  15.9192915  41.7924652  84.3029861
  15.1285200  40.7441025  85.0557175  47.4606247   1.3527130  57.3080978
  48.0529137   2.0974181  57.4122124  47.8739853   0.6466388  57.8049088
  51.0838928  68.8091583  83.9980240  51.2831535  69.4839478  84.6470184
  51.5531349  69.0873260  83.2114716  81.4300461  38.8418312  78.2098389
  80.6823273  39.4368324  78.2657394  82.1880646  39.4182205  78.1128311
  54.0927429  58.1904831  73.9440994  54.1467552  58.9498405  73.3638458
  53.1553497  58.0110855  74.0171738  72.3609085   8.8420620  87.5636215
  73.0628967   9.0993557  88.1613159  72.2828064   9.5770359  86.9553833
  38.2565956  13.4628849  68.6602783  37.5109406  14.0623684  68.6894913
  38.8015862  13.7221241  69.4032516  63.9177055  11.3345289  24.2411404
  63.3730812  10.6646299  24.6544800  64.7153091  11.3546114  24.7699699
  76.5150681  40.6678925  74.1178436  76.8496323  41.4442635  73.6689072
  76.5083008  39.9866829  73.4454269  18.8944569  64.1664734  59.8895302
  18.7071590  63.3521729  59.4225464  19.5657921  64.5971069  59.3602905
  82.0727921  66.5692825  86.8104172  81.1644897  66.4030380  87.0625687
  82.5342636  65.7598953  87.0298920  57.8551407  28.0380039  19.1591015
  58.0907249  27.3197193  19.7462978  57.0679054  28.4178905  19.5491982
  69.9966125  35.1950035  53.8076591  69.1634293  34.7658157  54.0021935
  69.9206161  35.4614105  52.8914261   7.5227895  46.1175575  11.5619202
   7.5838375  46.9257393  11.0526590   6.7580290  46.2453346  12.1232100
  60.6485939  21.8956795  65.6766357  60.0959320  21.1145077  65.6528854
  61.3063622  21.7444420  64.9978867  27.5371170  23.4832611  72.8812332
  27.9660168  22.8065128  73.4049606  26.6321201  23.4897137  73.1929550
  74.6348648  22.2674904  48.0327301  74.5053635  23.0329342  48.5926933
  74.4119110  21.5222225  48.5904884  75.1920700   1.8513613  33.8131790
  76.0975571   1.9418448  33.5163002  75.1318054   0.9489238  34.1265564
  80.8787155  63.4017105  70.8928604  81.1951828  62.5234108  70.6815186
  81.2850037  63.9671745  70.2360382   2.8298495  43.9601898   8.6647005
   3.4346592  44.6647301   8.8972130   2.1422956  44.3922615   8.1579285
  73.3695526  19.9191151  65.0712204  72.7494736  19.7077332  65.7691116
  74.1757355  20.1546783  65.5303650  24.8751831  57.8446922  71.2923813
  25.3542747  58.6733589  71.2957535  24.1464481  57.9868889  71.8964996
  64.7793427   5.1420279  59.9302368  64.7419968   5.3637118  58.9998131
  63.8646965   5.0181265  60.1838303  83.1833115  56.2018356  80.5542755
  82.9271011  56.7951889  79.8482132  82.4037704  56.1350327  81.1057129
  83.0176468  10.9209557  48.0912094  82.5814590  11.7527170  48.2759933
  82.3973618  10.2544260  48.3865395  81.5957413  22.9985733  61.0757904
  81.6787415  23.9517498  61.1039848  80.6521072  22.8411636  61.0439529
  18.4267445  46.6120796  10.9234104  17.6252327  46.2975769  10.5052013
  18.1261044  47.0440712  11.7229280  53.4286346   5.2051630  32.1701050
  53.6925468   5.1702027  31.2506714  54.1677170   4.8263359  32.6460037
  77.5875931  54.1401405   1.7625605  78.0761871  54.3866386   2.5478921
  78.0713577  54.5449333   1.0425999  48.9368248  13.9364052  70.2137833
  48.2845688  14.5250216  70.5936890  49.1896248  14.3573580  69.3921280
  10.0515099  63.1628075  59.5968971   9.1795349  63.5469742  59.6880493
  10.5387259  63.4927788  60.3518600  13.7106800  54.3765450  47.1875801
  14.6473293  54.4276009  46.9970207  13.4114075  55.2854309  47.1631775
  69.6798935  40.4948387  79.7887650  69.7690201  40.6148300  78.8433075
  68.8236618  40.8681450  79.9979095  63.0569611  40.9836082   7.3103886
  63.0641251  40.8610535   8.2596836  63.0206490  40.0957565   6.9545326
   3.1988921  20.7617512  42.4161758   3.4840288  21.0212460  41.5400505
   3.9720676  20.8866520  42.9664764  13.9919052  52.7598572  25.5514870
  13.4384842  51.9809990  25.4936714  14.2939968  52.7721405  26.4596825
  61.4674683  68.0284195  23.4697952  62.2865295  68.3586502  23.8390007
  61.5026894  68.2789383  22.5466309  52.0530472  39.3203697  11.5134745
  52.3786011  39.2866554  12.4129801  51.5294304  38.5247574  11.4182911
  43.1555252  46.3113365  60.5923805  43.3707695  46.1072083  59.6823082
  43.9831467  46.6032486  60.9745674  70.5564423  15.9036531  49.4249382
  71.2438583  15.4474239  49.9102592  70.7429352  16.8325138  49.5615654
  13.3622427  46.3994179  83.1127853  13.1058016  45.5438118  83.4568939
  13.9588356  46.7537460  83.7721481  26.5639572  69.6503448  18.3557529
  26.9367065  68.7712326  18.2890549  25.9956932  69.6118164  19.1250534
   6.3294063  31.6831722  35.5220337   6.0324016  31.7702045  34.6162491
   5.7404890  32.2479134  36.0225067  23.7026138  56.3999748   2.0684059
  24.2807293  56.9764175   2.5681314  23.8550415  55.5298424   2.4370103
  58.5095291  30.1902370  14.7690897  58.7041626  31.1010017  14.9901276
  58.9061012  29.6820354  15.4766874  77.1894150  58.1378059   2.2554739
  76.5539017  57.4470940   2.0676985  76.6595459  58.9273262   2.3655756
  46.9583473  66.1447754  29.2702217  46.2509689  65.6716690  29.7084179
  47.7586937  65.7971573  29.6637154   7.3585777  50.2614021  78.7965393
   7.7186813  49.4463921  79.1462708   6.4247518  50.0826263  78.6859055
  83.0432663  46.8725357  20.8687763  82.5342560  46.3844910  20.2215099
  83.6530609  47.3959579  20.3487644   9.8722887  65.6909332  13.8934736
  10.1005096  65.5318680  14.8093586   9.7829828  64.8168869  13.5136118
  79.0855484   0.8830513  68.8654861  78.2063904   0.5103591  68.9318619
  79.1551895   1.4682692  69.6197357  19.9998531  46.9708595  22.9635315
  20.0806904  47.4351654  23.7966690  20.8791962  47.0004272  22.5865517
  10.3529425  36.5710182  59.9477654  10.1817341  35.6815224  60.2571487
  10.4065361  36.4873123  58.9957390   6.6296411  39.1301308   7.6058340
   7.2616601  39.3639870   8.2856102   5.7799449  39.3684120   7.9766026
   3.0363848  11.3341951  38.1949883   3.0407298  11.0645485  37.2765617
   2.2248962  11.8319807  38.2946243  63.1258316   4.5284705  25.4155750
  63.9371262   5.0340700  25.3665695  63.0029755   4.1863432  24.5300884
  84.5297623  46.5399704  46.4847679  85.4578247  46.5719833  46.2525902
  84.1273041  47.2310524  45.9587784  33.4596710  70.3447800  44.3781433
  32.5458755  70.0800323  44.4835663  33.7272377  69.9556808  43.5455360
  15.2904758   4.5529003   9.5996866  14.5853605   5.0671177   9.2064629
  15.2016354   3.6846597   9.2066259  81.8454361  43.7886276  25.8861465
  81.1369171  43.5527000  26.4849548  82.1329803  42.9545364  25.5148869
  68.0802383  67.6742859  38.1044540  68.5815201  68.3446884  38.5686874
  67.1701584  67.8446884  38.3472366  80.1808319  52.5024033  11.9730263
  79.8536224  53.2656975  12.4489965  79.4863892  52.2940598  11.3480682
  52.5423241   5.8927250  75.4652023  52.0241814   5.1256204  75.2216644
  53.3376999   5.8219252  74.9373779  58.5049210  32.2372093  30.5404301
  58.3697586  32.7035103  29.7154922  57.8443985  32.5991402  31.1311512
  12.5114841   1.8424679  14.3289671  13.4433632   1.7581228  14.5307570
  12.4879951   2.0890496  13.4043713  60.1601639  19.5106182  58.0553818
  60.3163033  18.5909328  57.8408356  60.5936623  19.9970741  57.3541870
  23.3602066  14.0964441  55.4992409  24.1351643  14.5775499  55.7894287
  23.7100964  13.3218117  55.0590668  37.9034119  50.4347191  10.9122343
  38.6968079  50.5221100  10.3839188  37.6116028  49.5360031  10.7592907
  24.3768616  25.6353569   9.4855928  23.4201717  25.6436939   9.5157089
  24.6464958  25.8952923  10.3664799  74.6642685  40.5030403  84.8602142
  75.5527573  40.4924507  84.5042496  74.3763046  39.5914268  84.8126068
   9.5340118  59.9165039   2.3689361   8.7976704  59.9738808   1.7600511
  10.3010159  60.1314697   1.8381584  84.2476044  61.8514519  71.5536346
  84.0445175  62.5443573  72.1820221  84.9430542  61.3444557  71.9726028
  37.6316872  64.9100037  54.0376358  37.7238464  65.8072586  53.7172089
  37.2944069  64.4210739  53.2870216  71.9485855  26.9708786  53.2194328
  71.6479111  27.3855591  54.0280533  72.7213440  26.4698086  53.4802094
  17.8603878  58.3538284  28.7916260  16.9669380  58.6007881  29.0303535
  17.8108044  58.1486244  27.8579960  80.1025238  55.3558846  73.4806366
  79.6223373  55.3702011  74.3085556  80.3734436  56.2638931  73.3451538
  84.4631119  49.7985382  60.6446037  85.3777924  49.9959755  60.4430771
  84.4265366  48.8426819  60.6797256  70.4017792  14.2728233  83.6767578
  69.5268097  13.9709034  83.4328232  70.4651871  14.0908785  84.6143646
   4.9970427  48.0776024  15.4851313   5.0340691  49.0325508  15.4309816
   5.5997329  47.8543816  16.1944752  73.1324310  48.1701698  72.5137100
  73.8522949  48.7549324  72.2768860  72.5108490  48.2502937  71.7902069
  43.7421112  68.4309235  77.3567200  43.6595268  67.4777603  77.3269424
  42.8996162  68.7544098  77.0376663  74.5382080  35.9613419  51.0339584
  73.7898865  35.9817009  50.4374352  75.1368866  35.3234558  50.6454887
  61.5616646  48.6939507  32.4196777  62.3344765  48.7928848  32.9757423
  61.5399513  49.4943466  31.8951530  78.5649948  57.7014046   7.2010117
  78.5354156  58.4150352   6.5637646  79.4931488  57.6115570   7.4170847
  31.0429878  56.9040527  41.1601181  31.6100693  57.5186996  40.6944389
  30.8727703  57.3261070  42.0022163  71.3734283   1.8214384  19.3864574
  71.5035324   2.7031977  19.0374508  70.7179031   1.9308188  20.0753345
  78.5587387  24.0596619  22.2674694  78.1147232  24.7394257  21.7605152
  78.1114426  24.0613461  23.1137276  50.3352547  49.6868095  67.5285721
  51.2882729  49.7752533  67.5414734  50.1393242  49.0994339  68.2585297
  58.5766563  42.6426926  60.0268288  57.8970528  42.2689056  59.4658928
  59.1952667  41.9252663  60.1641273  40.1906281  46.2343063  17.4209099
  40.7001762  47.0446091  17.4210415  40.5643959  45.7162209  18.1337318
  51.1762733  43.9641571  47.3062553  51.3848000  43.4624748  48.0943336
  51.9661827  44.4759789  47.1321526  66.9708786   7.3589940  60.0184059
  67.5573578   6.9263959  60.6389999  66.0968246   7.0551081  60.2631607
   3.5028865  16.4896069  35.3526077   3.4620144  16.8413086  34.4632988
   3.6736062  15.5553694  35.2330856  80.9639893  66.5662766  58.7031441
  80.7333832  66.1981277  59.5560913  80.6219940  67.4599609  58.7276268
  28.8406925  70.9570007  70.3743591  29.4769878  71.6292114  70.6182632
  29.3723869  70.1905212  70.1597748  81.9790497  21.8486881  67.3192368
  81.6928482  22.7389622  67.1149445  82.8336258  21.9614029  67.7354431
  48.7470589  55.8875427  73.1399231  48.9823227  55.0267410  73.4861984
  48.1000977  56.2260399  73.7588654  64.6368408  50.7811127  70.6050873
  64.6052780  50.5479622  71.5329208  64.3639603  49.9851952  70.1487122
  86.4097672  69.3021774  77.2469940  87.2151184  69.5475998  77.7024155
  86.2083969  68.4248276  77.5724792   3.1215134  43.8787498  18.2204342
   3.3729203  44.0846634  19.1207829   2.6411207  43.0536423  18.2886448
  61.5163803  41.9520187  53.4137421  60.8128052  42.2649574  52.8451614
  61.4096603  42.4509506  54.2236214  53.8866081  32.5703354  72.6807251
  54.4332161  33.0503769  72.0586243  54.3839455  32.5861397  73.4984283
  14.8013144  22.8196049  54.7740021  14.3978815  23.6849499  54.7057800
  14.7484922  22.4602242  53.8884010  36.2748871   6.9157820  24.5402527
  36.0386620   7.5240030  23.8398972  37.2042580   6.7360878  24.3980770
  58.9818764  12.2110586  83.2129974  59.6800346  11.5819788  83.0311584
  58.3495636  12.0778675  82.5068283  42.7207336  48.6661682  24.3007374
  42.7625999  49.1401978  23.4702110  41.7845879  48.5841179  24.4827576
   1.7446941  66.7271500  76.4826126   1.3317820  66.4470673  75.6657333
   1.8529972  67.6730957  76.3841858  11.6474533  69.8152466  14.2872219
  11.6577978  69.1360550  14.9616280  12.4840851  70.2685776  14.3909950
  19.3216705  58.7885475  44.8270378  18.8116188  57.9909782  44.9683189
  19.4320908  59.1603966  45.7021179  57.2312737   5.7893429  82.8268661
  56.3929863   5.4540753  83.1448288  57.2278061   6.7145486  83.0722504
  10.5144119  53.6444130  11.6635962   9.7189932  53.1331558  11.8124399
  10.4608002  53.9088783  10.7452183  86.3703842  23.1697006  84.5121155
  86.2343216  22.2804775  84.8392258  87.3215942  23.2623501  84.4587555
  64.5700378  10.2807894  36.8347244  63.7823448  10.2455845  36.2920151
  64.9979172  11.0992041  36.5830383  82.0911789  59.8995628  20.7189770
  81.2097015  59.8164558  21.0827389  82.1856842  60.8333740  20.5310917
  17.0945225  40.6124153  70.7135162  17.7755299  39.9588966  70.5542145
  16.7955723  40.4343376  71.6052246  70.8000717  56.3000336  10.7021904
  70.2863464  56.9762650  11.1438198  71.4942780  56.7819519  10.2526751
  61.8903809   5.2851963  14.0400743  60.9939651   5.4692221  13.7593603
  62.3403358   5.0117908  13.2406855  81.6028748  16.1813297  87.7294922
  82.2970352  16.3425636  88.3685455  80.8110733  16.0770493  88.2571335
  81.6422958  62.0119553  32.0220070  81.8433533  62.9476929  32.0078087
  81.7706909  61.7256393  31.1177006  37.9173317  68.6691360   6.3136663
  37.3271828  69.4190445   6.3884225  37.9863281  68.3287964   7.2056537
  10.1474104  34.5347710   0.2944688  10.2832489  33.5895767   0.3606845
   9.2518644  34.6703110   0.6040789  46.5823059  47.8377609  85.0537338
  46.1761513  47.3137474  84.3633118  47.5207672  47.7870331  84.8722229
  71.7183990  61.0878677  61.2123108  71.9365768  60.3788910  60.6073456
  71.5098190  61.8305779  60.6456490   5.7440662  17.9002304  10.3846312
   5.9116831  17.4554443  11.2154751   5.6268468  17.1909523   9.7526369
  22.2157078  44.9230614  10.7994118  22.3191910  43.9897003  10.6140394
  21.5997734  45.2323265  10.1351719   2.2147698  11.4204950  33.7800941
   3.0154305  10.9546013  34.0211716   2.0447488  12.0033178  34.5201225
  62.7834892  38.8882065  74.4779968  61.8520279  38.7659798  74.2944946
  63.1068649  39.4062080  73.7408829  62.4263229  11.6462994   9.0397816
  61.9140625  12.1268291   9.6900978  62.0064240  11.8519344   8.2045383
  76.3614197  28.5076599  12.7524967  76.0418091  27.7735043  12.2279987
  76.9781113  28.1116085  13.3681812  12.4110899  24.2132111  28.6816769
  12.8548880  23.8180046  29.4320679  11.4858742  24.0070801  28.8147888
  31.6354008  25.4300137  78.6703720  32.5263214  25.7782230  78.6351089
  31.2111149  25.9279385  79.3691406  76.8429565  29.7254086  48.7890091
  77.4254456  29.9078712  49.5263290  77.0652466  28.8331070  48.5232735
  35.1502228  60.4229584  73.0627747  34.6136131  60.0924416  73.7832184
  35.7649956  61.0268135  73.4794846  40.4752274  63.9534111  80.9345322
  40.9744110  64.2821808  80.1868896  39.7482872  64.5692902  81.0266418
  71.7250595  45.0437889  17.3431377  71.8617020  45.8649483  16.8706360
  70.7778397  44.9967842  17.4727249  68.3184357   5.3110175  23.1583347
  68.9498672   4.6152115  23.3410301  67.4640579   4.8984742  23.2851562
  52.7169075  58.6764832  24.3498135  52.1152000  58.8690987  25.0688972
  53.4672699  58.2573509  24.7711391  65.0968094  14.5448437  33.5590172
  65.0796661  13.8322086  34.1978378  65.8935852  15.0331478  33.7662430
  17.7170773  24.6609783  70.5654221  17.2822628  25.3509254  70.0642853
  17.1294804  23.9084873  70.4967346  15.6767321  20.0747490  14.3805962
  15.5596914  19.6369247  15.2237110  14.9179821  20.6532154  14.3037405
  61.2860298  61.6197090  52.1562767  62.1501808  62.0304146  52.1844559
  60.9316940  61.8656693  51.3017693  81.7824631  10.7858334  69.0854568
  81.2191467  10.2341108  69.6281433  82.1216812  11.4477119  69.6880188
  78.2222519  28.9846992  58.3429718  78.1547394  28.1013451  57.9805374
  77.4897919  29.0487499  58.9558640  26.9084759  32.0870361  11.9944792
  27.6858654  32.1346893  11.4380398  26.4451275  31.3058815  11.6922607
  73.3500671  52.6683846  33.7892303  72.6110840  52.0617027  33.8347473
  74.0587540  52.1540413  33.4026527  16.8488808  68.9300003  73.0912857
  16.8866882  69.8861313  73.0666275  17.6389885  68.6471024  72.6309280
  37.3486214  61.1874924  63.5952454  38.2632523  61.1046524  63.8651009
  36.8831596  60.5397949  64.1244507  76.7073975  52.5565453  58.2008743
  76.0741196  51.8481674  58.3166046  77.2940598  52.4786339  58.9531975
  54.1184196  66.2607727  77.1463928  54.1682434  66.3402557  76.1938019
  53.7256470  65.4005661  77.2947464  69.5260162  71.1582413  13.1369267
  70.0407639  70.5182571  13.6285372  69.3920364  70.7512207  12.2810001
  46.7673187   8.5920086  82.5181198  46.4042473   9.3337917  83.0020294
  47.1574326   8.0346317  83.1914520  79.8847427   2.4656098  23.0826912
  80.7940292   2.7637744  23.1058178  79.5421295   2.8056476  22.2561169
  63.0282669  19.2832050  76.0876694  63.2762604  19.6802654  75.2527542
  63.8611259  19.0633831  76.5051041  23.6259613  58.2494087  68.7354126
  24.5752125  58.2184105  68.8545532  23.2986584  57.4929352  69.2220840
  47.9736328  50.5427284  67.0656357  48.8872528  50.2920227  67.2023010
  47.8665047  51.3451843  67.5763474  47.5356445  67.9252396  31.6043739
  47.3543739  68.7886353  31.2329903  47.3270836  67.3125610  30.8991337
  20.6618347  42.7611046  13.4599371  21.3197002  42.8363686  12.7687197
  19.8645954  43.1220093  13.0721378  71.3887558  19.7739697  46.4726715
  71.7566223  18.9943581  46.0566063  70.5925903  19.9583340  45.9743042
  59.1328087  12.9407139  27.2185707  58.7749519  13.1254063  28.0869370
  59.1893158  13.7975330  26.7956066  14.9213047  65.8801880  19.3904915
  14.0680618  65.5910263  19.7138996  15.5546827  65.4206390  19.9417419
  71.1616440  59.2077103  79.6179886  70.9947281  58.2834167  79.8025284
  71.0565109  59.6435776  80.4636765  13.9582815  58.9547005  21.7418442
  13.3367510  59.3533783  22.3509331  14.8167801  59.1278305  22.1281586
  54.3576851  19.9935265  37.3497391  54.3818359  19.0943203  37.0225143
  53.6137772  20.0093803  37.9518852  57.0934982  64.2498093   9.1228323
  57.5032043  64.3675156   8.2657928  56.2456627  64.6872635   9.0451117
  34.0408363  22.7337437  65.0909195  33.4217834  23.3264370  65.5172043
  33.5498314  21.9210072  64.9700699  86.2182465  24.5795059  30.5842609
  85.9597244  24.6662693  31.5017967  86.9845505  24.0062733  30.6045113
   9.1774549  32.8315239  19.8200283   8.3691864  32.3265114  19.7311687
   9.6900377  32.6014671  19.0450668  76.4111862  68.4588318  11.3040457
  75.6767197  68.4422226  10.6904421  76.5853882  67.5370102  11.4941196
  32.7340317  64.9671860   1.3383346  33.6752434  64.9287338   1.1684189
  32.3699188  65.4083328   0.5708405  26.2646847   3.0940084   0.1553396
  26.6680260   2.8761344   0.9956247  26.5405407   3.9943521  -0.0164631
   4.2356334  60.6566048  40.8000565   3.6762984  60.7467308  40.0285301
   3.6243732  60.5276604  41.5252914  82.0840912  52.8305702  31.6795845
  82.0329819  52.8619118  32.6349068  81.7307281  53.6727562  31.3930683
  53.6790886  46.4274178  26.5458488  54.1432037  45.5918884  26.5980186
  52.9495697  46.3348389  27.1585979  19.2335434  58.7444344   1.1227086
  20.1193447  58.5356407   0.8260754  19.0038300  59.5429802   0.6475378
  54.3634987  32.4606476  14.2209015  55.2006874  32.9022331  14.0782433
  53.7275047  32.9927788  13.7428026  83.3662262  35.2690163   0.5440694
  83.6446762  34.8505974  -0.2705604  83.8211441  34.7819862   1.2311511
  56.8905678  21.3875999  50.4837265  57.2405510  20.8094711  49.8058548
  56.8835449  20.8507442  51.2761688  32.9649658  27.9380074  14.5586452
  33.2010651  27.8859997  15.4848118  33.3600082  27.1592064  14.1666718
   5.2725587  21.3811760  44.1566467   5.3393126  22.2839508  43.8455658
   5.0848408  21.4632950  45.0916595  22.8318844  34.4717178  86.7489243
  22.7695961  34.7664833  85.8403702  21.9945316  34.0401306  86.9186401
  12.6910448  45.9827423  50.0091896  12.4898777  45.3087540  50.6584244
  11.8364573  46.2593994  49.6784744  41.7877808  62.4916916  41.0311508
  42.1690254  61.6468201  41.2700500  41.6041336  62.4154243  40.0948334
  30.0853977  63.2948265  43.3790970  29.8751984  62.3853645  43.1671448
  31.0271873  63.2893944  43.5500755  64.2334671  66.8521881  15.1254778
  64.1732025  65.8973389  15.0959711  63.7526779  67.0982132  15.9157581
  75.7400665  18.3835449  59.8190689  75.9576645  18.4251175  60.7502785
  74.8725433  17.9798222  59.7936172  60.1120567  16.0010242  21.9021988
  59.2509804  16.0789871  22.3129292  59.9250221  15.7306299  21.0032349
  11.6767149  20.8818607  13.7308798  11.0837851  21.5689259  14.0351963
  12.5524464  21.2428265  13.8688278  50.5997963   5.9264569  24.4171944
  49.8084068   5.4035549  24.2887135  50.7082901   6.4029293  23.5941296
  42.8519440  15.7021894  59.8723488  42.7844238  16.3906918  60.5338898
  42.1176796  15.1173410  60.0595360  10.4333153  54.6453400   8.9444447
  10.9786539  55.4280624   8.8658371   9.5369482  54.9798737   8.9735079
  78.6945267  69.0668564  44.9720764  78.7465591  68.3158722  45.5633049
  77.7789230  69.3426132  45.0151405  63.9638557  12.1094408  45.6202736
  63.5062065  11.8381329  46.4160004  63.3701935  12.7341738  45.2037315
   6.1620674  10.1627817  80.9528427   6.3666282  10.4006767  80.0485306
   6.7521405  10.7002382  81.4812241  18.2680569  43.0179672  75.5438385
  19.1163883  42.7555733  75.1864624  17.7671432  42.2038460  75.5940399
  48.6958847  36.2781334  20.5690117  47.8887672  36.7682037  20.4120808
  49.0238495  36.6171722  21.4019127  53.6486015  62.6915245  49.8227615
  52.8819008  63.2629509  49.8660622  54.3397369  63.1840935  50.2654152
  43.0913162  71.5668106  40.1260910  43.5129280  71.3627777  40.9608650
  42.1661301  71.3680420  40.2701454  58.5797577  13.6893539  85.4681549
  58.5094147  14.6419296  85.5304794  58.3182602  13.4881554  84.5696182
  56.7637901  55.4689026  82.5980911  56.0572701  56.1100883  82.6751633
  57.2923775  55.5991554  83.3854065  32.5021706  64.5858612  17.5638676
  31.9010010  65.3158340  17.4156609  32.2022629  63.9029884  16.9638901
  18.3642559  22.8569031  18.0043678  18.2051659  23.6085453  18.5752964
  17.5293369  22.3891411  17.9859810  81.8552780  42.9873238   7.0860796
  82.4437332  43.7325172   6.9651113  82.2744598  42.4589043   7.7652626
  55.5759468  17.3540001  17.0655670  54.6712570  17.2376461  17.3557873
  56.0894775  16.8016129  17.6549606  41.3793259   1.4822978  68.0522003
  40.7097054   2.1474538  68.2115860  42.2090492   1.9433352  68.1756516
  81.5869141  24.9635906  66.9507065  81.7115479  25.6641216  67.5909805
  81.2953796  25.4131489  66.1575241  64.4755936  43.9076843  17.5125179
  63.9161758  43.5722504  16.8119717  63.9413261  44.5714912  17.9485760
  26.8083992  50.4614601   9.7773790  27.0120831  49.5285034   9.8432169
  26.7024822  50.7480888  10.6844940   3.9005637  36.6408234  23.6087627
   3.4312446  37.3680840  24.0174961   4.3799591  36.2304535  24.3284912
  42.5259209  52.7116280  42.9763985  42.9134674  53.5469742  42.7151756
  43.0661774  52.4156342  43.7090263   9.6647587   6.4597735  78.1086502
   9.9098902   7.3781309  77.9956818   8.7253790   6.4833035  78.2909775
   9.2502327  56.2460251  47.4511642   9.4554653  55.3917274  47.0713158
   8.7628784  56.7023048  46.7652130  16.6386356  44.5031700   0.3647915
  15.7517729  44.2168999   0.5833165  16.5120392  45.2389069  -0.2342872
  37.7281609   3.2726572  32.9486618  37.2091446   2.8440292  32.2681236
  37.5964432   4.2084751  32.7965851  63.1193314  37.9386749  55.8301086
  62.9867401  37.0122986  56.0312958  64.0687714  38.0338020  55.7543144
  14.3076038  25.4090557  54.3160858  13.5369101  25.8698978  53.9845963
  14.9011221  25.3648911  53.5664101   6.4292350  65.9947891   7.1821494
   6.8974767  65.7712402   6.3777833   6.0655475  65.1633377   7.4865394
  54.8117752  65.6320724  79.8487701  54.2275352  65.9310837  79.1520004
  55.1016769  64.7657547  79.5629578   1.6117941  12.3263950  77.8801651
   2.1325738  11.6945667  78.3759613   2.0363069  12.3666840  77.0231934
  75.3001709  53.1012383  40.5626602  74.9860535  53.5208549  41.3635864
  75.8880157  53.7460709  40.1691284  12.7311077   0.0333510  66.9137573
  12.7495661  -0.0466489  65.9600830  13.0725040   0.9106241  67.0871658
  86.2244492  55.4063339  47.2600250  85.7412186  54.6381340  46.9557457
  86.3619537  55.2483253  48.1940269  81.8834763  69.8771286  47.8526611
  82.7198486  69.5955353  47.4819679  81.5385742  70.5039597  47.2167664
  83.8345184  30.5334625  19.0826168  84.2113266  30.8375683  19.9083118
  84.5435410  30.0489025  18.6598625  61.7251320  58.4422226   5.1169825
  61.7352333  57.5099373   5.3337207  61.0023918  58.8001518   5.6325064
  49.5143623  25.1213627  11.8896656  48.9726105  25.5990582  12.5177917
  50.2923164  25.6681290  11.7798290  83.3518448  18.1618958  63.8369713
  84.0331802  17.4943199  63.7572403  82.5476685  17.7164021  63.5703926
  51.0773430  34.1758842  86.6667557  50.2057648  34.2419243  86.2766037
  50.9906921  33.4935532  87.3324432  48.6025429  38.0073280  60.2715607
  49.2075729  37.3697777  59.8924866  47.8804665  37.4792290  60.6120682
  39.0853004  14.2796831  11.9488068  38.2395096  13.8477020  12.0682058
  38.8939629  15.0292015  11.3850288  37.6623421  53.0742188  49.9692841
  38.1502113  53.8138771  50.3313942  38.1697388  52.3041039  50.2256088
  73.4898987  44.2964287  70.8061447  73.8893967  44.7145157  71.5689316
  74.0359497  43.5278282  70.6408768  85.1081619  63.5190506  63.3556633
  85.5721817  63.8098488  64.1407471  84.8758469  64.3287354  62.9010468
  10.0407076   9.4203682  58.1778717   9.4988918   9.0335608  57.4900856
  10.3859339  10.2233496  57.7876511  20.4863434  66.0448456   3.7865131
  21.0906334  66.6004791   3.2942333  20.9593601  65.2208633   3.9028485
  25.7770004  68.2462540  81.9364700  26.4804382  67.6007843  82.0055847
  25.5639076  68.4663010  82.8433380  86.7174835  18.1564198  22.9498920
  86.0219879  18.4187508  22.3468094  86.2665558  17.6643600  23.6360207
  23.2099972  47.0772629  69.0016098  24.1141815  46.7659607  68.9594955
  23.1463680  47.7240028  68.2988281  44.1984291  62.7016068  38.3201752
  44.4767838  61.7938385  38.1989021  43.2421112  62.6606331  38.3223190
  64.3964233  32.1136322  84.9002914  63.9188652  32.7381783  85.4462891
  65.0989838  32.6295624  84.5047455  76.8429794  41.9240570  13.2529039
  75.9945374  42.2056808  12.9107513  77.2867432  41.5327530  12.5004530
  21.3959026  36.4800644  26.3689308  20.9592457  37.3314438  26.3421669
  22.3271828  36.6905632  26.4370518  59.3006706  37.4685364  82.6310959
  59.3011436  37.5000992  83.5877762  58.3747978  37.5036163  82.3907547
  70.1323624  42.9329987   3.6487095  70.7536240  42.7958527   2.9335485
  70.5899506  43.5153351   4.2551160  59.2987518  18.4368401  38.9576492
  59.3670883  17.4859161  39.0431252  58.4304008  18.6464424  39.3015442
  64.5004425  48.8614197  63.1126709  64.6368637  48.7767601  64.0563126
  63.5527420  48.7877960  63.0001144  26.2175083   6.8812108  13.1025391
  25.8781490   6.0188060  12.8631115  26.6893063   6.7338223  13.9222441
  76.4604340  68.9843903  53.6930237  76.2645874  68.1291504  54.0757027
  77.2989273  68.8613281  53.2480278  56.7262840  17.8226795  74.1575317
  56.7281189  16.9093094  73.8712082  56.7764244  18.3281212  73.3462143
  83.1719971  67.5803757   1.6077449  83.8221817  67.4934311   0.9106577
  83.0970001  66.7002335   1.9764576  78.4633713  54.7712479  18.6201859
  77.6297455  54.5271111  19.0223141  79.0992050  54.1649170  19.0000648
  52.3105812  70.9536819  77.7732849  52.6779366  71.8326874  77.8662262
  53.0379143  70.4233017  77.4478378   2.4175253   4.3970199  57.3468971
   3.1616080   4.9802270  57.1970940   2.5725360   4.0296721  58.2171059
  65.0855560  34.8263741  27.8758106  64.5299377  35.1168633  27.1525288
  65.4877167  34.0175896  27.5590153  37.7162094  36.5438766   5.8654785
  38.5764618  36.5523415   5.4458003  37.7656555  35.8277359   6.4986658
  43.4307899  65.5276260  77.1331940  43.6828423  65.2341537  76.2576523
  43.7182007  64.8230972  77.7139359  22.6903210  34.1052475  15.2065992
  22.5272617  34.8540421  14.6330538  22.0843277  33.4312935  14.8987246
  28.8081055   7.7879291  68.4032898  28.8669338   8.1625271  69.2821808
  28.6842766   6.8502398  68.5503845  10.1439562  56.2522583  68.8209305
   9.5095949  55.5377884  68.8788452  10.7275381  56.1154823  69.5672302
  15.1874418  26.3301849  81.2474289  15.7508259  26.2424717  82.0162811
  14.3661737  25.9102192  81.5031204  52.7937775  18.9326706  79.3826981
  53.3967934  18.3653927  78.9022827  53.2423325  19.7771664  79.4257507
  76.3912811  23.1273460  54.1107597  77.1017609  22.8677120  54.6973076
  75.5946350  22.8440990  54.5594940   2.6364827   6.3059287  16.6172066
   3.3307335   5.6482301  16.6581993   1.8913273   5.8439951  16.2330284
   4.0318651   5.4250898   0.2892054   4.2583842   5.3238592  -0.6352800
   3.4545128   4.6850109   0.4767670  50.1839333  23.1551075  15.6797590
  50.8947105  23.7904930  15.5942345  49.7807159  23.3589325  16.5236225
  12.1446962  22.1798649  87.6669693  11.3610973  21.8653488  87.2160950
  12.1823816  23.1133842  87.4587555  79.0020065  30.6244755  74.9289322
  78.1678391  30.4518261  75.3655014  78.7889404  31.2644634  74.2497787
  61.1095924  69.5623627  74.5892639  60.1602707  69.4401321  74.5802460
  61.2325897  70.4599609  74.8981628  85.0811996  60.3711777  10.6623011
  85.7274780  60.5247231   9.9731188  85.4643784  59.6780510  11.1998692
  63.8696175  43.3445244  66.8553696  64.7435608  43.0087852  67.0547028
  63.6835976  43.9627304  67.5620880  72.1316452  30.5885315  32.3775482
  73.0465240  30.7646046  32.5971603  72.0229340  30.9489899  31.4975014
  35.8223801  37.3728256   4.1887169  36.3998260  38.0480957   3.8326318
  36.3493690  36.9352379   4.8573208  62.2729568  65.6444931  82.9211044
  61.8442650  65.5149307  82.0751343  62.7769394  66.4510880  82.8131790
  16.6256866  68.3724670  57.9117241  17.2739983  67.7078171  57.6789894
  16.5795860  68.9414749  57.1433868  17.0583782  20.3895626   5.6925831
  17.3950558  20.8750896   4.9394941  17.8382931  20.1607246   6.1981483
  22.5804863  51.4225426  25.7958488  23.3327351  51.9395485  25.5076504
  21.8448486  52.0343742  25.7687759  80.4692307  29.3233490  60.4192734
  80.1525497  28.8996506  59.6215096  80.7929153  30.1750240  60.1258278
  37.5223389  64.7734985   9.1656857  36.8288269  64.3457794   9.6680145
  38.3222618  64.5918655   9.6590033  32.4433022  44.2774582  51.9498444
  32.4108391  43.4455032  51.4775848  33.0796394  44.1309090  52.6497231
   8.2432375  40.3309288  19.9665585   7.3672457  40.5540504  19.6517773
   8.5610161  41.1338120  20.3796329  59.0973854  71.1001205  28.0909138
  59.8376160  70.7251282  27.6137676  59.3754005  71.9913406  28.3022785
  70.9328156  37.8813896  15.3346453  70.2164459  37.3774910  14.9484587
  71.2451096  38.4386978  14.6218252  27.0207901  67.4067078  30.1567287
  27.0829144  66.5604858  29.7137012  27.9164009  67.7445068  30.1545715
  57.9455109  64.6019897  11.6235771  57.2660866  64.4670486  10.9629688
  58.7372131  64.2334290  11.2316532   3.9337022  46.5180626  68.8175430
   3.2361228  46.5282097  69.4729156   4.0623903  47.4389801  68.5904388
  78.0349121  55.6515541   9.0568762  78.3812408  54.8704720   8.6253767
  78.0984879  56.3393478   8.3942051  66.6043320  64.6419067  31.7963486
  66.5556717  64.2679443  32.6761284  65.8537216  65.2337341  31.7458038
  32.2327271   8.8353567   1.7618899  31.4149494   9.2144585   1.4397833
  32.3572502   9.2318592   2.6241610  73.7709427  69.4739685  52.3134499
  73.3756485  69.7052383  53.1539841  74.6953735  69.7015305  52.4128304
  26.1477966  71.3482742  70.8123169  26.0907555  70.6159668  71.4260788
  27.0131798  71.2592926  70.4130402  17.3867683  65.2733459   2.1322501
  16.8847389  65.0142899   2.9049649  17.4852924  64.4653015   1.6286670
  23.0202255  62.9034081  51.8620911  22.7350273  62.7073555  50.9696426
  23.8828850  62.4947395  51.9330750  64.3978119  61.4234734  48.9435310
  64.9707718  61.4200668  49.7103004  64.8702240  61.9440155  48.2938423
  79.2416763  13.1178341  12.2889280  78.8199463  13.5988379  11.5768843
  78.8249054  13.4517298  13.0833101  29.9114971   4.2046757  74.7456741
  29.2429829   3.6775665  75.1832581  30.7033920   3.6684494  74.7856293
  27.8880424  49.2285843   3.1990333  28.8401260  49.2362061   3.2975729
  27.5646191  48.8691788   4.0251441  15.1833372  63.6132774  87.2284393
  14.8948936  64.4821930  87.5077515  14.7103920  63.4550591  86.4114227
  46.6351242   0.7687256  66.2402954  46.7448578   0.6955516  67.1883621
  45.6875801   0.7468194  66.1064606  66.0984955   8.6050577  69.8728485
  65.9292526   8.3735056  68.9596329  66.9289017   9.0805635  69.8494339
  24.5924015   1.9189205  41.8799934  23.8668442   1.4965408  41.4202156
  24.8972397   2.5958118  41.2757378  10.3100538  60.6408424  55.1561203
  10.6127367  61.4562912  55.5556908   9.3706551  60.6189919  55.3385544
  39.7256470  42.8625031  70.8325958  39.0947037  43.4311638  70.3912659
  39.7572403  43.1915665  71.7308960  16.4207573  52.5576630  73.9728622
  15.8261700  53.3076897  73.9852982  16.5061531  52.3044472  74.8920059
  83.8748550  39.3812408  42.3838730  83.4763794  39.6978874  41.5732040
  83.1453552  39.3173065  43.0002899  34.4909134  18.7719917  81.0441589
  33.9525337  19.4449959  80.6276932  34.7983704  19.1786308  81.8543091
  72.2629623  55.4823608   3.4327211  71.3522339  55.2717896   3.6387773
  72.5726471  55.9752617   4.1925726  29.3369198  54.6391335  59.3337021
  29.3835468  54.4238319  58.4021950  28.4969501  54.2808304  59.6205902
   9.7487087   3.4229572  57.3398972   8.8940563   3.2355225  57.7280579
   9.9326801   4.3280249  57.5913696  74.7451324  25.2261696  60.3759499
  74.2099304  26.0173874  60.4373245  74.1966400  24.6022835  59.9003944
  46.5254555  44.0821838  86.4632416  45.7248230  44.1596336  85.9443741
  46.2179031  43.9368210  87.3579559   5.5149837   6.6001854  54.6082573
   6.0942883   6.0166626  55.0982971   5.5114808   6.2436104  53.7199593
  34.6195946  68.9974365  63.5442924  34.9623680  69.8905258  63.5106697
  33.6771736  69.0973740  63.4098091  37.0446548  16.6165352  66.6371536
  36.1550789  16.8788700  66.4003601  36.9456177  16.1618156  67.4736099
  20.3140030  56.2505722  14.0874434  19.6342983  55.5954399  14.2456598
  19.9481411  56.8157921  13.4070730  68.1505051  70.1248550  71.7497940
  68.8721313  70.1139832  71.1210022  67.6603241  70.9192963  71.5381088
  32.7026215  54.6047211  86.3228683  32.6452065  55.4000854  86.8523331
  32.0146065  54.7047806  85.6649475  55.1838264  32.4769707  63.7777061
  56.0401039  32.1751022  63.4745636  54.8122330  31.7228260  64.2353287
   3.9140866  54.8537407  29.9885349   4.5068674  54.6041336  30.6974335
   3.0745246  55.0082016  30.4215584   8.0061827  10.3592625  26.8509197
   8.9075441  10.4099741  27.1690521   7.4768229  10.6873531  27.5778084
  73.8227692   0.6298440  20.0828056  73.0917206   1.0415847  19.6220837
  73.6967926  -0.3084859  19.9417477  27.0483685  49.7825890  19.4740181
  27.0843410  49.9192085  18.5273018  27.4319382  48.9155350  19.6056309
  47.4777527  57.7475014  56.2336464  47.3466148  57.6135254  55.2949867
  47.3015900  58.6784744  56.3696175  52.5394516  27.3783474   4.5549836
  52.7516365  26.4628258   4.7367225  51.9156952  27.6201019   5.2396107
  46.9233780   9.3718414  76.3574066  46.1412697   9.1208992  76.8488998
  47.6320839   9.3347034  76.9997406  11.1633482  63.8468513   5.7985234
  10.2792053  63.4840965   5.8526640  11.7385712  63.0828056   5.8383751
  75.6104965  43.4438248  19.7858391  75.4347763  42.6965828  20.3576584
  75.0526047  43.2972794  19.0219593  48.3117828  36.6032295  10.8171759
  47.9335556  36.2180214  10.0267391  48.3994255  37.5339966  10.6116838
  67.8787537  18.1537838  78.0147400  67.9449768  17.7123928  77.1679688
  68.6392822  18.7343578  78.0423355  54.8866386  18.3851757  68.4138260
  54.5174065  17.5088120  68.5228424  54.4754524  18.7209396  67.6173248
   0.8936129  18.0356998  32.8854446   1.1634235  18.2469368  33.7792091
   0.8452511  18.8832436  32.4432220  79.3368759  46.3821945  61.8162460
  79.4246216  46.4398804  60.8648262  78.9977646  45.5008202  61.9724998
  17.3961620  37.7343788  68.5588226  17.0882778  38.6403351  68.5327072
  18.2582951  37.7862053  68.9714661  23.3041210   0.1254936  55.6365776
  23.3295898   1.0748600  55.7561035  24.2227440  -0.1429099  55.6546211
  62.2225189  45.2520828  71.4328690  62.5751724  45.2854042  70.5436249
  62.1110573  44.3183250  71.6114883  46.5012894   4.6573601   4.6221371
  47.0521202   4.7688575   3.8472915  46.4092255   3.7092464   4.7161398
  59.8892059   9.0537233  60.4773560  58.9528351   8.8587542  60.5152283
  59.9862289   9.8615656  60.9815483  69.5272064  63.2301292   6.3627520
  69.1647797  62.8255272   5.5746055  70.4349594  63.4296341   6.1337972
  56.1896019  25.6507416  31.1478214  56.8011971  25.4716225  31.8620338
  55.7982635  24.8002071  30.9486275  63.0560036   3.3967292  22.8249111
  63.4194527   2.7210021  23.3972111  62.2167244   3.0391505  22.5351143
  57.1670456  64.5931778  83.9906464  56.8133659  65.0846863  83.2493210
  57.0107079  65.1569214  84.7482605  65.8591309  68.5317841  63.3714905
  66.5264130  69.1968689  63.5406914  66.3017197  67.7000427  63.5404663
  60.7980690  47.4737396   5.3465471  60.8587914  48.3427773   5.7431798
  61.7043304  47.2361069   5.1504445  66.8649521  61.3833809  59.2030067
  65.9787292  61.7312546  59.1038437  67.4216995  62.0115128  58.7428818
  81.0695114  65.3517990  13.4246540  81.4840851  65.8825073  12.7444248
  80.1326447  65.5181122  13.3204527   2.7206213  58.7458191  70.1571045
   2.6558623  57.8882790  70.5774155   3.4906437  58.6782990  69.5925369
  11.7638016  24.4194641  24.2236652  11.2745047  23.6055374  24.1039124
  12.1502409  24.5950565  23.3657227  25.6917744  50.0618362  77.5620728
  26.3660507  49.5241165  77.9773331  26.0831070  50.3392067  76.7337265
  20.5579720  51.5584755  37.2273636  19.8283558  51.7279472  37.8233261
  20.4942589  52.2495689  36.5681458  79.8570709   9.0406656  70.7149124
  79.9014816   8.1445265  70.3814545  78.9372330   9.2870417  70.6178284
  80.5672836  26.1684647  44.2881432  81.3287735  25.9111080  44.8078918
  80.8368912  26.0249462  43.3809776   7.3458400  26.4421444   4.5166850
   7.7106037  25.6202660   4.8448534   6.7754664  26.1794872   3.7942469
  29.8219891  47.7440987  50.6011162  29.3532200  48.2026329  51.2984200
  30.0263557  46.8864059  50.9737206  12.2970266  57.1744614  59.1549187
  11.4520149  57.6216812  59.2016296  12.6634607  57.4422226  58.3121490
  81.4832230   7.4852686  31.4183407  82.3206863   7.7744298  31.0560341
  80.9934921   7.1628013  30.6617603  37.3415260  62.7380714  83.7934418
  36.5439034  63.1483879  84.1276169  37.0502243  62.2292900  83.0367966
  77.4717865  22.7680283  46.5854301  76.6450729  22.2947197  46.6790123
  77.8794403  22.7112370  47.4496193  85.9566193  56.8372498  51.5378838
  85.2813339  56.5220757  52.1386223  86.7361679  56.9362259  52.0844612
  50.3213234  52.6778793  23.9848537  50.0928841  53.1750679  24.7702541
  49.5058899  52.2471046  23.7284737  24.3749676  14.8374958  17.0726166
  23.4396267  15.0382729  17.0400696  24.6979465  15.0586643  16.1991177
  85.7458115   3.9856100  23.2972107  85.7670975   4.9423647  23.3171978
  85.5796967   3.7307234  24.2047729  27.2580681  62.3675804  23.4547577
  26.4360847  62.4122810  22.9663162  27.6988811  61.5904846  23.1111870
  57.6921806   0.1947405  77.3048172  58.0987816   0.9671367  77.6976395
  58.0647278   0.1496440  76.4242477  55.1783142  16.7306557  77.7179871
  54.4143066  16.1672840  77.5949554  55.4036407  16.6300545  78.6428375
  56.2725029  69.3130951  56.4113350  56.2543411  68.3710709  56.2425346
  56.8511391  69.4097824  57.1676826  25.4512043  46.6129913  57.4594917
  25.1087875  46.1676064  56.6844978  25.1218777  47.5087471  57.3860359
  25.7664337  34.4194908  19.5047436  25.9926796  35.3494148  19.5217476
  24.8124542  34.4064713  19.4273682  82.1916733  60.0447769  14.7920523
  82.1197510  60.9990463  14.7712631  81.4409790  59.7368889  14.2842236
  30.8265114  49.0223083  58.8225174  30.7445107  49.8179245  59.3483543
  29.9292278  48.7014923  58.7320023  20.6572304  57.9924622  20.0722084
  19.8348732  58.0002518  19.5824127  21.2501545  57.4656029  19.5363979
  65.3602524   6.0693202  25.3625946  65.5994034   6.8884397  24.9289131
  65.9453201   6.0188169  26.1184845  68.1445923   4.8894191  53.4068413
  67.7624969   4.3777161  52.6938248  69.0203018   5.1179047  53.0951271
  38.0122795  58.9798164  27.1975803  38.7639847  59.2375069  26.6639481
  37.3902397  58.6087685  26.5717850  38.2425728  16.9029007   0.2215572
  37.3353462  17.1957283   0.3077208  38.7625923  17.6309872   0.5617137
  39.7826881  48.9226494  48.5057449  39.5209503  48.0690727  48.1605949
  40.1211853  49.3950043  47.7451286  77.7534637  51.4510117  11.3473577
  77.4423752  52.0282974  12.0446358  77.4837723  50.5750694  11.6234446
  60.0967140  19.0698223  60.6536751  60.2011528  19.0681820  59.7021904
  60.5320396  19.8724136  60.9410248  56.1418724  63.6279297  50.1061592
  56.9217720  63.3012848  50.5548134  56.3010178  64.5659866  50.0014763
  67.9697342  15.4440517  70.0973663  68.2319260  14.6538401  70.5696564
  68.4218903  16.1553555  70.5510559  61.5379219  57.7637024  47.1704979
  60.6881523  57.8002892  46.7314224  61.4583015  58.3804932  47.8981361
  79.2327957  56.8202019  22.2205238  78.7373581  57.3098106  22.8770733
  79.0305557  57.2568665  21.3930855  81.0171127  47.6076050  42.6673508
  80.1982651  47.1952477  42.3922539  81.0938721  47.3912125  43.5966034
  35.5297356  28.1995697  75.3385391  35.0208931  28.7537003  74.7467194
  36.4418831  28.4099159  75.1386185  77.5485764  49.4522476  83.4056549
  77.2900848  48.9463577  82.6352692  77.3148804  48.8947029  84.1477814
  41.2988586  28.4661427  11.2780180  41.3707962  28.4883232  12.2322531
  41.9035301  29.1441078  10.9764166  19.4989681   5.8438897  83.5414200
  18.5670757   6.0192556  83.4108276  19.8919201   5.9830785  82.6797638
  17.7717190   7.2719831  87.3360596  17.1682148   7.3081570  86.5939636
  17.6748314   6.3841786  87.6805115  65.3496246  63.5061264  76.8433075
  65.2842484  62.5512428  76.8555069  65.1945648  63.7684364  77.7507095
  11.5011988  71.5247803  46.2122002  12.4010658  71.2842331  46.4326744
  11.5243530  71.7026978  45.2719650  66.4249420  30.2899113  45.0480156
  66.7791901  30.7027130  44.2604065  66.9923706  29.5337677  45.1980095
  75.8421478  13.9800940  15.0712214  75.6468201  14.6462393  15.7302599
  75.6890717  14.4189196  14.2344236   2.5577412  26.6458359  76.5625381
   2.0282686  27.1145248  77.2076874   2.0833669  26.7552376  75.7383804
  60.5962105  50.3888779   5.8772502  60.6385498  51.3125000   5.6295362
  59.6644897  50.2213631   6.0189047  47.7193069  70.9448471  74.4393387
  47.8351593  71.2832108  75.3272171  46.9409752  70.3903732  74.4939880
   7.2820311   2.9405787  64.1267776   7.5086179   2.3756955  64.8655624
   7.6371202   3.7975676  64.3628159  20.7778873   0.0872639  20.0560246
  21.0788822  -0.0949539  20.9462090  21.5707512   0.3372278  19.5815601
   3.6979256  56.4519005  25.1387310   3.9818985  56.9374199  25.9132385
   4.1210837  55.5974808  25.2231884  23.9561977   4.7477317   1.8284730
  23.5678005   3.8953843   1.6312865  24.3034477   5.0524192   0.9901319
  27.4409580  63.0633278  14.0924950  27.4756298  63.8103714  13.4950380
  27.5589066  62.2994232  13.5278997  29.5995846  32.8244171   5.2311587
  30.1503277  33.2444382   4.5704799  30.2097759  32.5635338   5.9209681
  52.7813034  10.4626312  13.4661207  53.1592064  10.8611221  12.6821404
  52.0390205   9.9527922  13.1416016  76.7481842  71.3331833  38.3565979
  76.1244812  71.9197845  38.7845306  76.5446548  71.4061890  37.4241409
  76.0144119  57.9730988  53.0392227  75.3595047  57.4800186  53.5333862
  75.7430420  57.8829803  52.1257286   2.8036933  14.0196848  43.0411377
   1.8542155  13.9257593  43.1179581   3.1561184  13.2239885  43.4397545
  72.8929291  49.9276924  57.5615959  73.3284149  49.2763557  57.0117378
  72.7359390  50.6687317  56.9764061  16.4455433  16.8034935  11.3705864
  16.7482243  16.8262920  10.4627886  16.4404278  17.7206631  11.6444607
  38.0285606  69.3066177  65.7641373  38.9159927  69.6479797  65.6538544
  37.9329453  68.6582108  65.0665283  57.5029526  12.8292351  41.9392586
  57.4066582  12.4718571  42.8220062  56.8339882  12.3783808  41.4240417
  27.2745075  20.4390106  57.2251549  28.0791359  20.7263927  57.6566811
  27.0256824  21.1758461  56.6671295  66.3824997   8.8240023  14.4622440
  65.5032806   9.1265821  14.2349577  66.9686966   9.4102783  13.9838257
  58.8000412  56.1262131  72.3037186  58.0362854  56.6897087  72.4277496
  58.8036919  55.9305420  71.3667374  53.4518661  68.5600052  49.0451927
  53.5293427  68.7337265  48.1070824  52.8884583  69.2610245  49.3728638
  57.1244087  18.5514755  12.8834848  57.3154373  19.4807205  12.7560368
  57.7598495  18.0981445  12.3294640  40.9237137  38.3606110   1.1436976
  41.0829353  38.8599739   0.3427522  40.0057755  38.0962372   1.0826274
   1.4652387   4.0989442  11.6872025   2.2958615   3.8587437  11.2765913
   1.5180006   5.0483761  11.7968721  86.0414581  30.1811981  79.4456711
  85.7970886  30.0878620  80.3664322  86.6195145  30.9439220  79.4274139
  13.4444714  56.3258133  81.4623718  14.0759926  55.6104584  81.5377274
  12.6034746  55.9274826  81.6866302  64.6199188  63.0712967  58.5364304
  64.0365753  62.8210411  57.8199730  65.1179047  63.8126526  58.1920052
  83.5160522  13.2102289  24.1104641  82.7947235  12.5841484  24.0477161
  83.5574493  13.4355726  25.0398407  19.8900757  22.8613949  12.6776419
  20.5322800  23.1498528  13.3261776  19.4259262  22.1410561  13.1041479
   0.9666086   0.6448331  78.0766525   0.8738753   1.0573610  77.2179031
   0.3016183   1.0688181  78.6191101  13.0931339   2.3267872  77.0773087
  13.0794468   1.3923912  76.8700714  12.2442589   2.4937336  77.4869080
  81.4127197  40.8620987  75.2589188  81.9422073  40.6970749  74.4787674
  81.7492599  41.6880302  75.6064911  20.9450722  53.2369080  70.6059189
  21.2863693  52.4854202  71.0906982  21.2480431  53.9985046  71.1002960
  49.0777130  67.2144241  13.9443674  48.6743240  66.3467789  13.9179192
  48.8773880  67.5978241  13.0904913  76.8849945   6.3357744  72.5119934
  77.2476120   6.9416327  73.1582718  76.9125366   6.8207197  71.6871872
  46.9992104  69.3970184  42.1782761  47.7753258  68.8865891  41.9473305
  46.4060707  68.7623825  42.5803299   7.8341370  43.3427048  72.2398911
   7.3101740  43.4391899  71.4446640   8.5886621  42.8203850  71.9676666
  23.4726067  69.8470612  59.7361908  24.0967731  69.3824081  60.2936363
  23.6027489  70.7710953  59.9494171  70.1408234  35.4076195  68.6874237
  70.9516525  35.9099693  68.6072083  69.4691086  35.9750366  68.3091736
  77.1882019  13.1119280  53.6308060  78.0662918  12.7935734  53.4214287
  76.8833923  12.5322428  54.3288651  45.5330734  69.8227921  15.8173237
  45.2734261  70.5702896  15.2787466  44.8666115  69.7786026  16.5029697
  85.5297089  38.0079803  10.4792099  85.6734695  37.0708580  10.6109829
  86.3324814  38.3167038  10.0591145  78.4518433   9.6563845  54.5497589
  79.2153015   9.0797977  54.5196838  77.7031021   9.0609140  54.5818863
  77.7276077  12.6515036  67.1837692  78.4184799  13.0171108  67.7362747
  76.9138412  12.8969698  67.6239624  17.6078167  17.5620918  64.8807297
  16.6555843  17.5781822  64.7846832  17.8472176  18.4738426  65.0469513
  14.4606142  43.8810043  61.9343796  14.5308819  43.7969894  62.8852921
  14.6973162  44.7912025  61.7562103  70.7847137  70.8591003  51.4379082
  70.7844391  71.0213699  52.3812561  71.6704483  71.0874786  51.1558571
  67.1665192  28.6922092  12.2758274  67.9742584  28.9979954  11.8631639
  66.8103561  28.0519638  11.6598196  56.6291275  19.5684929  80.2242126
  55.9091034  20.1985188  80.1948013  57.3201523  19.9697399  79.6972275
   4.0664721   0.6616540  24.1869030   4.8719788   1.0060116  23.8011456
   4.2254314  -0.2782149  24.2741394  55.7051888  28.7216225  57.3508949
  55.6459961  29.1556110  58.2019997  56.5247154  28.2285843  57.3899269
   3.1840143  63.9605827  48.0872345   3.2298596  63.9687538  47.1311684
   2.2472107  63.9332733  48.2818756   9.0715666  47.5828743   5.8291702
   8.7593069  48.0648499   5.0633874   9.9695940  47.8892899   5.9552217
  16.5320015  35.5781136  46.1593590  16.3531017  36.1584778  46.8992233
  16.4096260  36.1300545  45.3869476  73.0463638  59.8465042  19.1345081
  73.4519196  60.0435104  18.2901478  72.2566223  60.3870544  19.1528263
  59.6312256  30.5336304  58.9901237  59.3596687  30.4983959  58.0729294
  58.8149529  30.6450615  59.4774780  86.5379181   0.5971692  31.5517082
  86.1829681   0.6053730  32.4406242  86.1417313  -0.1722354  31.1427002
  15.5049076  17.6645660  79.7787628  15.7689581  18.4902153  79.3727951
  14.8247490  17.3198986  79.2001266  72.6299057  27.5631943  37.3032379
  73.3472519  27.8034706  36.7168007  72.0632935  27.0038452  36.7719040
   5.5423679  45.1908150   9.0002966   5.2993317  46.0767021   9.2693081
   6.1387591  44.8877449   9.6849127  58.6516190  49.2152863  76.6441727
  57.7405777  48.9359818  76.5534668  59.1143684  48.7538261  75.9447784
  46.2160912  43.9691963  16.7914906  46.7043266  44.6870499  16.3883228
  46.6757698  43.1785393  16.5090141  67.1743317  13.1177149  29.1739273
  66.3077164  12.8432035  29.4736824  67.1298752  14.0737152  29.1560802
  85.2488403   7.9816470  56.1249123  86.1050949   7.5626025  56.2112732
  84.6233444   7.2579551  56.1603851  14.6996183  14.7772007  66.5871964
  15.3750362  14.8473310  65.9125671  15.1737137  14.5068951  67.3735809
  63.0953560  63.4182205  30.9699326  62.5720634  63.0061874  30.2824516
  63.4615974  64.1998291  30.5561905   7.0497766   0.7686950  46.2564430
   6.4005146   1.4686178  46.3257141   7.0167356   0.3265367  47.1047592
   8.0563316  12.8296280  65.6941376   8.9813795  13.0518980  65.5887146
   7.8851871  12.1848612  65.0076904  78.6920166  61.5346870  53.7903099
  78.5303192  60.6638527  53.4273643  79.2935715  61.9451523  53.1691132
  18.8023319  59.9761925  42.6072006  19.7249870  59.8085899  42.4152451
  18.6464558  59.5316353  43.4404526   7.4201813  34.8084641  64.2460403
   7.7878995  34.3462830  64.9993057   7.8164434  34.3816910  63.4863892
  17.4493179   3.6305397  77.6474228  17.3694668   3.1942251  78.4956512
  17.9343166   3.0098917  77.1035461   0.4246649  15.6041489  56.9115639
  -0.4030201  15.1545734  56.7411194   0.9110713  15.0042305  57.4770164
  61.2519188  36.8394051  34.6065636  61.9948921  37.4303513  34.7290459
  60.9011307  36.7098541  35.4876976  30.6719170  49.6757660  35.4357033
  30.1739616  50.3376503  34.9559326  30.9315624  49.0408249  34.7681198
  73.8628616   6.7627320  31.6672916  73.4145966   6.5827169  30.8409252
  73.9829102   5.9014144  32.0672302  84.3521194  48.4839401  63.8822060
  83.7698364  49.2310905  64.0198593  83.7767334  47.7866173  63.5677185
  16.4265327  61.9705162  79.2792435  16.3908615  62.2668533  80.1887207
  17.2994957  61.5891953  79.1856537  66.9030533   9.3275299  58.1628304
  66.8972168   8.6159372  58.8030128  67.8296890   9.5373583  58.0463982
  73.9099808  65.2809982  52.2181320  74.4395523  66.0340424  51.9560013
  73.8864822  65.3258057  53.1739922  60.7841225  18.8421841  42.9780159
  61.5388718  19.4264183  42.9055138  61.0695839  18.0292492  42.5610275
  22.8066998  33.9568596  79.3126907  22.3158360  33.1953125  79.0039291
  22.6298199  34.6358795  78.6616287  31.6129818  51.9995995  75.4730606
  31.1774330  52.7939301  75.1639175  31.3506470  51.9241982  76.3905182
  53.4092064  43.2617035  29.8590031  54.2160912  43.7764320  29.8738155
  53.1796188  43.1496544  30.7814827  40.5928650  45.2660027  12.9558620
  40.1888504  46.1198616  13.1105642  40.0126305  44.8368912  12.3270369
  58.4106522  15.7307262  25.7844181  57.4737358  15.6636858  25.9686127
  58.4560242  16.1321583  24.9166470  35.1318474   7.8270507  81.3616028
  35.4039574   7.4125576  80.5428391  35.0437126   8.7547073  81.1427078
  31.0593967   4.4006329  54.8357162  30.6544800   3.9053621  55.5477448
  31.6617718   5.0015149  55.2742538  75.3192749   0.2203207  71.6894684
  74.8540878   0.6556796  72.4038239  75.8489456  -0.4496175  72.1217422
  14.7843933  60.7502708   2.1950073  14.7673759  61.7027397   2.2885551
  15.6623106  60.4972229   2.4804163  47.0722389  42.5621605   5.5207653
  46.9193497  41.6175346   5.5439367  47.5008202  42.7148361   4.6786003
  81.5589676  55.6882019   5.0952024  81.5062790  55.0797234   5.8322310
  82.2743301  55.3503571   4.5563612  11.1375771  35.8882828   8.2150908
  11.3861303  36.5953407   8.8105068  10.8019466  36.3360062   7.4384794
  58.6186752  28.5989380  48.9950027  58.4334641  29.5380478  48.9938660
  58.9381371  28.4188843  49.8791733  33.8075294   3.0564530  83.5161362
  32.9741859   2.6016734  83.3938980  34.3508034   2.7614939  82.7853241
  47.8864975   6.7256451  87.0768204  47.8212967   5.7936850  87.2852173
  47.4578438   7.1657696  87.8108368  67.2525558   7.1827254  75.0217438
  66.8542709   8.0475130  74.9230194  68.1647568   7.3636198  75.2484512
  44.3794403  63.6030731  24.6926060  45.0029831  63.6600189  25.4166107
  44.4686966  64.4381714  24.2333927  69.0586853  19.6886749  25.3772678
  69.6570587  19.7243786  24.6310101  68.9348526  20.6038475  25.6289768
  73.7754974  47.0072899   3.1990254  73.7216797  46.7176323   4.1097569
  74.7055740  47.1847687   3.0587008   8.5078239  42.4488678  12.9198914
   8.9131870  43.2976036  13.0975418   7.6625910  42.4887810  13.3673525
  57.8035812  19.6260929  52.6337700  58.6490173  19.9349480  52.3080788
  57.8579140  19.7361183  53.5830688  84.1164017   8.3835449  80.4853287
  84.1036835   8.9462299  79.7110825  84.2953873   7.5080562  80.1422348
  85.7606430  18.9816208  68.0501938  85.0474167  19.3055172  67.5000763
  85.3745575  18.2554703  68.5399628   8.5950937  31.1990547  79.1684189
   8.2809658  30.3009663  79.0635757   9.5082350  31.1682568  78.8830185
  65.2641602  26.3430271  79.8810959  64.5749512  25.7158661  80.0999374
  64.8253021  27.0039997  79.3456039  85.2026062  29.5934448  72.5856323
  84.9332809  30.4710274  72.8568268  84.4094467  29.0637550  72.6666489
  64.5431519   9.5005445  29.6553535  64.3637314  10.3444719  30.0698719
  65.4123154   9.2571507  29.9740181  14.2137280  41.8892174   3.4351788
  13.8678007  41.9132271   4.3273616  14.7722511  41.1121063   3.4156814
  44.1447105   7.5982838  20.8095837  44.7325897   8.1529770  21.3223686
  43.5595360   8.2135897  20.3677692  55.1648560  23.7641735  66.3136902
  54.2363014  23.9832745  66.2361450  55.3063431  23.0842705  65.6549454
  82.7266464  55.8633690  71.3821259  83.3167725  55.4883385  72.0358429
  82.2538300  56.5501404  71.8522491  63.6928062   4.8658080  35.3370132
  64.2123947   4.3923707  34.6873131  63.2244377   5.5299916  34.8313255
  33.3251724   8.4667406  15.9841537  33.0953217   7.5755472  16.2471619
  32.5553093   8.7830305  15.5113916  36.2517052  58.0063972  37.6799088
  35.5422134  57.6150360  37.1703110  36.9342995  57.3355217  37.6946716
  40.4682884   6.9279847  75.2778778  40.1072426   7.2133384  74.4385605
  41.3669815   6.6676044  75.0759125  58.4171143  54.7237358  80.3498154
  57.8604851  54.7675743  79.5723343  58.0447922  55.3718338  80.9477921
   6.8800936  24.2288475  26.1731739   7.8046708  24.4278584  26.0255795
   6.6175203  24.8199997  26.8787422  23.4963627  51.4106979  79.3007355
  24.3280258  50.9784889  79.4950562  23.7425327  52.1926460  78.8065796
  30.7696991  37.7310638  87.0247269  30.9369431  36.7914543  87.0981750
  29.9808960  37.8755150  87.5473785  61.6880226  21.3014736  30.3532600
  62.4643478  21.5662060  29.8598347  61.1684494  22.1017342  30.4297791
  46.4598846  20.2973862  67.3911285  47.3853416  20.4936504  67.2453918
  46.0585518  21.1492424  67.5628967  78.3993683  21.7065105  55.3167267
  78.6795120  21.1221313  56.0211754  78.3077393  21.1354637  54.5540047
  38.9590797   8.5029364  69.6527710  39.2655258   9.3162956  70.0537338
  38.4532814   8.7869797  68.8913727  78.4246597  14.4530706  83.3931503
  77.7584534  14.0619097  83.9583054  79.2050781  13.9178314  83.5369949
  18.0595226  52.6207771  12.7267361  18.8217430  52.9857788  12.2772598
  18.4215794  52.1904030  13.5012846  16.6571503  10.8163853  22.2190151
  15.8181715  10.8734989  21.7617588  16.8341198  11.7117481  22.5075283
  22.6263485  61.6716080  34.9172859  23.4490433  61.5403976  35.3886528
  21.9822121  61.8456688  35.6035995  15.4943228  56.4591827  14.1811152
  15.7181005  57.1048813  13.5108681  16.2636642  55.8921051  14.2337255
  39.7805214  19.2491798  85.0107422  39.9679909  19.0545368  85.9290085
  38.9498367  18.8065147  84.8368378   7.9886470  29.7259369  22.0222492
   7.7190466  30.0178432  21.1514225   8.8624706  29.3577194  21.8915596
  50.6513481   2.0229597  46.2540588  50.1390610   2.5722108  46.8474503
  50.0669708   1.2971958  46.0349693  74.3762741  10.4905205  18.7124348
  74.8111115  10.5112629  17.8599586  74.7127380  11.2599907  19.1717186
  56.1245117  40.4511032  42.9863739  56.2214508  39.6467590  42.4766045
  56.1776733  41.1533775  42.3381348   8.4772434  39.5665436  59.7664795
   8.6683664  40.4354897  59.4134445   9.1363859  39.4345779  60.4479103
   7.5707884  22.1815510   0.8083611   7.8060493  22.3609447  -0.1019698
   6.6663089  22.4850006   0.8862540  81.1851273  67.5912323  32.1880074
  80.4602585  67.9925079  32.6673660  80.9459534  67.6888733  31.2663288
  80.4849701  50.7453918  35.9323502  79.5943451  51.0747261  36.0529938
  80.3774109  49.9486923  35.4128036   0.3597881  41.8862038  30.4428272
  -0.3085897  41.2301025  30.6403999   1.1162237  41.3772507  30.1512775
  25.2132950  33.4514389   1.4805220  25.7789135  33.5657158   0.7168147
  24.3716831  33.8204155   1.2126112  19.7049274   5.4450459  47.7304344
  19.9974194   5.3069901  48.6313324  19.3128071   4.6099558  47.4752922
  74.1480255  54.1339912  72.4862137  74.5944138  53.7062759  73.2169876
  74.8548737  54.5034027  71.9569321  77.3189087  40.1768837  71.0733414
  77.8848648  39.4665947  71.3756943  77.1356125  39.9640808  70.1582718
  14.3912697  46.5407600  80.5131989  13.5186262  46.2606926  80.2369995
  14.3097858  46.6832314  81.4562225  75.0877228  22.5249023  78.0087128
  74.8118973  21.6414604  78.2530060  74.3607635  23.0860386  78.2786942
  48.4274292  15.1320362  11.4468231  48.3102188  14.9696417  12.3828363
  47.7532043  14.5993509  11.0250435  45.9732666   4.2121248  27.3235683
  45.4144554   4.5701547  26.6338024  45.3682404   3.9922335  28.0319633
   4.3184795  34.3549881  83.0306091   3.9091594  35.2154808  82.9398499
   5.2309494  34.5455475  83.2481384   1.0536157  15.9944429  88.2493896
   1.0340904  16.4059105  87.3853607   0.6495118  15.1371059  88.1155777
  46.8857193  25.9998379  58.8731613  46.5347939  25.7217884  59.7191925
  46.1606827  25.8757553  58.2606621  48.4047470  35.7358322   0.5551018
  48.4266014  35.5033417   1.4833813  49.3224449  35.8754539   0.3214938
  49.6460533  35.4482269  62.7587013  50.1475601  35.5537300  61.9502525
  48.9352875  34.8517914  62.5235405  86.1215820  52.3294411  57.5691490
  86.4021759  51.4250755  57.7092285  85.4176102  52.4628410  58.2038612
  62.4319191  19.6855202  47.8353539  62.6498413  20.5402699  48.2070312
  63.0132675  19.5975323  47.0800247  18.1453743   3.7728636   7.1315217
  18.4340477   3.3679695   6.3136220  17.5914230   4.5028458   6.8549409
  82.5802383  32.9398613   2.8932278  82.4913254  32.3639603   2.1338427
  81.7672348  32.8172035   3.3833435   5.0123887  38.1655006   0.5153527
   5.4930530  38.4559441   1.2904890   4.4356256  37.4725418   0.8368881
  77.0054550  44.3199234  56.9057045  77.4440536  45.1048813  57.2338867
  77.2544861  44.2746544  55.9825745  22.3994179   4.1547914  86.6249084
  22.8618107   3.4313204  87.0480042  22.3395920   3.8956904  85.7053833
   8.6909685  47.0670624  26.4375687   8.8625603  46.3969154  25.7759838
   7.8578057  46.8075256  26.8309040  15.6582670  16.1749210  82.3071289
  16.3100300  15.9045019  81.6603622  15.0687857  16.7548923  81.8250732
  11.4216576  48.2030258  72.4258652  11.4799519  47.3987579  71.9101334
  12.3246031  48.5149612  72.4860077   0.8065251  51.9136353  76.1447906
   1.0121720  52.7944832  75.8316574   1.0292076  51.3405685  75.4111481
  18.8246765  54.4664764  31.9263840  18.5390110  53.7021179  31.4259987
  18.8663483  54.1582184  32.8316307  30.7544823   3.7793753  80.1169052
  30.2998257   4.4949861  79.6725845  31.3977222   3.4712985  79.4785004
  31.5591087   7.7962842  54.6025047  32.1892700   7.9000082  55.3155060
  32.0989723   7.6924615  53.8189240   5.4903941  47.0818214  79.7533875
   4.6691923  47.0124512  80.2402573   5.2733326  47.6216278  78.9933014
  22.9521332  54.8216705   7.7824340  22.3885841  54.0480194   7.7723036
  23.7806358  54.5097389   8.1464586   9.6554394  66.7947388  28.7155876
   8.8473148  66.6781769  28.2160091   9.8509111  67.7287445  28.6403751
  51.5008202  18.7034206  67.9041443  51.5709991  17.7572002  67.7777634
  52.0442429  19.0785732  67.2111969  59.1679001   2.2828176   5.1161947
  59.5875359   1.6745280   4.5078168  58.6546822   2.8654978   4.5564427
  38.3060074  19.1346874  14.8187571  38.1906967  19.7031593  14.0573292
  39.2530212  19.0121441  14.8849440  31.8178692  64.4189606  26.8338337
  31.4540691  63.5766754  26.5610161  31.3295975  65.0666656  26.3255920
   2.7593725  20.2796688  68.6145401   1.9101043  20.5513706  68.2664719
   3.3282485  21.0369740  68.4763336  83.0743942  47.5940323  80.3905716
  83.7980728  47.0692673  80.7328339  82.6947174  48.0115738  81.1637039
  58.4674149  60.3025475  27.4999447  58.9471741  60.2814331  26.6719246
  57.9727821  61.1214714  27.4693489  31.2721519  67.3878326   1.4763403
  31.5416031  67.5462341   0.5716097  30.6585674  66.6554184   1.4187720
  47.8906364  51.8937073  19.9605350  47.2412453  52.5120811  19.6256676
  47.6560097  51.0580368  19.5569954  27.8070507  52.2663574  47.0269775
  28.4603863  52.4477959  47.7025986  27.0382767  51.9659691  47.5117264
  81.7479401   7.6597171  51.9791183  81.7058716   6.9503732  52.6204414
  81.9304810   7.2208982  51.1482468  63.9811745   1.4266695  24.5125523
  63.4178772   0.7590895  24.9040432  64.5455017   1.7146795  25.2300568
  39.2527237  61.4007835  21.4050846  39.6028137  60.6362915  21.8624897
  39.8594322  61.5438919  20.6786861  12.2390518  18.7910423  74.4986343
  12.0361996  18.0107250  73.9827042  11.8575859  18.6153069  75.3587723
   5.8910217  63.9426193  61.9592094   6.4093757  63.1384621  61.9888039
   4.9841866  63.6411552  61.9044151  73.3038712  28.7416782   7.4061961
  73.5810699  29.5543442   7.8292403  74.0092239  28.5388374   6.7917347
  77.2628250  21.9877319  27.7944622  77.4902573  22.9122944  27.6960201
  76.9133453  21.7347584  26.9400043   4.0086336   1.2846832  42.1332016
   4.1710830   0.5330054  41.5632706   4.7001233   1.2385061  42.7934608
  78.4121399  58.8849106  53.2664452  77.5444870  58.4911575  53.1749611
  78.6012192  58.8328323  54.2033386   0.1687342  69.2503662  37.8826447
   0.2554036  69.0824814  36.9442749   0.9238197  69.7975006  38.0988159
  55.4750557   8.1361704  29.0746918  54.9235306   7.3556666  29.1282310
  55.2985001   8.6103964  29.8872013   9.6663284  50.4873047  66.8465881
   9.9852819  51.3800697  66.9787445  10.2740660  49.9397926  67.3436966
   4.9690170  49.1880646  27.2025547   4.0406651  49.1595001  26.9710827
   5.1824913  48.2878151  27.4479256   3.7702999  21.8431892  40.0202446
   3.4908359  21.3522015  39.2475433   3.3017616  22.6755180  39.9575233
  75.0760574   4.4290094   6.4002786  74.8989563   4.9379873   7.1913586
  74.9289398   5.0441098   5.6817813  44.7874680  59.1821251   5.2728825
  44.3901978  58.4529991   5.7490959  45.1253319  59.7595787   5.9574480
  13.7879639  32.3645706  17.5442924  14.1445513  33.0275612  18.1354942
  13.7269382  31.5737667  18.0801449  67.8514481  36.8963242  73.9676895
  67.8994064  37.1787071  74.8810272  67.9647064  35.9465561  74.0043716
  29.4526806  53.8786774  77.4451675  29.9898930  54.6435242  77.6516800
  29.9116211  53.1457672  77.8555908  29.3311596  52.6537971  72.3013611
  29.8494911  52.4170341  71.5322723  29.6570492  52.0808640  72.9954681
  63.9455528  65.4179459  75.0281448  64.6145020  65.1191940  75.6441727
  64.3756256  66.1086044  74.5239105  63.6093445  35.2568817  58.6089897
  64.0129471  36.0292549  59.0049400  64.2868652  34.5823021  58.6552467
  64.3520050   1.1833444  57.8030663  64.5891800   0.5085053  58.4391251
  63.5436707   1.5633372  58.1472015   4.0377975  16.1070213  47.5029106
   3.6917272  15.2585602  47.2261772   4.8612118  16.1977882  47.0233459
  72.6814423  34.7101097  28.9856033  73.1387939  33.8698349  29.0171852
  71.8771515  34.5639000  29.4835701  21.5513573   4.7608247   3.8288751
  22.1751823   4.7558842   3.1028943  21.5273418   5.6730542   4.1178255
   9.5649099  12.8267145  88.6318665   8.7338018  13.2495270  88.4157181
   9.5185099  11.9731245  88.2012100  84.9114761  22.8515701  54.4097176
  85.5208664  22.6353912  55.1155090  84.4532700  23.6326923  54.7197685
  20.8693371  14.3215885   3.1659031  20.9155674  14.2208481   2.2151423
  21.6392708  13.8568602   3.4937150  28.4275169   3.0354800  55.9811516
  27.8134518   2.3193505  55.8189354  27.9182186   3.6814616  56.4705963
  32.9700203  18.9719830  77.4781265  32.6578178  18.0691853  77.4171600
  33.8749504  18.9338951  77.1684723  73.1499939  40.1014595   2.1740532
  72.7364960  39.2622414   2.3764374  73.5867538  39.9570160   1.3346444
  19.3558826  50.6217690  82.6508789  18.9840279  51.0563011  81.8833237
  20.3017082  50.7325554  82.5540619  59.4727821  51.8213882  54.6199112
  60.1444550  52.0782661  55.2516556  59.5476112  50.8687096  54.5648232
  62.7812271  62.5894737  20.2640400  62.0870438  62.4705887  19.6158047
  63.1482811  63.4511719  20.0666065  68.6251678   9.9284639  -0.0684523
  68.4142685   9.9997826   0.8624958  68.5809555   8.9902363  -0.2528587
   9.9127970  44.5178680  68.8787155  10.4887505  43.8389282  68.5272141
   9.1270895  44.0460396  69.1548843  20.1040192  32.5793419  62.6588669
  20.7681084  33.2044258  62.3682022  19.3223438  32.8094788  62.1566200
  22.4975548  22.2460194   3.1963031  22.4895802  21.5123711   2.5815442
  23.0002060  22.9272823   2.7496972  79.7178268  60.0243683  72.9403152
  79.3622894  60.9128265  72.9619064  79.4685974  59.6875000  72.0797119
  54.4634132  57.9378967  76.5934601  54.4902916  57.9836464  75.6377258
  53.5841866  57.6165199  76.7932281  37.3854790  62.3865089  88.0351791
  37.5763588  62.7859154  87.1864929  36.4424324  62.5047188  88.1488495
  13.2613935  16.4339828  19.4968433  13.3619585  17.2394581  20.0041199
  14.0545588  16.3864574  18.9631195  51.8165550  54.3350563  87.9720306
  51.4292946  54.3230095  88.8473129  51.0732765  54.4648361  87.3830261
  52.8001289  11.3622513   3.9398930  53.0991669  12.2193470   4.2435327
  52.6618042  10.8588095   4.7421670   7.4018674  29.3027935   5.0734310
   8.2586889  29.4903393   5.4567256   7.2964602  28.3567276   5.1738381
   9.4458828  37.4017868  75.6694183   8.6153660  37.1018562  76.0389023
   9.8887453  37.8371582  76.3978119  69.2298050  36.4869995  44.2296181
  69.8244858  36.2909164  44.9535980  69.1361923  35.6555672  43.7646599
  55.3610077  46.9779282  24.2175827  54.4770355  46.8495712  24.5616035
  55.8767319  46.2759476  24.6144295  84.1355057  19.7041264  16.9680824
  83.3390656  19.6817493  17.4985771  84.0878601  20.5374527  16.4995422
   7.2482929  55.8815689  49.5745773   7.6527753  56.5102768  48.9767876
   6.9788127  56.4067535  50.3280983  77.5950012  35.6406746  35.4023323
  76.8683624  35.2427139  34.9229050  77.2107468  35.9154396  36.2348480
  17.5855598  30.2391777  19.1530609  16.8586330  29.8236408  19.6168900
  17.5826817  31.1441193  19.4649944  18.8891773  69.9815445  32.6132698
  18.8405647  70.7682953  32.0702286  18.4389877  70.2213898  33.4232292
  82.9231491   2.4559901  47.8955498  82.4703751   2.6323719  47.0708580
  83.7983093   2.1714332  47.6322021   8.6875725  34.2803802   8.6882515
   8.3508873  34.4780350   9.5622129   9.2971487  34.9938126   8.4994116
  81.5446548  43.4770012  49.3834381  82.4806900  43.4414711  49.5804443
  81.1409683  42.9027176  50.0341797   8.6411724  46.5545959  67.0274200
   8.9371033  46.1383553  67.8369904   7.8566318  47.0408249  67.2810135
  39.4605522   1.8956640  14.7316761  38.6627274   1.7182698  14.2334433
  39.6418800   1.0768114  15.1930151  33.4204636  36.5037460   3.2376339
  34.3627090  36.4796982   3.4044604  33.3050079  35.9860077   2.4408615
  74.7535400  67.7237091  29.5974007  74.3080902  67.3712692  30.3678551
  75.6664505  67.4570541  29.7056656  49.5450134  41.1086121  20.5573368
  50.1989250  41.0012817  21.2480679  49.5065918  40.2534981  20.1289272
  77.4971542  61.5357857  17.8866882  77.4933853  62.4408379  17.5750790
  78.3912277  61.2321281  17.7296658  17.5445900  17.3474846   8.7453566
  16.7726879  17.4586945   8.1903524  18.1118870  16.7559395   8.2509050
  45.4952888   8.1895342  64.1075211  45.9425163   8.1291666  64.9516678
  46.1882324   8.4082661  63.4844513  62.1312561  26.7283363  28.1574211
  61.8360634  27.5056553  28.6316242  61.3642159  26.1561909  28.1343365
  65.3664017  66.6605606   1.1253837  65.3673782  67.5123672   1.5620221
  65.9952545  66.1364212   1.6214254  44.5903244  21.9316635  68.3617630
  43.6978073  21.8052883  68.0397797  44.6555710  22.8728352  68.5235367
  83.6393204   2.6504152  85.9969864  83.3981552   2.2298515  86.8223343
  84.0082169   3.4945011  86.2571182  64.1652832  10.9705124   5.1152091
  64.3659439  10.5855255   5.9682922  65.0208206  11.1720171   4.7361603
  15.5600119  44.0653076  79.7279282  15.1939526  44.9398651  79.8597641
  15.2733564  43.5677376  80.4937515  66.4233170  35.2804260  20.5537968
  66.5960236  35.9179611  21.2465839  65.5084381  35.4286728  20.3145237
   6.9070020  61.4462547  85.4336014   6.4877253  61.7649422  84.6343079
   7.7782664  61.8424644  85.4213715  71.0430298  29.7963924  49.4413986
  70.1405640  29.6289940  49.1698036  71.5419540  29.8014946  48.6245270
  38.3333015  53.8122253  33.9322014  38.6243782  53.4188461  33.1095467
  38.2848969  53.0782585  34.5447235  36.7597046  55.2237587  10.8917646
  36.0908165  55.4330330  10.2398281  36.8098526  56.0048866  11.4427195
  31.8500061  68.6400146  86.7706528  31.9395790  69.2325058  86.0242233
  31.3829670  69.1537781  87.4295578  67.6686478  26.9764080  22.7458458
  67.5021210  26.6357327  21.8669605  68.1748886  27.7757530  22.6009350
  45.7008667  54.4652557  72.4722519  45.0052414  54.1967926  71.8720322
  45.4637375  55.3558846  72.7306747   8.1750584  57.0132332  20.3027229
   8.0154676  56.0813217  20.1533623   8.6421871  57.0454407  21.1375790
  69.3509064   7.9966607  22.8171978  70.3074570   8.0220871  22.7928486
  69.1399536   7.0785122  22.9867058  83.6307831  48.2258339   9.2208662
  83.2551956  48.6115036   8.4293976  84.3321686  48.8273544   9.4708033
  29.4376965  52.3979988  83.2821045  28.6842041  52.2927666  83.8629761
  29.0596294  52.4336586  82.4034576  80.4611130  57.0308838  15.4643307
  79.7689209  57.0349922  16.1254539  81.1842957  56.5592880  15.8776541
   2.0154850   2.2600036   8.0764561   1.2838849   2.7956929   8.3830996
   2.2941403   1.7698215   8.8499575  33.3150368  59.2155457  84.3873596
  33.3047142  58.3082924  84.0823822  33.7763290  59.6944504  83.6988220
  18.7854595  33.0073166  12.4421282  18.4312572  32.2193947  12.8543816
  18.2901363  33.0948524  11.6277418  74.3852310  19.4860592  11.9779987
  73.6428146  19.3588734  12.5686493  74.5461349  18.6191521  11.6054201
  36.7820778  70.5742340  46.6642189  36.6176567  71.4450836  46.3025360
  36.0131798  70.0619202  46.4140892  52.2389641   6.6119394  78.1729813
  52.3202286   5.7449751  78.5704727  52.6095848   6.5092363  77.2964401
  17.3023605  66.4510727   6.2459149  17.5458508  66.8395538   5.4056602
  18.1074257  66.0414963   6.5626941   0.0315239   9.5619354  84.4896011
   0.1505388  10.4239368  84.0908279   0.5495479   9.5964718  85.2937775
  50.5651054  66.0081100  80.3214798  49.7883339  66.4090576  80.7114792
  51.1805038  66.7333069  80.2137756  63.3808136  25.8747005  39.7770081
  63.9791069  26.4485188  39.2984581  63.5101509  25.0118980  39.3832130
  83.9000854  50.0339661   1.8756343  84.1702042  49.3038177   1.3187197
  84.4798737  50.7533112   1.6254100   5.5622363  55.7962265  42.2610207
   5.1893401  55.8108063  41.3795624   5.8045650  54.8812294  42.4034615
   6.7522483  38.3149719   3.0187068   7.7023301  38.2595825   3.1212194
   6.5481229  39.2374153   3.1725309  22.6815338  67.3340302  15.7247496
  23.6107540  67.5488968  15.8060627  22.3881569  67.8260040  14.9578562
   3.9337766  13.9123373  34.6587257   3.7354646  13.5039978  33.8160172
   4.1111741  13.1770372  35.2453232  39.4166489  51.7935677  28.4082966
  39.4736519  52.5605354  27.8384342  38.9482384  52.1049347  29.1828136
  13.3374615  63.1850929  28.8210983  12.6781263  63.7791405  29.1797295
  13.8986549  63.7455521  28.2852077   5.4228597   3.7865124  61.7535133
   5.2780447   4.6887832  62.0384140   5.9508071   3.3970652  62.4505310
  65.6791611   7.7442474  72.5800247  65.9979477   8.1786852  71.7889023
  66.3775787   7.8727751  73.2218323  25.4716682  67.6549606  48.5310478
  24.5526772  67.9085007  48.4449883  25.8354206  67.7712708  47.6533318
  19.6112576  19.4874401   2.4637520  20.0638351  19.9641552   1.7679437
  20.2181244  19.5103073   3.2036324  75.5649643  53.0795135  36.4972267
  74.9390717  52.5926018  35.9611206  75.6070480  52.5910797  37.3193550
  62.7022896  71.2602005  26.1726131  61.8786926  70.9128876  25.8301334
  62.4751968  71.6087341  27.0346928   0.1189472  19.3929672  16.5184708
  -0.6346195  19.7354527  16.9991722   0.8787073  19.7081013  17.0080490
   6.5072799   2.2555854  80.6442032   7.4446630   2.2164679  80.4544220
   6.1138825   1.6273159  80.0386047  42.2699280  37.3486252  52.2255974
  42.3750267  36.7625465  52.9750633  42.5159302  36.8163910  51.4689980
  24.6962128   4.7562165  63.0350380  24.7459354   5.7052050  63.1498413
  23.8031368   4.5300012  63.2947998  60.9041252  11.6284332  16.1382446
  61.4825706  11.8690071  15.4145355  60.0296974  11.6082354  15.7493992
  10.8251038  21.1944733   9.7468729  10.0185976  20.6981335   9.8862534
  11.2546206  20.7527409   9.0143299  56.7721672  57.9746475  64.2486572
  56.6513634  58.2184944  63.3309555  57.2699280  57.1577072  64.2158813
  48.7265816   6.7682629  61.7860184  47.8481674   7.1392479  61.7024002
  48.5805283   5.8740263  62.0946312  41.8204651  10.3337660  83.1113739
  42.2027245   9.9455299  83.8983841  41.5569954   9.5838203  82.5780869
  76.3270187  47.3448639  15.8755007  77.0948334  46.7774849  15.8064184
  75.5825348  46.7570572  15.7472467  36.5023537  44.9775848  40.6131477
  36.2021828  45.8818016  40.7054443  35.6998253  44.4698753  40.4931145
  12.6491747  29.9603767  80.2057114  12.7506065  30.7174168  80.7826233
  12.2101393  30.3079662  79.4293976  85.0595703  19.0499954  60.7775803
  84.5840073  19.7285233  60.2983360  84.9957199  19.3153667  61.6950417
  42.7555580  37.0340652   2.3352406  42.0919571  37.6575966   2.0401497
  42.5969620  36.2493095   1.8106093  16.0944462  50.5905266  28.7269459
  15.3296871  50.1023598  29.0320206  15.7314510  51.3879814  28.3415527
  85.3826752  16.7424736  69.2596283  84.7795715  16.0215015  69.0788040
  85.9446487  16.4143085  69.9615707  81.9239960  60.1942291  34.0476494
  81.6284637  60.5083504  33.1931229  82.0627441  60.9903755  34.5606155
  44.2738113  32.7438469  64.3663635  45.0992928  33.1663780  64.6036148
  44.5348434  31.9063892  63.9832764  77.9699173  50.8230171  69.8093948
  77.3466263  50.5373268  70.4773254  77.5389023  50.6231003  68.9784393
   8.1875315  64.5819321   1.3136760   7.2875943  64.4501495   1.6119685
   8.1442575  65.3604813   0.7584957  61.8259735  45.8648491  21.7643318
  62.6863022  45.6108513  21.4303398  61.9955139  46.1695213  22.6557713
  66.7579422   0.6426178  71.1346588  67.2300797   1.1724166  71.7770309
  65.9087677   1.0751895  71.0451279  36.5597496  69.7678757  17.3479137
  36.2376289  70.0154800  18.2146111  36.0426369  68.9979630  17.1111546
  11.3289995  56.8787918  50.7506180  11.4065018  56.2836113  50.0049782
  11.6682129  56.3784027  51.4927635   6.7594495  49.9096375  72.3618088
   6.3153067  49.0624580  72.3263550   6.7076163  50.1689262  73.2817612
  71.3965073  26.4606667  89.1472473  70.9588547  27.1283760  89.6753159
  71.2471161  26.7349758  88.2424469  75.5061722   8.2012539  86.0569458
  74.9111328   7.4888496  85.8232117  75.5823364   8.1469049  87.0095596
  11.2127390  36.8639832  54.0637894  10.6141205  37.5304184  54.4010620
  12.0555067  37.0731392  54.4665642  84.4623489  28.6305294   6.1290536
  83.8466415  27.9925823   6.4898295  84.1924210  28.7343979   5.2165937
  48.8596764  52.0684814  87.9516907  48.9841919  51.6383095  88.7976685
  48.6741066  51.3526001  87.3439789  21.1653366  41.4632454  66.4784927
  21.3565025  41.6486931  65.5590973  20.2349472  41.2385330  66.4890747
   2.3340106  28.9158192   0.8471538   2.8113453  29.6321583   0.4285341
   2.3738055  29.1157951   1.7823852  44.9889793  25.7622776   1.0635216
  44.4671364  25.0657177   0.6651273  45.0130081  26.4524822   0.4007451
  67.3207169  34.9322357  54.6055565  67.4791260  35.3368797  55.4584312
  66.5017853  35.3245201  54.3027382  33.3823280  35.3856354  82.0455475
  33.5322685  35.9913788  81.3197174  33.1352043  34.5627518  81.6236191
   7.7361007   1.7012550  52.4546967   7.8560333   2.6437130  52.3379860
   8.5821285   1.3210529  52.2182312  25.4874516  10.9194965  10.1708460
  25.5811977   9.9881458   9.9707727  24.6256809  11.1530323   9.8258171
  49.8250656  55.3014679  43.0880165  48.9223442  55.0575218  43.2925110
  50.0804710  54.7057152  42.3836861  62.9934006  69.1167221  64.4367294
  63.8389435  68.9503937  64.8534164  63.2109756  69.5914154  63.6345062
  35.2993889  66.1598663  30.7754517  35.0493660  67.0832977  30.8070602
  34.5733833  65.7005768  31.1975861  33.6765747  56.5492134  26.7901497
  32.9487190  56.1877403  26.2843895  33.2908936  56.7761192  27.6363182
  73.1990204  59.9514999  51.3678589  73.1375122  60.7657776  51.8672638
  72.8143158  60.1626244  50.5171776  21.4601288  55.2965698  31.8108082
  20.5478992  55.0157585  31.8830242  21.9409924  54.4964447  31.5991459
  42.7731476  67.8227615  49.2865105  42.2117004  68.5501480  49.5546799
  42.3263893  67.0420609  49.6138420  40.1159134  66.2164688  11.4184513
  40.8815117  66.7897797  11.3809681  39.3787880  66.8102570  11.5609245
  17.9994965  62.8183899  18.0505619  17.9756985  61.8662186  17.9554939
  17.7965546  63.1515160  17.1764488   6.4288225  67.0531464  33.6883621
   6.3205585  66.9220581  34.6303406   6.4838958  66.1680298  33.3281288
  52.3950500  68.0242310  43.6758003  52.1011963  67.1437607  43.9095726
  52.5601654  67.9794540  42.7340126  30.7326031  14.1776104   3.0302525
  31.0317955  13.7784767   2.2133024  30.5886669  13.4373884   3.6198156
  62.3315010  31.6837826  24.7498569  62.0279655  30.7760792  24.7630825
  62.2179909  31.9874363  25.6504898  28.4706383  44.5055809  65.0889893
  29.1252537  44.1942215  64.4638824  27.6334782  44.2268677  64.7178955
  26.8070450  46.5014458   7.9277396  26.8396854  46.4326897   8.8819084
  27.1747665  45.6747627   7.6153178  64.4963150  20.8123989  82.5262985
  64.8685760  19.9396858  82.3997040  65.2145157  21.4111481  82.3215561
   6.2134032  17.7115211  65.5279236   5.6254954  17.7462692  66.2825012
   6.3143001  18.6250916  65.2606430  22.1024742  25.0067978  81.2081223
  21.9283962  24.0658569  81.2317734  21.3294353  25.3828831  80.7871704
  37.7135391  41.9936104  88.4761887  36.7649498  41.8934555  88.5560455
  37.9617958  41.3800507  87.7847061  51.6445465   8.6313334  71.8257980
  51.3556137   7.8567905  71.3432693  52.1026421   9.1623116  71.1743088
   1.7660713  11.1702099  10.4140015   1.0849917  10.7205076   9.9138708
   1.7627373  10.7362318  11.2671623  23.5099831  45.0854797  13.4741783
  24.1276951  45.0589142  12.7434530  22.6509857  45.1626549  13.0589695
  75.3737259  16.0811634   3.8970549  74.7458878  16.7957973   4.0035810
  76.2303619  16.5041695   3.9559884  16.0974712  71.5341034  65.7115097
  15.8984966  71.3474350  66.6290054  15.7362223  70.7888031  65.2316589
  28.2213287  48.2045135  76.4541016  28.8463497  48.0600624  75.7436676
  28.3451519  47.4561386  77.0379105  25.6872826  65.2421036  49.9290390
  25.6560745  65.8763275  49.2127876  24.7875595  65.2025909  50.2533379
  28.9252758  51.6512527  66.4600525  28.0135174  51.3856201  66.5799179
  28.8764668  52.5803833  66.2351837  80.5322418  14.5694275   9.0060883
  81.4577789  14.8126307   9.0277224  80.0996857  15.2241554   9.5542250
  60.4647903   7.9095168   3.2359405  59.9047241   7.6611648   3.9713848
  60.3133583   8.8482323   3.1258817  64.3189621  25.6256847  47.9676056
  64.6373291  26.1199799  47.2122574  63.4411736  25.9721355  48.1278687
  80.2927856   8.4304676  75.5008011  80.8193512   8.5952702  76.2829819
  79.4571152   8.1079273  75.8382263  53.6849174   5.7264490  38.9363327
  53.3362198   4.8408680  38.8344154  53.8622894   6.0183973  38.0421638
  12.3703537  68.5781784  34.9635162  11.5372248  68.1502762  34.7659569
  12.9229631  68.3880310  34.2054291  28.2293015  56.4119987  30.4241695
  27.8858166  56.9068375  31.1680698  28.2847633  55.5105400  30.7412319
  46.0605774  57.9638710  29.2127151  45.1141548  58.0749550  29.3031368
  46.2842026  57.2860832  29.8505459  44.8982658  44.9766426  47.9101562
  44.2531128  44.4432144  47.4459724  44.3874741  45.6880379  48.2964745
  11.2234535  18.5765572  17.2367649  10.8740110  19.2798920  17.7839794
  11.0844402  17.7813511  17.7511139  38.6765747  41.8699646   6.6094813
  38.4606514  42.3265724   5.7963896  37.8283081  41.6820068   7.0111580
  75.3017044  44.3495026  75.5712967  76.1548843  44.6192284  75.9112396
  75.0188293  43.6507874  76.1612244  46.5851746  24.0110855  61.0655670
  47.4701271  24.3392143  61.2250175  46.3860931  23.4759712  61.8338432
  50.2860069  29.8471413  14.2399797  51.1299934  30.1606598  13.9149799
  50.3871231  28.8966694  14.2910910  80.9330978  71.0096436  15.0672750
  80.6569366  71.7043152  14.4694471  80.5679626  70.2094650  14.6896267
  50.7613754  50.0978394  62.0616150  50.2625008  49.8382187  61.2870483
  51.1699944  49.2875328  62.3660202  42.4266548  62.7887306   2.7999973
  42.3389702  63.7234001   2.9869111  42.7639923  62.4125175   3.6129541
  78.8385010  53.4838333  53.1870041  78.6734619  53.4333153  54.1285133
  78.7804031  54.4173241  52.9834061  65.5672150   2.6834335  36.8927841
  65.1891937   3.5159960  37.1759262  64.8687820   2.0437663  37.0314980
  37.8959694  41.2912140  54.9425621  37.9177551  40.9202003  54.0604591
  37.6450577  42.2056198  54.8116646  79.6972427  16.6722603  39.9715881
  80.2852707  16.0144653  39.6004181  78.9101028  16.1825867  40.2100487
   8.3300571   3.2734728  47.6943779   9.1295042   2.7490649  47.7403488
   7.6747966   2.6796114  47.3280525  35.1032867  11.7113180  85.9824066
  35.0022430  11.6194754  85.0349960  35.5778732  10.9243269  86.2500687
  14.7603579  52.9821434   0.6344769  15.0481796  52.5465202  -0.1677845
  15.0406113  52.3971939   1.3384125  46.9380493  32.8925934   7.0741425
  47.4753838  33.6447525   7.3226662  46.1794052  33.2753601   6.6334810
  28.7675457  51.7242546  80.6499100  29.3211174  50.9739151  80.8662109
  28.2687397  51.4409065  79.8836594  49.3595352  49.6104317  59.7606773
  49.4680481  49.6859093  58.8126450  48.5812035  50.1326180  59.9549904
  18.2593575  57.9966888   4.6437221  18.9908676  58.6095161   4.7183275
  18.2524471  57.7431984   3.7207234   9.1606016  40.2537498  72.8270264
   9.6837969  39.4663734  72.6769104   9.5252876  40.9020996  72.2246323
  45.3130684  41.1802101   7.8438458  45.3121185  41.8710670   8.5063772
  46.2225037  41.1322517   7.5491228   7.4524927  28.5325737  78.1160202
   7.4851418  27.6863842  78.5622559   7.4184256  28.3114052  77.1853485
  72.4393158  16.7967663  82.7703857  71.7215271  16.4154949  83.2760010
  72.0061417  17.3344955  82.1074905  20.0756893  67.7351837  44.2478485
  19.4720898  67.0540924  44.5445175  20.0059338  67.7178497  43.2933502
  23.9630947  27.5278130   5.0906496  24.4341908  28.3229351   4.8414884
  24.2282028  26.8783302   4.4394035  40.8721161  40.8332710  26.7875633
  40.8515968  41.0958786  25.8673210  39.9520531  40.8100853  27.0505886
  73.7085342  29.6320057  84.6697235  73.8377228  30.5083218  85.0325012
  73.6772003  29.7670937  83.7226181   2.3889863  16.6970158   1.5161884
   3.2859733  16.4778919   1.2639350   1.9765218  16.9901886   0.7036895
  37.5819626   1.8329662  75.0206451  37.9744072   2.6454871  75.3400650
  37.2061310   1.4255487  75.8010330  27.9250984  50.0145035  40.8339767
  27.9218521  50.8323593  41.3312988  27.6695461  50.2718315  39.9481392
  25.3133698  68.6990433  84.4085083  25.8604279  67.9719772  84.7057190
  24.4571075  68.5309219  84.8019333  76.8532333  18.3608971  65.4351578
  77.6909637  18.4958992  65.8781128  76.8737717  17.4449635  65.1578903
   2.5229909  17.4851933  79.5195236   2.2219424  17.5475464  78.6130371
   3.3438392  17.9773731  79.5336761  20.3864880  33.1497269  71.2400818
  20.7744160  32.5733185  71.8984909  21.0356998  33.1817818  70.5374298
  61.0681343  56.5287056  53.2814217  61.9959717  56.7220840  53.1474304
  61.0501556  55.9656258  54.0552788  33.5180740  18.5149479  88.1399307
  33.6599350  18.5048161  87.1933517  32.6719170  18.0838394  88.2599335
  54.2426567  17.4888592  84.5242462  53.2976456  17.5203171  84.6732178
  54.5053558  18.4069099  84.4578629  61.0300522  12.7837105  70.1209641
  61.7253227  13.2136736  69.6230011  60.2660599  13.3479395  70.0018311
  66.1094055  52.6270180  79.9463882  65.9870148  52.4680939  80.8823318
  65.2249298  52.7721443  79.6104202  32.0224762  48.8025970  65.6369400
  32.7671051  49.1341934  66.1387482  31.5531235  48.2370834  66.2502365
  70.8992462  52.3799820   7.1635695  69.9596024  52.4474831   6.9940190
  71.1514130  53.2525673   7.4656320  30.6744308  66.6167908  39.3182793
  30.9327965  67.3818893  39.8321838  30.5402927  65.9263458  39.9675293
   0.4174797  10.0348682  58.4447136   1.2096449   9.8971930  57.9253387
  -0.2967345   9.7604771  57.8695259   0.0102016  20.5161858  85.3115311
   0.9370216  20.3531666  85.4866333  -0.4439908  20.1609669  86.0755692
  33.9053535  64.8127289  69.7953262  33.7336464  63.9212265  70.0985947
  34.2538528  64.7018509  68.9107437  44.6354675  12.3073311  12.2469254
  44.2365761  11.4419298  12.3374577  44.2545738  12.6638622  11.4444056
  83.0247345  10.9830523  75.1141891  82.2241821  10.7425508  74.6478195
  83.1380234  10.2925787  75.7673721   2.5462213  67.8809204   2.7183831
   3.4536529  67.6975555   2.4751189   2.4577425  68.8285522   2.6164739
  22.2151489  42.2400703  60.3652077  22.8782368  42.5557098  59.7512665
  22.0897903  42.9659653  60.9764328  24.0080814  42.4679527  14.2077370
  23.9026413  43.4175911  14.2652359  23.4249401  42.2048988  13.4957113
  83.4929504  16.9658489   0.2186246  84.3616638  16.5653667   0.2531343
  83.1690750  16.9132462   1.1178271  29.5735188  57.9954300  61.7226868
  30.1837845  57.5407143  62.3032379  29.8797016  57.7844276  60.8406639
  26.7903671  48.8885269  88.8879852  26.1419754  49.3758545  88.3797226
  27.2047119  48.3057213  88.2516708  32.8589973  38.5483627  72.6809464
  32.7731171  39.4838295  72.8646622  33.3384895  38.5098305  71.8533936
  86.7561951   2.3594444  16.6052532  86.5912018   2.8921041  17.3832531
  86.0971451   1.6664162  16.6452942  30.6459694  26.6274529  86.3949203
  30.2475128  25.9902210  85.8021317  31.5292358  26.2920589  86.5485001
  67.2172089   7.7987275  47.7524452  66.6427994   8.3186626  47.1903534
  67.8525543   7.4098477  47.1513290  46.9280586  43.0361214   9.7210436
  47.8280716  42.8710632  10.0020580  46.5684929  43.6125221  10.3953590
  38.9061699  38.7065697  64.8852844  38.2139664  38.4667130  64.2692032
  39.7159500  38.4343758  64.4535446  76.6833496  32.9811249   3.3879261
  76.1976089  32.2322388   3.7335577  76.0956421  33.3693085   2.7397444
  81.1301498  40.7422104  31.3529892  81.2506485  41.1074409  30.4764519
  80.1815720  40.6567497  31.4485321  56.7150307   9.6493120  68.9953156
  56.6429901   9.8915558  69.9185486  55.8150978   9.4677706  68.7243958
  48.5438652  43.5475464  77.5109406  47.6278458  43.7204361  77.2935715
  49.0403595  44.1325378  76.9386597  85.0181503   6.1334901  73.6329422
  84.2723999   6.5274825  73.1803360  85.4332428   6.8640294  74.0914688
  51.6128502  36.4802132  64.2968063  50.9418983  35.8970108  63.9419289
  52.3870811  36.3088188  63.7606888  68.5104446  15.8782310  42.7462730
  67.8621826  16.4453888  42.3287621  68.5469284  15.1031227  42.1858177
  21.9842052  14.6358881  89.4654388  22.2731380  15.5205603  89.2416000
  21.8976917  14.1915951  88.6220245  62.8121986  53.3390312  44.6677704
  62.8209801  52.4527054  44.3064079  62.5869293  53.2193222  45.5903511
  14.3552122  28.2371407  70.8558121  15.1971664  28.0221920  71.2572403
  14.5387869  29.0006790  70.3085098  10.0620546  23.7223473  56.3796654
  10.7417479  23.2193012  56.8282127  10.4246368  23.8928757  55.5103645
  39.1614113  28.2483501   7.9205437  40.0853310  28.4953671   7.9604087
  38.6978493  28.9919052   8.3058605  69.9769821  32.0233917  55.2227173
  69.6685104  32.9011803  55.4475784  70.1724930  32.0706520  54.2868881
   2.4728434  22.5255280  87.2836990   2.2360063  21.6893253  86.8825684
   1.6350797  22.9593334  87.4455490  77.8512573  54.4214211  30.0580330
  77.1160889  54.1497574  30.6075382  77.5027313  54.4055443  29.1666813
  22.7058582  68.5741882  85.3147812  22.3073368  69.2852325  85.8165970
  22.4933758  67.7831268  85.8100586   5.0669851  70.5955048  17.2127762
   5.9521794  70.9595108  17.2254677   4.9605665  70.2554474  16.3243713
  25.3896637  32.9832726  87.8511658  24.8581600  33.5077209  87.2522583
  26.0868664  32.6252098  87.3016815  43.5182800  14.8014688  80.9298325
  43.9538956  14.1919231  81.5255966  43.4506493  14.3221531  80.1040573
  59.7270355  13.4405861  53.8927650  59.0391579  12.8273478  53.6339340
  59.4229813  14.2902279  53.5735626   7.0819101  18.3592510   2.7378931
   7.9651461  18.7158947   2.8323922   6.7568851  18.7378006   1.9210143
  80.3288498   2.8738246  82.2232666  80.7271271   2.8712516  83.0936737
  80.6102295   2.0483816  81.8286819  17.7038956  64.4698563  51.3700829
  18.0680733  63.7165375  50.9051933  18.1810322  64.4929581  52.1995659
  61.8551865  47.8418808  44.3400688  61.4824219  47.8531494  45.2216301
  61.8758278  46.9153557  44.1005783   7.4526052  34.4311943   1.6483445
   7.7960992  34.6700363   2.5092731   6.6904092  33.8840714   1.8379370
  67.0319977   2.7245228  11.9773903  67.1902390   1.8675787  11.5813608
  67.7655792   2.8492587  12.5794964  60.4888458  51.1937752  34.5426369
  61.0797081  50.6057205  35.0130653  59.8888092  51.5180092  35.2142487
  56.5275116  34.4881935  55.1437378  57.1503067  35.2092781  55.2353630
  56.0629578  34.4651871  55.9803314  48.8611374  20.2874146   1.3066810
  48.2328110  20.6003284   1.9574653  48.9363441  19.3487415   1.4783494
  69.6254654   6.6095853  32.8385773  70.2664261   6.2094278  33.4261780
  68.8949966   5.9911752  32.8240852  53.0577583  62.9736557  19.6422405
  53.2475471  62.0414047  19.7476921  53.1994286  63.3468323  20.5122414
  74.4712524  50.8024521  17.1431751  74.6692581  50.6881676  16.2136784
  75.2869110  50.5782852  17.5911465  71.2693329  30.1626873  20.9310970
  71.3213196  31.0117912  21.3699055  72.1572037  29.8094311  20.9870148
  52.9252701   3.8750825  83.5454025  53.0995522   3.1752405  84.1747513
  53.6105499   4.5224757  83.7112579  83.3600922   0.4234647  84.0390549
  83.3421326   0.9047695  84.8662491  82.7109146  -0.2708638  84.1518021
  73.0387115  66.0518494  30.9471321  72.4468002  65.6514816  31.5839825
  72.6225891  65.8922272  30.1000252  27.2015133  29.6260433  71.9426422
  26.7561779  28.8655033  71.5691605  27.8183975  29.8996315  71.2637939
  32.9671211  46.8379364  45.2104836  33.5252609  46.6488686  44.4561882
  32.5236855  47.6547585  44.9815598   8.5279274  48.9565010  61.0144081
   9.3227673  48.5551643  61.3656731   8.7238092  49.1061554  60.0894928
  77.5894775  14.7040825  10.5316715  78.0296249  15.5464354  10.6454411
  76.9131165  14.8738890   9.8759823  80.5041656  24.0152683  47.2554779
  80.7668915  23.5219326  46.4784126  81.1775436  23.8146801  47.9055252
  56.6903038  38.0995750  41.5799713  56.4508438  37.7160645  42.4236603
  56.7904015  37.3484077  40.9951935   1.4820299  28.9309387  16.4883308
   2.2320921  28.6452103  17.0098648   1.1517805  29.7034893  16.9469528
  19.5274105  29.5708752  59.1869736  19.7707615  30.4554234  58.9138680
  19.6417446  29.5736561  60.1373138  42.8663063  27.9495525  36.3951454
  42.4644241  28.7856331  36.1591530  43.6763268  27.9209766  35.8859520
   6.9601903  19.3087101  86.8817291   6.5964913  19.8670425  87.5689087
   6.5435543  18.4579220  87.0188599  57.6746254  41.2404633  72.8274384
  57.3077927  40.4028435  72.5444870  56.9255257  41.8360672  72.8456955
  37.1184502   7.0031691  60.7844696  36.5058136   7.4196053  60.1782608
  37.7923164   7.6656942  60.9367676  86.9654694  63.6411743  58.7793350
  87.0504761  63.9423828  59.6839218  86.0851974  63.2681046  58.7328339
  14.6384935  50.1648788  75.3078613  14.1836128  49.5505333  75.8839645
  15.3469534  50.5180969  75.8459625  86.2514725  37.1184921   2.3701732
  85.6583557  37.4762650   3.0308144  86.0700150  36.1786499   2.3692105
  76.9976273  54.2736969  25.0986137  76.6392822  55.0743484  24.7155056
  77.4136505  53.8221664  24.3642597  45.8065681  13.1418028  77.9392929
  46.1937637  12.4505224  77.4022217  46.5232544  13.4395819  78.4995728
  38.9780807  49.6576881  79.8346100  38.1496315  49.8256645  80.2837067
  39.6319427  49.6487999  80.5336227  65.4916763  49.3179016  45.5055695
  65.7839813  49.5514908  46.3866081  66.2305145  49.5435753  44.9403954
  42.3360672  56.4260445  84.1015701  42.9269905  55.6842194  84.2309494
  41.6357498  56.0806808  83.5479431  38.8885536  44.5994034  10.9719305
  38.8991470  45.4407043  10.5154924  38.0112495  44.5434189  11.3506575
  81.2397308  60.2140923  81.8651810  80.4374008  60.5351830  81.4535904
  81.9445496  60.5568275  81.3156357  24.9327602  43.4121742  80.4346466
  24.7852478  43.7894669  79.5673981  24.7335377  42.4820023  80.3282166
  71.0836334  48.6632233  85.8924026  70.7905960  49.2807236  85.2222900
  71.9829102  48.4491386  85.6440048   1.4060427   5.1117015  73.7822113
   0.6192974   5.6368237  73.9288788   2.0039279   5.3755383  74.4816055
  77.3454971   9.4482698  19.7326813  77.0452042  10.2631865  20.1351299
  77.7800064   8.9762363  20.4430485  74.4616089  53.8229790  23.1488667
  73.6780090  54.3233871  22.9212894  75.0875702  54.4817772  23.4495239
  59.4761200  54.9205132  74.4441223  60.2314072  54.4452133  74.0979080
  59.1450768  55.4203453  73.6979218  55.9915314  33.5512733  66.3719025
  55.8651009  34.4732666  66.1479187  55.9379921  33.0917053  65.5339508
  82.3057556  70.4828796  63.5791397  82.3848877  71.4367905  63.5742989
  81.4185410  70.3177643  63.8982468  82.4358597  10.9094782  18.7160072
  82.2611618   9.9710236  18.6451836  82.8422546  11.0131884  19.5764256
  40.3237457   2.3287325  63.9291191  40.0047112   2.7258627  63.1187248
  41.1912804   2.7120328  64.0583267  72.5862732  52.2438164  52.8765526
  73.2753830  51.6988220  53.2564659  71.7813339  51.7456818  53.0185623
  12.1605024  18.2609863  25.9415588  11.5789585  17.5226669  26.1230030
  12.0826654  18.8223782  26.7129288  59.8225594  40.0112228  84.0673141
  58.8769226  40.0898590  84.1930847  59.9299774  39.2117882  83.5519485
  40.8733330  52.4108734  76.9763031  40.1732368  51.8731232  77.3463364
  40.4185181  53.1438828  76.5614853   2.8403971  39.1819191  24.4227467
   2.0202918  38.6894417  24.4562531   2.6396258  39.9449005  23.8807316
  31.2921486  56.2129860  12.4839106  31.1527119  57.0746231  12.8768091
  31.7361012  56.3963013  11.6559401  73.2187729  41.0939941  35.6215706
  73.6498566  40.8945618  36.4526062  73.8978271  41.5150642  35.0944939
  55.3726120   5.7209210  25.4111595  54.8475685   4.9954033  25.0732460
  55.5579185   6.2607222  24.6427135  62.5611954  67.5928345  81.1165237
  62.2763748  67.3145752  80.2460785  61.8274612  68.1051636  81.4562149
  24.7280025  58.3309784  17.2192135  24.8318043  57.9287834  16.3568344
  23.8693066  58.0339088  17.5202484  60.6563530  29.0246239  12.7987843
  60.3023109  29.3132858  13.6399517  60.6081619  29.8001614  12.2398109
  43.6567612  48.5488892   3.7877955  44.3639297  48.4150848   3.1567311
  43.4775543  49.4884415   3.7510521  82.7112656  16.8521957  38.7179756
  82.5839157  16.1827049  38.0458183  81.9624634  17.4396381  38.6158257
  49.7487221  59.9490166  43.2277451  49.9049988  60.3285789  44.0924644
  50.2277870  60.5187454  42.6259613  76.4323349  28.0252876  80.9250259
  75.5926666  28.3601303  80.6102676  76.2771988  27.0927563  81.0752029
  49.7975998   1.9001027   0.6000843  48.9530296   1.5864241   0.9234108
  50.3610306   1.1263895   0.6121415  51.8440094  40.4654999  53.3771553
  51.5332146  41.0119591  52.6553383  51.3807335  40.7979889  54.1459618
  10.8419046  28.5678253  77.1945343  10.1613941  28.8358402  76.5770340
  10.3645859  28.1443844  77.9080429  30.2113075  43.4806366  69.7706451
  30.1461563  43.3585052  68.8235016  29.4489498  43.0223618  70.1242371
  10.0498981  46.3884087  48.5608101  10.4833488  46.4890327  47.7133293
   9.1934872  46.0169067  48.3492012   3.8740182  33.1008759  10.3052092
   4.1042790  34.0087662  10.1078587   3.6274626  32.7269974   9.4592438
  18.2814636  61.4247246  58.6485558  18.7335529  60.9220734  59.3261909
  17.6223621  60.8225555  58.3032875  55.6959801   7.6470060  32.8359337
  55.5716324   8.5884848  32.9558754  54.8083305   7.2900467  32.8061562
  86.6947403  58.3470650  74.1011276  86.4949570  58.0426064  73.2159042
  86.2199707  57.7451401  74.6742859  33.3696175   0.0787223  73.2600403
  33.7525253   0.5873020  73.9748535  34.1231728  -0.2613638  72.7776184
  84.1736832  58.7523956  33.7427521  83.3770676  59.1735916  34.0656052
  84.2409744  59.0345688  32.8305664  62.0583725  36.2361717  42.5797920
  62.2449837  37.1077003  42.9288559  61.1464729  36.2833748  42.2926559
  11.9671564   8.4212742  75.7263794  12.3937340   7.9380221  76.4340057
  12.3866701   8.0982981  74.9289322  86.3171539   7.9006739  14.8558168
  87.1958542   8.0969896  15.1807528  85.8939056   7.4342637  15.5766153
   4.2277889  51.7222099  44.5270386   5.1366453  51.7173347  44.8273544
   3.8303835  52.4668999  44.9784126  29.4552803  48.8454628   6.3647995
  29.5649471  48.1990623   7.0622020  28.5924873  49.2274361   6.5257783
  76.2932434  68.2116241  61.7797318  76.3264465  68.8427124  61.0608063
  75.6869125  68.5992432  62.4108849  13.4953051  39.0886078   8.9147205
  13.5052881  39.2894897   7.9788904  12.5721903  38.9367065   9.1172476
   6.3867893  54.3323746  82.4014130   5.5312734  54.0751114  82.7451324
   6.2267737  55.1669121  81.9607620  11.2563658  21.3283424  30.3638496
  10.8372641  22.1608353  30.1458130  10.7144232  20.9633255  31.0633469
  40.5771675  56.7553749  43.5888214  40.3222008  55.9302902  43.1759529
  41.0092812  57.2486305  42.8915329  72.7962799  24.5006943  80.2497787
  73.3152466  23.9095898  80.7952118  72.3332977  23.9225712  79.6434326
  72.4159088  39.1187096  63.4645958  72.1905212  38.9456711  64.3786469
  72.5075302  40.0703011  63.4165115   8.6854258  27.9907227  84.3697815
   8.8818674  27.8099918  85.2890091   7.9044614  28.5435715  84.3959656
  53.6714439  60.9146881  36.2587318  54.4411583  60.4496269  36.5865898
  53.0651169  60.9262276  36.9993172  78.4236984  39.1218262  55.4299583
  77.9580917  38.3192024  55.6649818  79.2621460  38.8189964  55.0813446
  15.3330822  53.9535370  52.9750481  14.6181688  53.7257805  52.3806915
  15.2887373  54.9068604  53.0488014   0.2715328  29.1812420  12.6458263
  -0.0872260  28.3678894  13.0007629   0.5487035  28.9535828  11.7583694
  31.5972881   2.1572824  85.9175720  32.1726608   1.5014359  86.3113251
  31.6376438   1.9782284  84.9781342  77.3099594  55.5511360  14.2334738
  77.8180008  54.8739929  14.6802397  77.7088318  55.6165009  13.3657999
  30.1574974   7.6970215  80.3684006  29.8610420   6.8660612  80.7396774
  29.9808960   8.3419523  81.0533142  14.3266191  30.1357632  74.8590012
  13.5949297  29.9661503  74.2656326  14.2146206  29.4995365  75.5653381
  80.8012390  11.5296164  45.8896637  80.3492889  10.7289410  46.1559296
  81.0895996  11.9265118  46.7115822   4.7941747  68.6159439   5.1530104
   3.8863087  68.3221359   5.2284236   5.0317402  68.4290619   4.2447882
   0.9351234   4.5662937  15.2889977   1.5639609   4.1066685  14.7326345
   0.4138355   3.8694246  15.6875753  11.1946611  53.8071175  17.3000202
  10.5353165  53.7856674  16.6064510  11.3567381  54.7388687  17.4476776
  25.6936302  10.3754873   2.5773134  24.9550457   9.9299316   2.1623363
  26.1584816   9.6825848   3.0463867  26.6127377  12.4512863  27.7498264
  26.5038834  13.0009327  28.5258884  26.7599087  13.0715246  27.0357685
  39.0686531  58.9977722  76.8547821  39.6620483  58.2983818  77.1285706
  39.5005989  59.8033104  77.1389771  35.4492798  39.7150764   0.7819689
  34.9525146  39.0682106   0.2809473  35.1630363  40.5593300   0.4333537
  47.7627373  69.7585983  84.4204483  47.7433510  70.6611252  84.1021652
  47.7468109  69.2242355  83.6264496  73.8352356   3.2129233  36.0363274
  74.4646149   3.2839277  35.3186417  73.7560272   4.1048665  36.3745499
  39.8026047  60.3222427  39.5368614  39.6276360  59.4091377  39.7645950
  39.7858200  60.3378754  38.5799370  76.7110596  23.9844265  16.0222816
  77.3894501  23.4269943  15.6411142  76.5952530  23.6473160  16.9106369
  49.2621994   2.3984406  78.0878983  50.1961403   2.2444704  77.9455109
  49.0972595   3.2538126  77.6912003  71.5345001  15.1958027  32.4250183
  71.5705948  16.1211891  32.6670685  70.6384964  14.9291906  32.6307793
   8.9735126  19.2048607   9.6040897   8.4473791  18.7459221   8.9492683
   8.8823948  18.6770000  10.3973694  57.0993805  49.7080002  82.8079987
  57.3758698  50.5398865  82.4236221  56.3937035  49.9449883  83.4097366
  27.6392860  32.7086067  16.3508625  27.6846046  31.7587929  16.2411747
  26.7122803  32.8875389  16.5085773  62.0276337  66.2971268  78.6884384
  61.8454819  67.0082626  78.0741577  61.5956535  65.5334854  78.3057175
  41.9434166   9.6305895  10.3593559  41.8135452   9.3912220  11.2769985
  41.4305801  10.4307804  10.2456684  61.3338280   0.9034738  38.8433838
  61.3553505   1.6904471  39.3878479  60.4206200   0.6179678  38.8710785
  20.9871445   2.9174938  31.8866463  21.0794621   3.2335155  32.7854462
  21.8679104   2.6348548  31.6404819   1.2795013   8.9489594  86.8700943
   0.9917079   9.3652353  87.6825714   1.1747971   8.0112534  87.0312729
  62.2559280   7.6175241  60.7646980  62.8437195   8.2355976  60.3302803
  61.4998932   8.1457052  61.0209618  69.1574249  12.7204609  19.6591930
  69.7809525  12.0485725  19.3834915  69.2255325  12.7331390  20.6138821
  15.5346394  50.4686279  86.3785324  16.2386570  50.3276443  85.7455139
  15.7095795  51.3367157  86.7419281  69.3595200  36.3600121  89.0376587
  68.6084671  36.6200256  88.5042343  69.9788971  37.0843353  88.9484406
  65.9153900  32.1592751  33.8102417  66.6744843  31.5762978  33.8221703
  65.1647263  31.5775414  33.9299011  60.6337128  33.6643677  12.6901712
  60.2530212  32.8355217  12.3998003  59.8899078  34.1653671  13.0248137
  26.3107071  47.4670410  23.6201935  25.5570984  47.1438751  23.1263599
  26.4110107  46.8434601  24.3394413  24.5214958  57.4902916  77.6701202
  24.6420536  58.1417732  76.9792786  24.9861221  56.7159119  77.3527985
  71.0473328  49.5688896  24.9770470  70.6961212  50.4544258  24.8837204
  70.8642197  49.1488037  24.1366711  51.7504158  38.6296425   8.9080296
  50.9442940  39.1223412   8.7542448  52.0365753  38.9044228   9.7791443
   0.4094643  47.5953598  32.9960556   0.2625281  47.7580910  33.9278069
   0.1322673  48.4038544  32.5650864  49.4440155   2.6745746  81.1441193
  49.3385468   2.5760586  80.1978607  48.5599785   2.8496234  81.4667130
  82.3183670  26.1303558  20.8172779  82.0791779  26.1058674  21.7437878
  81.8328781  26.8759251  20.4642048  83.2259064  39.3847771  28.1893864
  82.9352417  40.2337646  28.5224876  83.2275162  38.8138466  28.9576759
  68.5408783  16.4174137   3.1613927  68.5220795  16.8764858   4.0011139
  67.8320465  16.8145828   2.6553769   2.8648632  38.7580261  40.3874588
   2.5015240  38.2638741  41.1223297   3.1069968  38.0900574  39.7460365
  41.8320274  21.3690071  67.8635178  41.3362045  21.7358437  67.1315155
  42.0099907  20.4652252  67.6032486   4.2298160   9.8170204  21.8514690
   3.8279948   9.0960207  21.3667736   3.7020814  10.5823669  21.6234932
  24.8634701  40.5002136  80.6548615  25.3010635  40.0102730  79.9586563
  23.9335022  40.3077431  80.5350876  36.3767052  30.6852627   5.5080585
  36.4036217  30.9741402   4.5958867  37.2841377  30.4622040   5.7155275
  45.4191437  66.3596497  83.3259506  44.6854668  66.5767136  83.9011307
  46.0413322  65.9039993  83.8929596  66.0381317  30.4641743  73.3759537
  66.9129410  30.6647549  73.0432434  66.1906967  30.1068077  74.2507401
  27.4363403  37.6325607  68.9827728  28.0205212  38.0585899  68.3555069
  28.0183926  37.3078690  69.6698151  83.7161560  51.6284065  62.9773178
  84.1482849  51.1967430  62.2403259  84.4065399  51.7327805  63.6320724
  77.3681717  40.1350594  61.0069466  77.0313034  40.7763939  60.3812943
  76.9562378  39.3102264  60.7496719  76.0268707  22.9611015  31.9931774
  76.2831497  22.1710835  31.5173359  75.8411484  23.6035423  31.3083363
  73.4853973  36.0125351  12.5194941  74.0951385  35.6210213  11.8940639
  73.9576263  36.7653427  12.8751869  62.8184738  25.6148548  44.9291611
  62.8203773  24.6617889  45.0179901  61.9480934  25.8812656  45.2252960
  54.1459465  19.1249275  70.9127350  53.3958740  19.7140522  70.8317947
  54.5396538  19.1171684  70.0402908   0.5024174  63.3385696  26.0329514
  -0.2011547  62.7098503  25.8719196   0.5137676  63.4469452  26.9839287
  28.9466286  13.3780861  88.0191956  28.2258492  13.8821487  88.3968582
  28.7542477  12.4707947  88.2559280  60.1253548   5.5268679  26.3557491
  60.1892776   4.8334613  27.0125103  60.8112068   6.1494017  26.5971889
  50.3835297  36.9084206  86.3086700  50.9658508  36.1492233  86.3361053
  49.5373268  36.5515862  86.0387726  54.3211899  56.3379059  29.1042309
  53.9163246  56.6565819  29.9109268  54.7191124  55.5026627  29.3496990
  74.2574997  50.0554428  41.4115105  74.1016998  50.6558876  40.6825180
  74.8438950  50.5355988  41.9961662  59.1529922  18.8791676  24.7854233
  59.3508530  18.7257042  25.7092915  59.9883652  19.1477051  24.4029694
  46.1971512   1.4949722  61.1546822  46.9794579   0.9642376  61.0045090
  46.4153481   2.0332851  61.9155006  86.1998444   4.3527460   1.4401753
  85.5769196   5.0630307   1.2862523  86.4681549   4.4629598   2.3523676
  12.8016968  56.0350227  15.1547518  12.3508177  56.7003250  15.6746645
  13.6447563  56.4323235  14.9365034  68.5197067  56.5311584  17.1781731
  67.8057861  56.9600449  17.6499767  68.9715347  56.0146408  17.8454762
   7.6875901   0.8713027  26.3663597   7.4886580   1.1722500  25.4797440
   7.4244981  -0.0490162  26.3715839  53.3070488  27.3853550  27.1047115
  54.0337524  27.4813366  27.7202778  52.5657959  27.8043175  27.5420284
  21.3042736  53.7186508   1.3775686  20.7047844  54.2945518   1.8521062
  21.0912876  52.8399391   1.6917840  23.0181389  54.1883278  80.4196396
  22.4091568  53.7193413  80.9900970  23.8786278  54.0340118  80.8094864
  43.3797836  69.0121536  30.5626431  43.5033073  69.9300690  30.3209591
  43.3743210  69.0151520  31.5198231  78.9905014  47.9372826  20.0510483
  78.1548538  47.4972992  20.2070370  79.2762604  48.2232285  20.9186954
  63.4716911  68.4284668  17.6483135  64.3078156  68.5776443  18.0897617
  63.2008400  67.5568085  17.9365425  44.6478043  61.6972313  12.7316208
  44.6829414  60.7819595  13.0095997  45.1908112  62.1619415  13.3683462
   7.6610513  38.4927406  32.0214729   7.1206703  38.4539833  32.8105965
   7.0321465  38.5710030  31.3041267  36.1288948  14.3538189  80.7443085
  36.3042564  15.2531214  80.4673004  36.9513512  13.8900690  80.5870438
  65.8866425  36.2062836  68.2894592  66.2257690  35.6207428  68.9664841
  65.7762527  37.0471268  68.7333374  48.1262970  70.6413269  26.9635563
  47.4211121  70.4429169  27.5796547  48.4902763  69.7866364  26.7327976
  26.3294220  35.6114960  77.1607361  26.1049995  35.4535332  78.0777512
  27.2743740  35.4653168  77.1168060  50.5754623   5.8548584  71.6807861
  49.8258820   5.3300295  71.9617081  51.2764511   5.2174916  71.5443726
  51.6060486  22.0071621  81.1280594  51.4836349  22.7554169  80.5437927
  51.0122108  22.1749744  81.8597870  80.4740677  67.2486420  62.9596748
  79.6044312  66.8524094  62.9052277  80.5095673  67.8513794  62.2169228
  30.4972248   2.6342599  71.3066101  30.7371712   1.7910447  71.6908646
  29.6238403   2.8157880  71.6537094  80.5815201  51.5622673  48.6434097
  79.6559753  51.3323441  48.5613747  80.5865326  52.5175247  48.7041893
  84.4839249  33.6433487  25.7186909  83.6208649  33.5601845  25.3131771
  85.0350266  34.0216446  25.0335522  76.9324570  13.1019840   2.3245180
  75.9832230  13.2202349   2.2897103  77.2071686  13.0985308   1.4075931
  26.1723976  56.8012047  28.8163433  26.9726944  56.5088997  29.2525902
  25.5011768  56.7648239  29.4977932  74.8448715  34.3498421   1.6111065
  74.9911575  35.0183868   2.2803428  74.2807999  34.7761993   0.9659151
  78.6206894  46.5410233  74.5091476  78.4475937  46.3224792  73.5934448
  79.3022385  45.9249191  74.7777252  84.7353592  60.2375183  81.2890396
  84.4476852  61.1323433  81.4700317  84.6452179  59.7829247  82.1265640
   8.4170074   2.6670368  74.5429916   8.5631809   2.9260979  73.6331863
   7.7445831   3.2706368  74.8588181  47.1132164  53.6955185  80.3807373
  48.0665627  53.7436218  80.4518127  46.8069534  54.5498810  80.6848831
  15.7908735  49.9313354   0.5544426  14.8527794  49.9400749   0.7445309
  16.1531258  49.2898445   1.1655849  64.4286575   1.9411453  10.4096537
  64.2900162   2.6305289   9.7602234  65.1679916   1.4370711  10.0697508
  36.4293556  47.9166374  70.6816177  37.0970573  47.9117012  69.9957733
  35.9607391  47.0900917  70.5656281  33.5099335   7.1235461  40.3002968
  33.4623680   7.9311290  40.8119431  33.1804810   7.3681459  39.4355087
  69.8053665  27.7350769  41.2319336  69.2362976  27.1938305  40.6847229
  69.7095871  28.6186771  40.8765335  52.8387985  47.8439255  40.6323547
  53.6094971  47.6450768  40.1006470  52.0964317  47.6162338  40.0726433
  59.7263680  27.5836639  68.4850159  59.5289841  26.6529980  68.3795166
  60.0445518  27.8599510  67.6255646  28.0603981  15.1057396  59.2675591
  27.1340752  15.1256704  59.5078926  28.0919876  15.5125074  58.4016647
  45.4895554  59.2852173  13.5051060  45.0327148  58.7638092  14.1651516
  46.4181709  59.1311951  13.6788216  78.4398346  41.3048172  23.9128227
  78.7488022  41.5094147  23.0302639  79.2122726  41.4120331  24.4678650
  28.2876129  56.6030464  41.9516258  28.6719341  57.2768250  42.5124779
  29.0398178  56.1668434  41.5514450  57.3619537   7.4940872  36.2755585
  57.4932251   8.4415035  36.2381134  56.6333694   7.3771486  36.8852501
  35.8811340  47.6320267  63.1001930  36.5672112  47.0732079  62.7351494
  36.2498932  48.5148239  63.0698814  82.2290039   7.2887001  65.3430862
  82.6251373   6.5992746  65.8760071  82.9560623   7.6435733  64.8315353
  85.8941040  45.5843964  86.3960342  85.9880219  44.8963089  87.0547791
  85.8991089  45.1180267  85.5601425  26.6279831   8.6019373   7.0884762
  25.7178707   8.8342924   6.9042535  26.5831985   8.0695267   7.8826833
  43.4545250  67.6403198  88.5837326  43.6834297  67.2959671  89.4470139
  43.2103539  66.8674011  88.0746002  13.0055532  36.5642815  61.9024353
  12.6557808  36.6686134  61.0175591  13.9406042  36.7487564  61.8136711
  61.2300453  58.2042046  79.6346436  62.0357170  58.6917877  79.8060837
  61.2324104  57.5015526  80.2846451  15.3599291   6.0102882  57.4329071
  15.6320152   6.3838086  56.5946465  14.9333687   5.1855226  57.2004433
  38.2970161  53.8337936  26.6432648  37.6971283  54.5623322  26.4832668
  37.8429832  53.0680161  26.2915916  27.4957829  67.8294830  54.9479141
  27.3332558  68.4830627  54.2677269  26.8148613  67.9894333  55.6013641
  86.8536453  33.5018806  54.6530266  85.9225998  33.3293419  54.5129776
  87.2939224  33.0269775  53.9481430   9.5585098  71.3537674  64.8267670
  10.4210939  71.7164841  64.6252289   9.7256088  70.7032852  65.5088043
  37.5177727  63.4970665  36.1226616  38.2257805  63.9222527  35.6387520
  36.7653999  63.5388985  35.5323906  12.0119638  50.7324677  26.4468784
  11.2391100  50.2165451  26.2171974  12.0807295  50.6503716  27.3980675
  75.3450928  12.9248104  34.0429802  75.0891266  13.7210855  33.5775146
  74.8575821  12.2256012  33.6074677  48.8467064  23.4838009  76.0205002
  48.9192543  22.6069870  76.3975449  49.7218552  23.8592834  76.1172333
  15.2888746  25.7174587  13.6326656  14.6334515  26.0877876  14.2238579
  15.0582705  26.0653820  12.7712698   3.7327905  13.5177431  64.7510681
   4.0426264  13.0735121  63.9618301   4.2546906  14.3189163  64.7954865
  81.6010208   2.9144192  74.8608017  82.5510178   2.9170218  74.7436218
  81.3488312   1.9974241  74.7523880  12.5089264  42.0221519  79.4404449
  11.9966803  42.6156769  78.8912964  12.4944849  41.1884651  78.9703522
  62.8256187  35.2418098  56.0295525  62.1819153  34.5482941  55.8849449
  63.1523705  35.0843964  56.9153786  15.0357628  64.5110474  36.5922585
  15.5179110  65.1258240  36.0392532  15.6859770  63.8557014  36.8451805
  55.8392715  70.1710129  80.7588120  55.8603134  69.9323807  81.6855469
  55.3582535  69.4579926  80.3387451  35.4405823  26.5753422  16.2149715
  36.1106796  27.1006966  15.7777014  35.2049942  25.9053230  15.5732508
  40.7320862  67.4942551  39.5502815  41.2067490  66.6747589  39.4111481
  41.1040497  68.0985336  38.9078522   6.1108112  57.5818596  14.7749214
   6.5646281  57.8506813  15.5736809   6.2295313  56.6326981  14.7398872
  63.8941383  19.1307640  37.1101227  63.7560387  18.8881111  36.1945457
  64.7871094  18.8442268  37.3017731  63.6189880  26.9494476  25.9239578
  63.3316460  26.1319885  25.5172329  63.0802231  27.0275574  26.7112713
  76.9179001  47.3806953   2.3220413  77.5202255  47.7823830   2.9482062
  76.9857254  46.4413757   2.4932392  15.5294876  70.4860382  44.6303406
  16.4700832  70.3447952  44.5228157  15.1430597  70.1521301  43.8207664
  81.4251328   2.6456890  65.6694260  80.7090683   2.0113494  65.6362381
  82.0812836   2.2980292  65.0654144  68.0020523  46.3870239   5.4517698
  68.9484634  46.2539978   5.5050464  67.7730331  46.1240768   4.5603437
  37.9094772  63.1273460  51.6344528  37.0285683  63.1482582  51.2605629
  38.1366234  62.1978531  51.6604729   2.6932933  12.8887157   7.6522379
   2.9014113  13.3530807   8.4629688   3.0123050  13.4648342   6.9575787
  32.7695808  50.0700226  25.7034111  33.0594673  50.3028450  24.8213730
  31.8464718  49.8393440  25.5990543  58.4355583  45.7474136  39.6563148
  58.1588173  46.6523628  39.5123825  59.3697777  45.7466049  39.4478264
  40.9440117  60.1737251   5.1351891  40.8284416  60.1600456   4.1850901
  40.8729362  59.2561607   5.3983483  13.4758234  48.8015060  65.2585907
  13.8121376  49.4388847  65.8885727  12.7670498  48.3565559  65.7232285
  57.4869461  69.2918472  61.6712646  58.3549385  69.3488007  62.0707359
  56.8793678  69.4313431  62.3976440   0.9955595  14.2542534  68.2743683
   0.5092998  13.6808395  68.8667984   0.4918539  14.2403889  67.4605331
   9.3375921  63.1882133  44.9468117   9.5393047  63.1330986  45.8808899
   9.9043417  62.5326424  44.5402985  40.5789719  49.5439949  66.8591385
  41.4473991  49.2976608  66.5407257  40.6333580  49.4386559  67.8089676
  37.0994911   6.8103895  79.4456635  37.8099632   6.6950693  78.8146667
  36.3611908   6.3350816  79.0645752  50.7176399   4.0954652  26.3998737
  50.7415810   4.8730860  25.8422318  50.8262444   3.3626339  25.7937412
  81.0679321  64.6460648  44.3072510  81.1493759  64.5093002  45.2511215
  81.0334549  63.7630501  43.9393845   0.4603188  22.0176754  60.0309868
  -0.0385669  21.4520397  59.4415817   1.1521732  22.3856068  59.4812622
  49.9917297  54.7083092   0.8016704  50.1915627  55.3925781   1.4404750
  49.2057076  54.2829018   1.1443533  83.2157059  60.3999634   1.9906600
  83.6549683  60.1738358   2.8105071  83.7600708  60.0039902   1.3101439
  82.1919098  39.7463646  23.4055805  81.2662888  39.9658470  23.5117931
  82.6371078  40.2493134  24.0875473  46.0058441  47.9875526  44.4857025
  45.0862083  48.1829796  44.6654396  46.1687164  47.1617165  44.9414444
  37.0945892   5.9859142  10.0469885  37.3256645   6.3477340   9.1914635
  37.4986725   5.1182475  10.0571518  46.9581146  60.3006592  31.3535366
  46.2938538  60.9095192  31.6764622  46.6977234  60.1189651  30.4505329
   1.7541980  65.0401611  54.8316879   2.3918939  65.7046127  54.5707550
   1.0718251  65.5301895  55.2904625  48.6651421  10.5019627  58.6122360
  47.9216232   9.9969110  58.2831001  49.2073517   9.8594475  59.0698586
  56.1325150  68.0999374  10.9002562  55.4959602  68.8004150  11.0429716
  56.4650497  68.2549667  10.0161629   6.4508119  62.7680931  56.5084572
   5.8965983  63.1447983  57.1919594   6.8779349  62.0225296  56.9302826
   8.6413584  43.0904045  23.6500263   8.1010389  42.8333130  24.3971481
   9.1992636  43.7910614  23.9877491  44.4174614  65.7701645  74.4838943
  44.7128105  66.6752472  74.5830307  45.1681595  65.3134766  74.1042709
  50.5381851  18.3752518  83.8521423  50.1320534  19.2297115  83.7065811
  49.8380547  17.7451458  83.6818085  30.0444584  57.3796005  15.6318274
  29.2413502  57.2492065  16.1360531  30.3130512  56.4969902  15.3767033
  11.3138418  11.3316669   7.4534831  10.8161325  12.1491232   7.4702597
  10.6489677  10.6452713   7.5085788  66.8254547  70.6369553  86.2717361
  66.5032196  70.4049225  87.1426849  67.1389999  69.8105469  85.9043427
  45.5153389  35.9975166  21.6404305  45.3212242  36.8515091  21.2541008
  44.7265968  35.4785500  21.4829865  33.6789207  13.2593279   1.0567316
  34.4654083  13.4000139   0.5295911  33.9698601  12.6989822   1.7761753
  85.1502838  31.6205864  12.8044729  85.6632233  32.2913666  13.2552214
  85.7940369  30.9622078  12.5430355  50.8592606  44.8563461  85.3049698
  50.1440506  45.2606773  85.7961121  51.2135391  45.5663376  84.7695847
  48.8055725   7.6166582  70.6826935  49.2455788   8.4117498  70.3819351
  49.5147209   6.9896832  70.8249664  27.1575985  50.2456970   6.9910135
  26.8140297  50.4510002   7.8605208  27.3180466  51.0995102   6.5891476
   4.8199830  34.4048538  52.6734734   5.5789971  34.6123962  53.2185020
   4.4370327  33.6284180  53.0817986  70.4930573  43.1473160  38.0125999
  70.7424927  43.4230080  37.1305542  70.7103882  43.8960075  38.5679893
  81.9637985   5.1190109  32.7837868  82.8517075   5.1294861  33.1411858
  81.8470383   5.9910789  32.4068298  26.0422230  31.9248028  19.7503529
  26.0712852  32.8233070  19.4215984  26.0814056  32.0166969  20.7023258
  68.1646271   8.4563942  51.7548943  68.9325333   9.0206652  51.6646156
  67.5475616   8.9727974  52.2733459  76.7818985  48.1177330  58.4923553
  76.4903030  47.5964127  57.7444077  77.7248306  47.9603996  58.5409241
  37.3020363   7.6112323  83.1914139  37.6443062   7.9068499  82.3477936
  36.3955612   7.3639193  83.0087357  72.9678268  69.3296890  34.0762634
  73.7369843  69.2214813  34.6356544  73.1050568  68.7118073  33.3582001
  80.6414948  54.1042709  70.5357895  80.2157974  54.1604347  71.3912735
  81.4545364  54.5985870  70.6399231  30.3570690  57.9071388  25.5066013
  29.4649124  58.2494621  25.4509029  30.3609638  57.3772774  26.3037624
  43.3132629  53.0054436  46.7790070  43.6583405  52.2617111  46.2850227
  42.4655495  52.7036133  47.1053619   2.7663763  52.2860718  68.6361618
   2.1907961  53.0154953  68.4062042   3.2559485  52.1051254  67.8337784
  42.4441109  55.6460724  53.0202255  41.6091080  55.2280312  52.8098679
  42.7521782  55.1861916  53.8011436  31.9419670  66.3866806  52.5471458
  32.7262001  66.7884598  52.1732674  31.5067081  67.1000366  53.0139465
  85.0835953  52.2668419  74.7301025  85.4091110  51.5454369  75.2684784
  85.8493805  52.8228378  74.5862808  55.6480713  48.1811066  27.4073944
  55.6190491  49.0302658  26.9665794  55.1720963  47.5913353  26.8227158
   1.8264041  49.6847878  69.5634842   2.5543835  49.1838684  69.1955719
   2.0151281  50.5922585  69.3245087  31.4264679  60.2247887  60.0734787
  32.3137665  59.8714561  60.1374664  31.3116169  60.7308807  60.8777885
  55.4253578  18.9043598   0.3351541  55.2345161  19.0008965  -0.5978476
  55.8507385  19.7264633   0.5789314  77.0200729  26.1072445  86.9633636
  77.7908554  26.1310387  86.3963013  76.3846054  25.5777264  86.4816818
  14.5619526  38.6319618  24.0089874  13.8050098  39.2160110  24.0554066
  15.3091249  39.1907959  24.2226906  43.5657120   8.6841631   8.4423208
  42.9479294   8.8791399   9.1469917  43.8279457   7.7768307   8.5979280
  48.6262398  71.3018570  81.9372177  48.2955132  71.9407959  81.3058624
  49.4285889  70.9646454  81.5387802  17.2650337  42.6508980  54.8968163
  17.3536777  42.9866638  54.0048332  16.5738087  41.9914665  54.8369179
  54.2585373  61.5102844  40.1366386  54.1227531  61.9892311  39.3190804
  55.0783272  61.8599777  40.4857635  49.8677483  22.6649551  12.9313803
  49.7509422  23.4674091  12.4227982  50.0592155  22.9693451  13.8184643
  63.4984093  29.3077049  54.7677307  63.3207054  29.2505188  53.8289070
  63.7402534  28.4167004  55.0204239  54.7774048   7.8589392  41.3929672
  54.2281456   7.4443545  42.0583000  54.1790314   8.4282522  40.9091606
  79.2508469  55.7559967  26.5539722  78.8185272  55.1894455  25.9149475
  79.9104309  55.1958466  26.9631367  84.6014404  62.6236610  54.6942558
  85.1798553  62.5299072  53.9373703  83.7326736  62.3990288  54.3610649
  63.8921700   0.3885952  37.3231697  63.4995003   0.1177768  38.1530495
  63.1550217   0.4393249  36.7146721  57.0909233  33.2798271  83.4468079
  56.5037956  33.0078621  84.1521759  56.5667114  33.8804703  82.9170303
  66.1489716  28.5276585  48.3583679  66.1837616  27.9102783  49.0890274
  66.4997940  29.3429489  48.7167816  81.5260010  61.5529404  29.2752037
  80.8605576  62.0105286  28.7613754  81.2503357  60.6363869  29.2621555
  33.4294014  54.1360283  60.1679726  34.0517120  54.4910393  59.5332069
  33.0743904  54.9062080  60.6118431  46.8277855  21.5186958  74.4118347
  47.3000107  20.7992649  74.8309479  47.5156517  22.1008148  74.0890198
  79.2819138  54.5780487  34.7503700  79.0446930  53.7941551  34.2549210
  80.0885468  54.8870735  34.3379555  11.2954159  71.3594894  31.0478687
  10.9483747  71.0152512  31.8708477  10.6362028  71.9884033  30.7543774
  45.8229332  26.2614822  82.7806168  45.4349976  25.9385185  81.9673309
  46.2789116  25.5033550  83.1460724  10.5027895  46.3619308  10.9781237
  10.7211151  46.7833176  10.1468601   9.5856867  46.5907822  11.1290607
  18.9125404  18.3044586  15.2166719  18.3384323  18.3922806  15.9775391
  18.4907246  17.6382961  14.6739674  58.7078857  64.2221451  18.3250885
  57.9288025  63.8822212  18.7652111  58.3736458  64.8956528  17.7327175
  32.3853073  57.0596848  29.0837154  32.5468063  56.5664558  29.8880043
  31.5029793  56.8012619  28.8173599  23.0106487  65.0487671  42.9275551
  22.8184528  65.9849243  42.8737488  23.3804779  64.9300842  43.8024139
  57.5673752   7.8623362  62.1048470  57.2758789   7.1811137  62.7108154
  57.9936943   8.5128145  62.6628418  73.5296021  59.9766769  38.4525681
  72.9025116  60.5688400  38.8676910  73.2919998  59.1088905  38.7792549
  83.5946045  40.6624298  55.1844063  83.4485245  41.3902855  54.5801544
  83.6821671  39.8953247  54.6186218  50.7918434  35.8826942   8.1008129
  51.0426178  36.5287361   8.7610950  51.5993614  35.7085991   7.6172452
  81.7397614  62.9107475   2.4464471  81.6430359  63.1814919   1.5334450
  82.2827530  62.1234741   2.4065669  84.1827164   2.7710674  14.8266277
  84.8362503   2.1063259  14.6092558  84.1972198   3.3734260  14.0828638
  10.1286402  47.1032944  56.6365242   9.4180880  46.7750206  56.0855408
  10.9083815  46.6485863  56.3179741  54.5707893  58.9449768  46.7169075
  54.7550125  59.4336166  47.5191078  53.9975586  59.5214462  46.2116165
  51.3589401  47.4177055  88.9312973  52.2966881  47.5158615  88.7662964
  50.9388161  47.9086227  88.2250900   8.4307966  15.1196241  22.8768158
   8.1671515  15.3631668  21.9894543   8.1125116  14.2232437  22.9837265
   6.8842807  34.5593529  78.5612030   6.0346017  34.9934883  78.4850311
   7.3554196  34.8141670  77.7679062  50.0582848   5.8534632  44.8461647
  50.4565086   6.6593566  44.5172539  49.9513512   6.0050797  45.7852135
  47.8130951   4.2968655  44.2194557  47.7285233   3.7049506  44.9669266
  48.6189041   4.7845087  44.3900719  37.8955002  33.0449257   5.3242264
  37.9961014  33.7910652   5.9153185  38.2992477  32.3133430   5.7911339
  13.1932878  64.4947205  76.5793839  12.9471331  65.1537018  75.9302444
  12.9452925  64.8814011  77.4191513  10.8421068  12.9967861  24.4583588
  10.7680035  13.1349468  25.4026337  11.4962950  13.6348705  24.1735477
  71.7697983  18.5260811  18.3377819  72.3044052  17.7376842  18.4319057
  71.0022202  18.2374439  17.8440800  48.0521584  11.4395123  69.7467041
  47.6701126  11.6077662  70.6080780  48.3584900  12.2961435  69.4490891
  20.4112682  62.3934708  39.3553085  19.9499130  63.0851746  39.8295708
  21.2937450  62.3964233  39.7260628  46.4666901  53.5933266  87.5627289
  47.3364563  53.2265167  87.7214279  46.3630486  53.5611191  86.6117020
   4.5504093  40.2990112  36.3151245   5.2407193  40.7274170  36.8212585
   3.9634356  41.0108452  36.0602112  49.9843330  46.4857330  10.8717251
  49.1415863  46.5760231  10.4269142  50.3092613  47.3823738  10.9535284
  21.9963017  57.3939819  28.5877991  21.4475574  56.6105957  28.6253929
  22.1873474  57.5967598  29.5035572  51.9834061  70.4071884  65.6125412
  51.7139931  70.2191849  64.7134857  51.3791885  69.8999863  66.1546631
  56.1459770  64.9295883  60.0020752  56.7988548  65.6271820  59.9442215
  56.5641365  64.2538376  60.5356827  63.1646271  59.2619705  70.9367447
  62.6201820  59.0805511  70.1706543  62.7451477  58.7786789  71.6485672
  70.4166260  59.3124695  84.8626328  69.7651367  59.9131012  85.2246170
  70.8082123  58.8935928  85.6290741  17.7056618  36.5709152  50.0291138
  17.2457981  36.4007645  49.2070389  17.1975899  36.1000061  50.6896744
   5.0113750   4.5611949  16.5288010   5.6329117   4.0356297  17.0324936
   5.3319817   5.4589949  16.6148129  78.9974442   4.2030520  57.9065628
  79.7041931   3.5867374  58.0986328  78.2335129   3.6490395  57.7462273
  37.3910789  53.7703400  37.0691757  37.3510208  52.9024429  37.4709015
  36.5290985  53.8897285  36.6704674  32.8548584  62.2161674   6.2011323
  32.1881065  62.1448326   5.5180645  32.6189804  63.0080872   6.6843095
  67.5060120  55.7672424  83.4856415  67.6000290  54.8326492  83.3014374
  67.0336838  55.8010750  84.3175049  32.9185524  46.9301529  84.0946274
  33.8305359  46.6405449  84.1201401  32.8493500  47.5665550  84.8062668
  69.3078232  38.2891197  72.1666107  70.1275101  38.5903778  72.5585175
  68.8954849  37.7608719  72.8501053  82.4033051  69.4274063   9.1546087
  82.3425980  70.2439957   8.6588984  82.7002792  69.6964264  10.0238962
  10.5065165  57.5934258  64.0934906   9.8070650  58.1816521  63.8089142
  10.3627720  56.7904625  63.5926781  51.6757202  29.8975964   3.6124671
  51.7183151  29.6765366   2.6821177  51.2726173  29.1322327   4.0222926
  23.9951782  51.9716110   4.6969552  24.2546902  51.6016083   5.5407467
  23.7251644  51.2149963   4.1765194  58.6412163  27.1871433  65.2337265
  57.9953041  26.9218407  65.8884354  58.9319992  26.3657188  64.8375778
  84.8965683  39.8284912  17.6856270  85.5057373  39.9875412  16.9646206
  85.4007339  39.3141479  18.3161011  35.0725098  11.5668535   3.3569582
  35.2274742  12.0723515   4.1548867  34.3893585  10.9414148   3.5985367
  27.0664978  67.0079803  21.1931915  27.2737312  66.0755005  21.1318035
  26.7408333  67.1226959  22.0859489  65.5737991  61.5880203   0.7618086
  65.5019684  62.3215103   0.1510140  66.1598434  60.9695778   0.3255642
  33.0684395   3.4496877  70.1118011  32.2252197   3.4106400  70.5631180
  33.1192589   4.3446898  69.7762146  47.4203606  31.7458591  71.1890259
  48.0551758  31.8697319  71.8946457  47.8552742  32.0957375  70.4114227
  77.2200317  31.9088268  32.0125923  77.7635880  32.5792580  32.4264793
  77.6130753  31.7812233  31.1491909   6.9209752  27.6418037  68.3931198
   7.8515477  27.6617298  68.6164398   6.6436377  28.5567169  68.4405518
  81.2281036  13.0153809  48.2574234  81.4872437  13.2307463  49.1533585
  80.3169785  13.3022909  48.1960983  75.8304291  49.9060974  14.7282896
  76.6066208  50.1729927  14.2358160  76.0343552  49.0231934  15.0367270
  17.4075184  63.0246391   5.7746825  17.2877941  63.9075661   5.4249086
  16.5824070  62.8289909   6.2186918  73.8418427  60.4768524  22.2189960
  74.2565536  60.5119247  21.3570118  73.0553894  61.0149345  22.1284885
  57.0206490  19.4696026  82.9489365  56.6721611  19.2651806  82.0811844
  57.5222702  20.2748909  82.8219833  78.2843094   9.3647633  60.0548248
  78.5232925   8.4508209  59.9004517  77.3271332   9.3664408  60.0482445
  69.2637711  17.5762081  14.0781507  69.7980118  18.3491020  14.2610550
  68.3793640  17.8279972  14.3439770  83.7816925  25.1816616  60.1464272
  83.8447418  26.1061993  59.9066658  83.5408249  24.7390594  59.3325996
  37.4971771   1.8089960  40.7618523  38.0091934   1.0632963  41.0749054
  37.5166168   2.4340239  41.4865570  78.5792465  42.8689651  32.7486153
  78.6936111  42.1744843  33.3973465  77.7954941  43.3377876  33.0352631
  48.6195564  56.4360695  70.3918762  48.7506866  56.1831551  71.3056946
  47.9476128  57.1169281  70.4258575  77.7911453  10.6404305  12.7277699
  78.6002274  11.1482153  12.6663284  78.0199280   9.8909168  13.2774239
  44.2010384  63.8263206  29.0553551  44.9061775  63.4916954  28.5012436
  44.6506615  64.2262344  29.7997608  67.2348709  58.0846062  74.7406540
  66.5564957  58.2323837  75.3995972  66.7562180  58.0213165  73.9141464
  16.5052872  36.1006470   7.8274431  15.7471991  35.5483475   7.6363869
  17.1399250  35.8805351   7.1455207  71.7599640  56.7805061  57.7290878
  72.6263885  56.4062843  57.5694160  71.1710815  56.0259399  57.7379303
  79.0563049  10.2515211  26.8277149  78.5652313  10.1556835  27.6437397
  78.6598282  11.0089092  26.3971272   4.6255612  51.5165367  24.4855919
   5.1458058  51.7816734  25.2440643   4.5283427  50.5690994  24.5812035
  33.5541573  57.4616394  82.1155548  33.2688484  56.6128082  81.7774506
  33.9947472  57.8785744  81.3750916  65.8544617  60.3742905  85.4614258
  65.7707977  60.6243362  84.5412521  66.5950317  60.8884811  85.7829666
  59.0198936  34.3013077  65.2648468  58.5790787  33.6664810  65.8295670
  59.5965080  33.7719612  64.7139053  27.7575397  23.0128307  42.5891762
  28.2902050  23.1872292  43.3651199  27.7106991  22.0580196  42.5404739
  53.3899422  35.8385887  62.2914505  54.3179741  35.6356049  62.1740379
  53.1577950  36.3536339  61.5187492  44.9193649  64.5658798  20.2787590
  45.5890160  64.8686752  20.8920383  44.8240051  65.2848434  19.6540775
  13.2176619  33.1865005  76.5354004  13.7368956  32.4253845  76.2759247
  13.4444809  33.8607788  75.8949890  71.5631027  47.5121231  16.2340031
  72.1033478  48.0148811  15.6244135  70.6851273  47.8805847  16.1358795
  85.2988663  43.3338585  75.3682098  85.7929840  44.0034943  75.8411484
  84.6752701  43.8276787  74.8357620  60.6669540  45.6168900  84.5745926
  59.7596512  45.4634438  84.8381958  61.0865936  45.9741669  85.3572083
  66.4923172  25.7736454  44.4813461  66.3829193  24.8627090  44.7542152
  66.1773071  26.2861748  45.2258682  77.0153351  37.3679848  47.0724068
  76.2533493  37.6404152  46.5611343  77.7544250  37.4675598  46.4723587
  62.3606529  57.0696716  28.8001862  62.8454247  56.9986801  29.6224937
  61.4597282  56.8453979  29.0331402   8.9681082  11.9574318  22.9327259
   8.3800545  11.4406414  23.4834995   9.4420490  12.5172215  23.5477428
  21.1451817  61.6240654  45.8579140  21.7559280  60.8980064  45.7311897
  20.3962708  61.2315483  46.3065720  63.5640526  29.8795433  52.0881653
  62.8224869  30.4058075  52.3870926  63.6766396  30.1242809  51.1696548
  48.1305504  17.2034435  69.1345062  48.2451324  17.8562355  69.8251266
  47.3985863  16.6640987  69.4337845  27.9258213  67.2403183  63.6938896
  27.0107307  66.9956818  63.8317146  27.8918743  67.9323883  63.0335045
  79.9870300  20.1139107  76.3525009  80.3213730  20.8733692  75.8753510
  79.6765366  19.5195694  75.6694260   4.2156525  16.9215584  74.6396942
   3.7882586  16.6385479  73.8313141   3.9250197  17.8255367  74.7604752
  70.7460175  69.5312576  19.5072536  71.5504990  69.7096481  19.9943027
  70.8200760  70.0674744  18.7178097  68.6164856  17.8423672  68.3491135
  68.9341125  16.9562263  68.1756134  68.5597153  17.8939266  69.3032379
  32.2768478  69.9934540  77.1479416  32.2767372  69.0401382  77.0618210
  31.3501472  70.2326584  77.1633682  20.1597309   0.4923104  60.6950569
  20.3387184   0.5307000  59.7555237  19.3193207   0.0388054  60.7604370
  11.7033615  10.3697796  55.6010170  10.9938631  10.3605108  54.9585533
  12.1724606   9.5488834  55.4516602  73.6739578  51.9807243  19.8990059
  72.8286896  52.2880821  20.2265663  73.4567032  51.4648933  19.1225071
  75.4581146   1.9259710  62.6622963  75.6017380   1.6741577  61.7500496
  76.2311020   1.6020935  63.1247101  16.0754414  11.6381521  79.4891663
  16.7136059  10.9605141  79.2660446  16.0887642  11.6741028  80.4456024
  26.4384480  58.5952034  82.0695038  26.1909637  59.0378799  82.8813019
  26.6501274  57.7014503  82.3389893  79.7524414   1.3589833  10.6575336
  79.3950806   0.4711332  10.6733265  78.9928741   1.9253482  10.7936277
  80.1486969  62.9606400  25.3108578  80.2224426  62.7080803  26.2311878
  79.3128738  63.4239044  25.2558575  77.8365631  18.0975437  55.8373413
  78.7453995  18.0431480  56.1327820  77.4345093  17.2866497  56.1488457
  83.4071655   9.1269398  12.3238373  83.3015518   9.2684231  11.3830605
  82.5668716   8.7670269  12.6077337  78.8421783  14.1022358  76.5238113
  79.3145905  14.4660063  75.7749863  79.4858093  13.5501280  76.9678116
  58.4106293   2.9360232  66.2651596  57.7859192   3.5871894  65.9458542
  57.8788071   2.1597192  66.4405136  64.1002274  17.3487282  82.2439499
  63.2147408  17.1357174  82.5385284  64.4820786  17.8418293  82.9700851
  70.0417786  26.8725185  82.7564240  69.7646942  26.5977917  83.6304855
  70.3330841  27.7771149  82.8707962  85.0707703  37.1286507  78.1499939
  84.1728439  36.8073616  78.2321320  85.4613571  36.9703178  79.0094147
  54.1163673  58.7310371  39.5150414  54.3118744  59.6204376  39.8099556
  53.5842743  58.8510551  38.7284622  81.0781784  12.9654331  73.5054932
  80.9256058  12.0229349  73.4372940  81.8126907  13.0457487  74.1139832
   4.8428259  71.4485397   6.3727503   4.2957273  72.0124283   5.8259945
   4.9309964  70.6392746   5.8692107  65.1630936  16.4040947  43.4866524
  65.2849045  15.9704762  42.6420403  65.9071121  16.1139297  44.0143623
  27.2081680   8.4187031  88.9920120  28.0070724   8.2779789  88.4839020
  26.7899265   9.1729231  88.5767288  33.6623459  61.2281456  88.7102356
  33.5205040  62.1444321  88.4724655  33.6911011  61.2306633  89.6669998
  75.2204208  10.6784716  84.0552826  74.4178314  10.9137802  84.5207901
  75.5860291   9.9521542  84.5602798  49.4581451  51.4210663   9.7142572
  48.8967972  51.3794289   8.9400578  50.2783089  51.7977905   9.3954458
  42.4188919  27.3225746   5.0953932  43.2004967  27.7953968   4.8094501
  42.6611862  26.9498177   5.9430833  75.9620590  66.1501694  19.9046383
  75.2930527  65.7897415  19.3226109  76.7379913  65.6149902  19.7380619
  63.5704575  18.2849388  84.8185349  63.6256561  19.0478954  85.3939285
  62.6652603  18.2846432  84.5073318  77.9611740  38.1594582  14.9710932
  77.8963699  39.1049042  15.1058550  78.3792191  38.0676575  14.1149149
  56.0231514   5.8697171  63.6695862  55.0953217   5.6347175  63.6814079
  56.3457184   5.6152329  64.5341187  78.6049805  12.5427523  85.4467468
  77.6813736  12.6543846  85.2215424  78.7138901  13.0334749  86.2613449
  67.5648270  48.0977325  12.2446775  66.7440720  48.0849991  12.7370481
  67.8885422  47.1983604  12.2953968  82.5570984  44.2094765  12.6164370
  82.1762466  44.5125656  11.7922297  83.0137253  43.4003716  12.3860588
  72.3732071  21.7200947  53.1475410  71.9249878  21.3039646  52.4112206
  73.1983109  21.2414398  53.2271423  46.3113785  59.7151909  67.9589233
  46.9121933  59.5682640  67.2284012  45.6014938  60.2365112  67.5840683
  19.6554699  41.7433662   7.8137727  20.1459217  42.1571503   7.1035123
  19.3569927  42.4736137   8.3558798  23.2974834  58.0104103  73.7647705
  22.9531918  57.5104332  74.5048523  22.5542641  58.0971451  73.1678314
  41.1882973  65.2535095  25.0852795  41.4722977  65.3099823  25.9976311
  41.5862274  64.4459534  24.7601128  54.2583199  67.5342255  26.1050167
  54.7351456  67.4597855  26.9316521  54.5937729  68.3372650  25.7064877
  53.0675621   3.1958528   9.0299273  53.2663765   3.1263993   8.0961819
  52.5639038   4.0060830   9.1079493  26.9471722  18.2447624   3.5380278
  27.7653198  17.7480049   3.5279517  27.1067905  18.9811401   2.9476871
  -0.0956338  43.6135330  24.9137192   0.0706736  43.4189110  23.9913883
   0.6882864  43.3056602  25.3686008  85.4282837  37.0423813  29.9672794
  85.1983414  36.7587662  29.0824509  85.1491013  36.3204117  30.5303478
  51.7765732  38.7425156  71.8636246  51.4586601  38.4982910  72.7328339
  51.0058594  39.0917320  71.4160995  86.3066711   7.9009409  19.4233456
  87.1604614   7.8862991  19.8558445  86.3517303   8.6504498  18.8296814
  31.4058323  69.5931015  34.7404861  31.0694504  70.2989502  34.1883430
  32.2520294  69.3687592  34.3533821  69.2181396  14.3684206  36.1390572
  69.0734787  14.0474815  35.2489433  69.5348511  15.2641163  36.0221977
  56.0849533  45.0988045  32.8315849  56.0080223  45.1667976  31.8799076
  56.4975815  44.2476654  32.9783173  83.5511322   3.0545051   6.8582749
  84.0566330   2.8292909   7.6392846  83.9408875   3.8719156   6.5481744
  70.1561203  52.3146210   2.3513827  70.9082184  52.3908730   1.7642176
  69.5776672  51.6861992   1.9192861  86.8309402  17.1466255  85.5296097
  86.2038803  17.8249607  85.2788162  86.4699936  16.3394470  85.1629868
  66.3300781   0.7568676   7.1964116  65.4417801   0.6061295   7.5195870
  66.2513809   1.5230618   6.6280928  25.3695183  28.1039906  77.4693909
  25.6495991  28.9543591  77.1307755  25.1465263  28.2723827  78.3848953
   2.0669272  13.4470320   4.1639805   1.2096364  13.7470913   4.4660554
   2.0355392  12.4953117   4.2613192  81.4056473  22.8523521  52.1071167
  81.4975433  23.8047047  52.0786400  82.3017502  22.5230770  52.0378036
   5.8345790  18.5164471  56.5807724   6.0394578  19.4186211  56.3351364
   6.6819940  18.1300316  56.8016853  62.4979515  28.1067944  61.2649956
  62.8350983  28.5037785  60.4618988  63.2716866  27.7432537  61.6955833
  25.4252548  15.5868416  10.6547775  24.9353943  15.1738529   9.9436455
  24.7525520  15.9665861  11.2200184  84.9107666  24.7538395  87.7655029
  84.3308029  25.5153275  87.7690887  85.6715469  25.0345898  87.2569427
  64.6395264  57.1410980  80.7720566  65.1087341  56.9080200  79.9709625
  63.9799919  56.4545708  80.8716888  42.7787323   8.6989717  63.0554276
  42.8189888   8.3265467  62.1745682  43.6657066   8.5953293  63.4000511
  49.9026489  33.3870163  80.1501846  49.3817062  32.8111382  80.7098389
  49.7318230  34.2666817  80.4867020  42.1866608  24.0282993  86.6365814
  42.0984688  23.9217129  85.6894302  41.5938454  23.3746166  87.0073929
  73.4725189  41.1964989  68.4089050  72.9704819  41.6414604  69.0916901
  74.1935196  40.7758751  68.8773727  30.7641048   0.1477202  54.4014282
  30.4707623  -0.2350412  53.5745811  31.3520660   0.8570205  54.1417618
  46.7993584  10.2514496  84.6997604  46.0951996  10.3204947  85.3444519
  47.1990967   9.3989506  84.8720551   7.7695894   4.9882927   3.8811417
   7.9804330   4.5091457   4.6825123   8.5490274   4.8939753   3.3335896
  68.0964279  25.7638168  60.8528175  67.9775391  26.5901241  61.3211250
  67.3221817  25.2477131  61.0773468  80.0926895  18.1003780  53.0411758
  79.3801804  18.4417381  52.5007668  79.8120880  17.2160816  53.2767906
  75.3452759  63.6229858  12.1040907  74.9481659  64.4516296  12.3722038
  75.6972733  63.7974243  11.2312222  61.2382507  43.6054535  86.8938522
  61.9201088  43.7341461  86.2345047  60.8971748  44.4841919  87.0603485
  44.9621162  12.9539213   0.7891260  44.8317642  12.4962130  -0.0413816
  45.8760414  13.2374887   0.7654492  48.2460632  62.9260635  37.9114609
  47.5768242  63.6016998  37.8025017  48.0479546  62.5271378  38.7587166
  69.8174820  66.4564438  69.6005325  70.6080933  66.9358902  69.8481140
  70.0408096  66.0398102  68.7682037  83.8407898  27.2894249  53.7378426
  84.3032532  28.0293274  54.1314201  83.5164185  27.6265278  52.9027519
  51.0976677  34.3748245  14.7498283  50.2279091  33.9932480  14.6308613
  51.4796371  33.8791695  15.4741611  32.4188423  61.4546738  17.7407951
  32.8368912  61.2386894  16.9072380  31.6634083  60.8687973  17.7887707
   5.2677560  44.0806618  67.8743286   5.4862094  44.0725174  66.9424210
   4.9506364  44.9688072  68.0382385  24.9733448   1.0095608   8.3295135
  25.6318989   1.2677755   8.9743881  24.1735649   1.4522042   8.6135063
  13.9625797  57.0957031  84.7852707  13.8211279  56.2369576  85.1837311
  13.1397705  57.5638771  84.9267960  65.3184433  69.5518723  88.2632751
  64.3879395  69.4580383  88.0593643  65.5856476  68.6845093  88.5674438
  12.5328569  12.5859003   9.4425516  12.3948412  12.1023035   8.6281080
  12.5117674  13.5064392   9.1810255  68.3780136  60.1408081  37.6808472
  69.1632996  60.5401230  38.0551529  67.8877182  59.8209839  38.4381828
  27.9054909  40.3535919  11.0014124  27.0657902  40.0896606  11.3775434
  28.4982109  40.4050941  11.7512550  60.0665092  55.4964104  76.8663559
  59.3185692  55.9984741  77.1900101  59.7746658  55.1480789  76.0239029
  32.9699669  22.2639046  86.2064133  32.6544418  22.8810520  85.5462570
  33.1512718  22.8062325  86.9740295  63.5020180   4.7562795  76.3452530
  63.4175835   5.4540410  75.6954651  64.3738022   4.3914995  76.1930923
  52.7367821  70.3257751  15.1070719  53.6378860  70.1177673  15.3540049
  52.6707191  71.2741547  15.2186003  13.2813826  44.6612167  87.7102127
  12.4952145  44.4650421  88.2198029  13.8596907  43.9143295  87.8649673
  46.9369202  28.5747681  12.6987381  47.3413200  28.9693623  11.9260883
  47.6327133  28.0463886  13.0897865  45.5269699  17.4992809  81.8509979
  44.8049469  17.4093761  81.2290421  46.2482834  17.8536301  81.3310242
   7.2320814  29.7884884  58.6521187   6.4059386  30.2628765  58.7452621
   7.5011096  29.9512329  57.7480316  32.6219330  23.3700237   8.8995438
  33.4123688  23.7887249   9.2403259  32.0316887  23.3245468   9.6517248
  74.9067535  36.7674561  53.6360397  74.0186005  36.7475967  53.9924431
  74.8204193  36.3984337  52.7570648  73.3874893  43.5930672  12.9789114
  74.2573547  43.7288170  12.6032429  73.0748291  44.4742928  13.1836452
  52.6993103  39.4409828  43.0070992  52.2576828  39.9744644  43.6678505
  52.9190445  40.0578499  42.3089409  48.1321449   0.7752338  40.8742752
  48.9199829   0.5804256  41.3818092  47.4122124   0.6527243  41.4930801
  83.5845566  53.6105728  72.6938248  84.1057739  53.4024048  73.4692078
  82.7117157  53.2725563  72.8941345  19.4386005  22.4836979  87.0017929
  19.7655354  22.4195843  86.1044464  20.1097870  22.9838791  87.4660797
  26.9780617  32.0937004  51.6672096  27.5896969  32.0526466  50.9320564
  26.2108746  31.6057014  51.3680267   9.0031176   7.3291311  62.8410683
   9.9509096   7.4500923  62.7837067   8.7916727   7.5235672  63.7541504
  65.9979858  64.8542099  49.6131058  66.7284698  65.4421387  49.4208450
  65.3101425  65.4287949  49.9491920  56.7703705  42.5246582  41.3033943
  56.4893913  42.9883995  40.5145798  57.3432274  43.1447678  41.7545395
  27.2492352  50.5063324  38.3587837  26.6241608  51.1451263  38.0160637
  28.1062775  50.8529625  38.1106796  21.7228889  48.9438896  33.9436378
  21.7404575  48.8593597  32.9903412  20.9763527  49.5165634  34.1195908
  86.2032394  10.3179893  53.5754509  86.2108307  11.2721863  53.5000648
  86.1819077  10.1523561  54.5179710  77.0233536  56.1987915   5.2487206
  77.5858078  56.5165215   5.9550686  77.5787811  56.2260208   4.4696240
  83.6591263  37.5972290  57.4697380  84.5081940  37.8987656  57.7928391
  83.8677292  37.0904427  56.6849556  75.9767303  53.8082542  19.7677460
  76.3667908  54.1534996  20.5707951  75.2480240  53.2658310  20.0694084
  49.9664955   1.1076909   9.4901667  50.7683678   0.5999168   9.3660688
  50.1904221   1.7476867  10.1658106  74.5336761  54.4349136  52.0439186
  73.8178406  53.9537964  52.4590530  74.1652908  54.7460670  51.2170525
   9.0724344  19.3626175  27.6179523  10.0079813  19.3769531  27.8198910
   8.7859383  18.4854050  27.8722172  43.3674698  11.4462004   2.6043391
  43.8974266  12.0852766   2.1279395  42.7095757  11.1605091   1.9704703
   9.7597256  20.0719814   4.4389415   9.0044403  19.9562149   5.0154600
   9.3795099  20.2632790   3.5815773  47.4720573  15.0928030  63.7441978
  46.8709488  15.8336802  63.6667290  47.4548721  14.6791716  62.8811531
  59.4250221  17.6304054  67.8227921  60.3582916  17.4656353  67.6882782
  58.9862251  17.0210648  67.2291718  57.4054298  22.4368114   8.8682680
  57.6567001  21.5132389   8.8577719  58.0472527  22.8531208   9.4435797
  59.1050720   7.7043772  66.0935287  58.4969406   7.0814576  66.4914932
  59.7707863   7.1566992  65.6774673  27.0007114  20.2038612  42.6723938
  26.5581207  19.9756374  43.4898643  27.3773003  19.3790760  42.3655663
  10.7310629  29.7600651  83.1693344  10.3898926  29.4506760  82.3302231
  11.0668173  28.9720573  83.5965881  68.5126877  57.3821259  52.1749344
  67.6892776  57.3375359  51.6888962  68.9171829  56.5251465  52.0399895
  55.2396126  28.3977890  86.8888321  56.1004753  28.5971508  86.5208664
  55.0062485  27.5514603  86.5073776  52.0549927  47.9853134  31.9657440
  51.4078560  47.8054886  32.6477356  52.7558517  48.4545479  32.4183464
  74.0869370  23.9034138  36.6760368  74.4719391  23.9308357  35.8001099
  74.2867661  24.7605133  37.0524406   1.2643287   8.4709702  43.4537048
   1.6732966   8.7425261  44.2754326   1.1254519   7.5293322  43.5550079
  20.0940895  34.6439171  89.5113983  20.0038586  34.2075500  88.6642380
  19.7255840  35.5162621  89.3719254   3.9430125  47.7017174  83.7243881
   3.1750069  47.7847748  83.1591415   3.7707081  48.2994156  84.4519196
  38.9775772  68.8853455  61.3649445  38.1608543  68.3862305  61.3738556
  39.3013649  68.8309021  62.2640724  16.3245983  37.1369820  87.0516739
  16.5868320  36.3151131  87.4664001  15.9340096  36.8712196  86.2191849
  79.0044327  61.0812759  48.3157921  78.2409286  60.7806511  48.8086548
  79.6125870  60.3425674  48.3421593  50.8760033  60.7597847  74.5055542
  49.9206047  60.8019257  74.5464783  51.1642380  60.9986229  75.3865204
  82.7708511  42.7130966  85.2056274  82.6649323  43.6031151  85.5416031
  82.2347183  42.1726532  85.7858963  51.1907806  25.8445721  82.5891037
  51.5406570  24.9539471  82.5644760  51.4856758  26.1945858  83.4297943
  67.3731689  25.8514442  68.1282959  68.3071594  26.0410748  68.2173767
  66.9384766  26.5617733  68.6002121  63.2391701  62.3224716  10.4097567
  62.9672012  61.4417152  10.1518173  63.5723114  62.7160721   9.6033268
  57.0242538  46.3808327  74.0272064  56.6443024  45.5602074  73.7134552
  56.5000839  47.0632172  73.6078873  10.6278591  62.2294044   8.7533445
  10.5593729  61.7589417   7.9225578   9.9301357  62.8836555   8.7163248
  71.9724045  67.2227936  23.2799854  71.3978577  67.0532608  22.5334015
  72.4330444  68.0295563  23.0493717  14.5653238  51.5720062  40.0919876
  15.3138838  51.0699463  40.4142151  14.7645493  51.7338486  39.1698456
  35.4422836  45.7130356  84.0549164  36.0428123  45.5985794  84.7914581
  34.9360580  44.9010277  84.0302124  80.2668533  45.2380486  24.2117577
  80.8049240  45.0027504  24.9676304  80.8098907  45.0204277  23.4541416
  60.0754585  25.7399158  59.6264420  60.0333595  25.0303783  58.9853325
  59.5354195  25.4359245  60.3559456  76.7503891  49.5811691  17.5959358
  77.6184464  49.6643181  17.2012196  76.4520493  48.7092972  17.3369808
  51.3686447  36.6499405  31.2928123  52.0155945  36.9718018  31.9205799
  50.9948997  37.4420471  30.9066582  15.0942764  22.3089828   3.0290744
  14.4219484  22.1341286   2.3705659  15.8566170  21.8130302   2.7305770
  67.9388199  47.4916725  24.5262299  68.8428879  47.1772041  24.5284863
  68.0090256  48.4240074  24.7312984  20.3869514  67.7530823  57.3605576
  20.5574074  67.9579391  58.2799072  21.0967922  68.1831894  56.8837318
  74.0213776  56.7233582  16.8645134  74.1608734  57.1073036  15.9988575
  74.4355469  55.8618774  16.8140030  30.2954426  15.3376226  12.1655321
  29.3574123  15.1890173  12.2848988  30.7026844  14.9188776  12.9238453
  17.7771397  65.6557693  23.9338398  18.0761280  66.2914200  24.5840626
  18.1225357  65.9824677  23.1030560  79.2941895  33.9786987  77.3456802
  78.5010376  34.4968376  77.4823380  79.5218964  34.1268768  76.4278412
  20.1051121   4.4390645  50.2267647  19.5871449   4.9402537  50.8566475
  19.7071247   3.5685272  50.2281914   5.1356907   8.4523411  71.6019135
   5.8550286   7.8220434  71.5630646   4.3535976   7.9354091  71.4086761
  78.8200302  41.2291527  80.8116837  79.1143265  41.2495880  79.9010773
  78.0849304  41.8415947  80.8396225  80.1166992  71.4180527  86.0140762
  79.3621521  72.0031052  85.9462051  79.8237534  70.6014481  85.6096344
  69.5139313  24.2503071  45.4035759  69.4360733  23.5196667  44.7901154
  69.8026199  24.9863529  44.8640175  43.5814247  42.1397705  22.7569962
  43.0844955  41.3364105  22.6023884  43.2981796  42.4337311  23.6227856
  83.4623795  31.1065216  50.6183205  83.9269638  31.4959564  49.8775520
  82.8766861  31.7989426  50.9245033  12.0873051  32.2641144  71.6870041
  12.0170250  33.0726433  72.1945190  12.0149336  31.5658321  72.3376999
  41.8456764   6.5238643  79.3460693  41.4863129   7.2205558  78.7967834
  42.2353287   5.9071646  78.7263184  15.8302269  46.2985764  12.4369459
  15.8175039  47.1571159  12.8600044  14.9233971  46.1502151  12.1688404
  66.5754013   7.9588714   8.8594608  65.9437027   7.9037790   9.5765009
  67.4122086   8.1330805   9.2903271  50.8610802  30.7422276  59.9638100
  50.3549271  30.8318081  60.7712860  50.3374786  31.1934280  59.3016243
  49.7882462  37.4534836  13.2893801  49.9019012  36.5812721  13.6669559
  49.3995209  37.2934151  12.4294376  -0.1267965   2.1298118  73.8695145
   0.6275946   2.7160654  73.8109283   0.2499704   1.2746425  74.0767899
   6.4180698  69.2590714  36.3031044   5.5484114  69.3131180  35.9068642
   6.4441085  69.9872131  36.9238739  56.7747765  38.8966866  34.1049881
  56.2949867  38.2713470  34.6481133  56.2656174  38.9515953  33.2963028
  85.6748734  11.8821554  10.9581842  85.2828369  12.6359816  11.3989611
  86.1731720  11.4365759  11.6433001  80.4797592  30.8040257  20.2880688
  79.7482758  31.4099140  20.4066315  81.1938324  31.1881924  20.7967434
   2.6468205  20.0961018  85.9574127   2.4685438  19.2050571  85.6566010
   3.5449681  20.2689877  85.6751480  33.7844124  32.2695427  87.8061447
  34.1596718  32.1523094  88.6788864  33.6915398  31.3804340  87.4639587
  23.1500225  69.6261826  48.6980133  23.3289223  69.9613342  47.8194389
  22.6411266  68.8288727  48.5511856  62.6547432  49.7694016  37.1404305
  63.0789185  49.7583237  37.9984436  62.9377441  50.5933876  36.7439613
   8.2620697  54.8826256  84.5099258   7.9789863  54.5590591  83.6547012
   7.4476867  55.0721512  84.9758530  39.1275368  55.8092384  35.5028763
  38.9993744  55.2809296  34.7150307  38.6050949  55.3695755  36.1736832
  65.5234833  32.3172760  26.9672222  64.6458588  31.9803925  27.1475430
  65.8399429  31.7833443  26.2385254  81.2216721  26.9502487  55.3180122
  82.0446854  26.5333595  55.0629082  80.5431442  26.3512592  55.0065002
  52.3016205  66.3963394  32.6855431  51.3801842  66.1378555  32.6661568
  52.4851570  66.5596237  33.6106834  14.5180922  67.7300186  32.6203651
  14.2703543  68.6397476  32.4552917  14.4590273  67.3065262  31.7639790
   6.8088226  60.8826141  81.7796936   7.2676187  61.1021271  80.9687958
   6.9431067  59.9405708  81.8833847  49.3585854  62.7332535  20.2090302
  49.6307068  63.2802162  19.4721355  49.9085693  61.9525528  20.1437664
  21.2810345  41.7302628  88.6335449  21.2852573  40.8997116  88.1577301
  20.3798618  41.8250084  88.9419937  37.1413765   2.5399649  45.5342445
  36.4423943   1.9186678  45.7383156  37.2055664   3.0925951  46.3131638
   9.7997513  56.7848740  34.2111664   9.3844271  55.9288673  34.3159981
  10.7328100  56.6160164  34.3420105  46.4754601  68.4793396  28.0928211
  47.0037117  67.7427368  28.4003849  45.5923080  68.1207047  28.0053482
  27.4998474  56.3398247  24.0884018  26.5991840  56.0899811  24.2948437
  27.4269924  57.2248383  23.7310867  65.7181091  51.9696579  49.9986916
  65.4364243  52.6058540  49.3413200  64.9044037  51.6601944  50.3966217
  20.2044430  41.5621223   3.4241362  19.7474747  40.8075218   3.7956052
  19.7443295  41.7408600   2.6040268  26.8106136  11.6916876  57.6331596
  26.1650333  11.6808300  58.3397980  27.5601654  11.2123041  57.9861412
  30.2173462  42.2087059  46.0454445  31.1266842  42.0224228  46.2791824
  30.1094208  43.1420555  46.2283325  82.3795547  49.0762520   3.8862705
  83.0987167  49.3674393   3.3256941  81.7112885  48.7644844   3.2759807
  36.6304054  36.9210052  80.9236526  37.4582558  37.2924347  80.6188126
  36.8773041  36.3515091  81.6523132  72.4085236   7.4344444  70.9361115
  71.7049637   7.0198884  71.4355011  73.1602020   7.4255958  71.5286789
  44.5850067  64.5968552  62.3128433  44.9175835  65.4830017  62.1701164
  44.6015778  64.4850082  63.2633400  40.8933601  48.1649971  51.0819283
  40.5138626  48.5901604  50.3128700  41.0707359  47.2685852  50.7969360
  66.0536118  50.1171761  34.8014069  65.5446777  49.4268761  34.3763084
  66.9628296  49.8293381  34.7196083  25.4261723  17.0855293  79.4734116
  25.0560780  17.0864258  78.5906525  26.3493309  17.3042927  79.3463058
  20.9074974  56.5274315  69.6520309  20.1760006  55.9387627  69.4659805
  21.3623466  56.1189003  70.3885422  67.2286453  62.6420097  87.7690811
  66.3916397  62.7580147  87.3194199  67.5739822  63.5295677  87.8650894
   6.2531571  57.8704987  51.6389656   5.9994807  58.6130371  52.1871605
   6.4021015  58.2515144  50.7735901  74.4570847  43.4486694   7.5984063
  73.8199158  43.7628250   8.2399292  74.4354782  42.4957504   7.6862216
   3.9189253  64.0411224  56.4635811   4.6532464  64.3741608  55.9477425
   3.1724474  64.0718231  55.8652000  80.5633392  34.9384575   0.5337158
  81.4035721  35.3592110   0.7159656  80.7722244  34.0069923   0.4632066
  24.1169930   7.6382151   2.6786265  24.3306580   6.7067828   2.6237321
  24.3413887   7.8829169   3.5764012  54.0723534  50.4311790  46.3468475
  54.3829536  49.7457314  45.7553062  53.3042793  50.0502548  46.7725143
  31.8896389  17.5434418  72.3329391  31.9688587  17.3072491  73.2571487
  31.9708462  18.4971237  72.3216400   6.6998544   8.7990427  54.1303673
   6.3070049   9.0232830  53.2867928   6.4712315   7.8792176  54.2640991
  64.2268829   9.1623211  59.1577339  64.9744186   9.3265104  58.5828781
  63.5411110   9.7448072  58.8311424   3.7357025  54.4615746   4.6993623
   3.9230652  54.9672699   5.4901853   2.8013575  54.5987511   4.5431108
  81.3599396  48.9391861  88.3333664  81.9474792  49.6397743  88.0501556
  81.9425430  48.2636261  88.6803818  26.0576305  19.5530453  85.3930130
  26.3947506  18.6655064  85.2711258  25.1157608  19.4364872  85.5176239
  23.0542622  59.1658897  46.6317215  23.0769119  59.4041519  47.5585175
  22.7215176  58.2684288  46.6232033  81.0724411  60.0254822  58.0973434
  81.9200668  60.3998108  57.8572731  80.7747269  60.5594940  58.8338394
  10.4438286  37.1589165   0.6210616  10.4124050  36.2138481   0.4724164
   9.7023315  37.5043411   0.1239758  47.3224678  53.2293205  40.6412277
  48.1164246  52.7391167  40.8546944  47.1116638  53.7053566  41.4444580
  39.9906006  68.4834518  63.7446671  40.8682289  68.2860260  63.4175301
  39.6929932  67.6646652  64.1412125  13.0188456   5.6851988  30.3539753
  13.4603453   6.4457359  29.9759636  13.4774094   5.5277681  31.1793041
  34.1315842  38.7563629  66.4552460  34.0271797  38.4474297  65.5553055
  33.9090843  37.9985046  66.9959641  10.1158609  59.6891556  34.2199821
  11.0090046  59.8852692  33.9370232  10.0297585  58.7430763  34.1027260
  77.9464798   1.4487219  85.9909897  77.1575165   1.1522706  85.5372467
  77.9515457   2.3978853  85.8673172  59.7862015   0.0836812  65.3283920
  59.5746307   0.4319961  66.1944962  59.7449455   0.8437023  64.7479630
  53.6683884  46.1713104  33.9627838  53.9782906  47.0346909  34.2362099
  54.3878441  45.8119240  33.4436874  74.7178497  37.1862793  66.7566223
  74.2334976  37.4885674  65.9883423  74.0894470  36.6501236  67.2402420
  50.4134636  16.2669125  17.5186481  50.7352715  15.5300894  16.9992599
  49.5039902  16.3765411  17.2410278  70.8091660  14.6523857  86.9065018
  69.9050140  14.6105709  87.2179337  71.3024216  14.1203861  87.5309296
   5.0764761  48.2525749  53.7906456   5.0908008  48.8979034  54.4974480
   4.2740226  47.7523575  53.9392548  51.9480705  20.7296734  70.4654465
  52.0957642  21.2103806  69.6509857  51.0023079  20.7789536  70.6045151
  73.5931549  23.7587929  50.4451904  72.9124908  23.0889988  50.5108070
  73.1239700  24.5527668  50.1888657  15.3759480   1.2449871  88.7197113
  14.8311386   1.7253551  88.0962830  15.4990511   0.3852100  88.3173904
  24.3853741  71.1975174  19.9740829  24.7786522  70.3887482  20.3018818
  23.7795944  70.9096222  19.2911606  59.1182213  50.8202286  40.6453018
  58.8581619  51.4220886  41.3426971  60.0434303  51.0138245  40.4945030
  84.5881348  65.3397675  61.1500092  84.9100647  66.1444244  60.7436523
  83.8197403  65.1005554  60.6317673  25.3683777  11.2593012   6.4696760
  26.0153008  11.4750681   5.7979860  25.7857723  11.5104151   7.2936640
  17.1738358  54.8020515  59.0582809  17.7768135  55.0438614  58.3553047
  17.7354279  54.6779327  59.8234215  28.9237633  50.6275139  -0.2073551
  28.2849598  49.9254265  -0.3307678  29.0957260  50.6320763   0.7342605
  44.3189735  51.2054787  62.4548378  44.3430481  51.8036804  63.2017021
  44.1778259  50.3423195  62.8437653  66.1327057  50.1476212  37.4701920
  66.8796310  49.5602417  37.3547707  65.8520355  50.3561211  36.5791321
  85.9416580   7.6215353  82.5314941  86.2648697   8.4125557  82.9628296
  85.2204132   7.9265647  81.9810486   1.8030684  51.8331718  64.4442673
   2.0004365  52.1783180  63.5735474   2.3863301  51.0804405  64.5414047
  60.1041718  48.1540718  70.9051819  59.9126091  47.2187386  70.9736328
  59.3850212  48.5805702  71.3711777  21.4414349  36.8457184  23.6056499
  21.4644051  36.6241684  24.5365734  20.7588215  37.5130119  23.5350304
  72.7641220  37.9628639  75.3828201  72.5825424  38.8911476  75.2360077
  73.2104874  37.9370537  76.2291718  30.7371159  22.5989094  62.8482323
  30.1396313  21.9379082  63.1979752  30.9651279  22.2779980  61.9757309
  84.5912704  45.0464630  65.2762299  83.9132385  45.7179413  65.2012711
  85.2175827  45.2602577  64.5846710  27.4475403   0.8985938  11.3445568
  26.7547855   1.5107576  11.0964079  28.1048164   1.4433832  11.7774830
  56.8636627  33.1598320  13.8670378  57.1212959  33.7611237  13.1682472
  57.5762711  33.2133331  14.5038767  73.3683319  32.6112366  69.9673691
  73.7299576  31.8473549  69.5179901  73.4199142  32.3889160  70.8969650
  79.1283646  15.4517136  53.2628098  78.4751587  14.8134813  52.9760742
  78.9302139  15.5981817  54.1877480  68.4768524  14.1049643  88.2020798
  68.7916870  13.8035879  89.0543060  67.8768539  14.8217287  88.4081955
  30.6625481  23.2415886  60.1467934  31.0433064  23.5266647  60.9774475
  31.3727474  23.3376694  59.5122719  83.5516891  22.7883530  82.1941910
  83.7533875  23.2125092  83.0282440  84.2907181  23.0102253  81.6277618
  75.2109451  22.3576260  70.9554138  75.2181778  23.0793476  71.5841446
  74.5600967  21.7462158  71.3001022  27.2180290  21.3997631   4.9382210
  26.2910271  21.4125919   5.1764092  27.5787506  20.6552505   5.4196906
  68.1253586  69.4476624  79.0061798  67.9288559  68.6467361  79.4921188
  67.2883606  69.7045135  78.6192703  58.2251549  27.1646156  88.1352768
  58.0609093  28.0760231  87.8932266  57.4275398  26.8893661  88.5872498
  49.2779961  68.9011383  20.4581165  48.9391899  68.9766159  19.5660706
  49.3082504  67.9588928  20.6239090  34.6392937  23.0727444  11.3956766
  33.9660950  23.6313000  11.7843285  34.4576950  22.2002964  11.7450886
   3.8698075  38.7442589  34.3130836   4.2301369  39.1856651  33.5439568
   3.8247035  39.4273758  34.9820747  73.0247421   8.1557207  15.5389214
  72.9192505   9.1068487  15.5175114  72.1807175   7.8144140  15.2433453
  20.5683231  66.4940262  38.5238304  21.4600468  66.8403854  38.5569229
  20.1725101  66.9236069  37.7655296  45.1242943  53.3883553  33.4603653
  45.3524971  52.9658165  34.2883873  45.8762550  53.2227287  32.8917274
  40.6054535  61.1826897  34.0317001  41.2357864  61.8394699  33.7358093
  39.9908791  61.0951958  33.3030891  69.3757095  42.0865517  34.8064499
  69.7305832  41.1979523  34.8327522  68.8837204  42.1722412  35.6230507
  43.6760597  -0.0785334  29.4779778  44.5768166  -0.1220732  29.1570854
  43.7291527   0.4584124  30.2686119   7.4881020  60.5228424  33.7377167
   7.4897027  60.4376068  32.7843208   8.3347816  60.1698647  34.0111618
  86.6776123  59.9757271  79.5646515  86.8145676  60.9222908  79.5260696
  85.8257065  59.8740845  79.9891052   3.1917481  24.5040779  25.5567188
   3.2305598  24.4677067  26.5124397   4.0051403  24.9386997  25.3003445
  61.2863388  51.7620659  64.3670807  60.3912735  51.4559708  64.2208176
  61.5433502  52.1575317  63.5341415  58.5715828  14.9133472  29.6743984
  57.7268333  15.3515339  29.7774715  59.1970749  15.4940691  30.1076984
  66.7854691  15.9153013  79.7930984  66.2615585  16.4264164  79.1762390
  67.1509018  15.2049255  79.2657928  51.3167419  17.8430481   8.2654657
  50.3705177  17.9701767   8.1966658  51.5542068  18.2563553   9.0955381
   6.0889053  40.6668510   4.8486876   6.5491328  39.9827042   5.3348603
   6.7145748  41.3897629   4.8021379  11.9683018  43.6649895  41.8169518
  11.0684223  43.3431129  41.8702736  12.3975792  43.3057327  42.5934105
  29.5544167  33.8166313  12.4438324  29.9411812  33.0134125  12.7923841
  28.9966259  34.1403999  13.1511345  21.7917061  66.5792923  83.1339264
  21.0025291  67.0059204  82.8001328  22.3089790  67.2920990  83.5088501
  67.4809341  48.7334862  55.5926132  66.7070999  49.0900612  55.1564217
  67.1631622  47.9501152  56.0415878  48.4759331  59.3520737  33.2285461
  49.3257866  59.7052803  32.9654350  47.8612289  59.7013550  32.5832710
  61.7577324  17.2655277  58.6678734  62.1043472  17.1505356  57.7830734
  61.4334717  16.3988132  58.9125977  61.1492119  24.6225433  80.5683975
  60.4214897  24.1332703  80.1846466  61.7532883  23.9484539  80.8797226
  85.2443161  40.9855957  27.4385185  85.5253296  41.7828064  27.8876476
  85.1655502  40.3335114  28.1348057  68.3618011  14.4943666  48.7497330
  68.8556595  15.1600685  49.2284622  69.0230026  13.8623419  48.4676132
  74.8142471   2.9825549  80.8974609  75.4719238   3.0111828  80.2025681
  74.6640091   3.9005895  81.1230087  19.8849678  70.7325211  74.0166779
  19.9890118  70.4985580  73.0943604  20.7043533  70.4568710  74.4276047
  21.6047306  26.1631317   3.1797290  21.1467972  26.8708687   3.6331990
  22.5327473  26.3744946   3.2814338  42.9431953  20.5294113  81.9854050
  42.6031799  19.6536617  81.8018799  42.1630173  21.0609779  82.1434937
  42.9972382  38.0386009  20.6312523  42.9072952  37.1995621  20.1794167
  42.4285889  38.6350365  20.1442909  86.3097458  57.3857574   2.7530193
  86.4976730  58.1803017   2.2534037  85.4203415  57.5147552   3.0824962
  71.0070038  66.9930420   2.1286645  70.3819046  66.3941803   2.5371394
  70.4617615  67.6305466   1.6676555  83.9720917  42.6889877  78.0785370
  83.6883926  43.2122765  77.3289261  84.5210953  42.0034065  77.6980057
  44.0708580   1.2587917  11.0566320  44.7540131   1.8669269  11.3389473
  43.2551308   1.6574022  11.3598347  56.0827141  51.1067276   6.1123171
  56.3754692  50.1954422   6.1030173  55.1632767  51.0602608   6.3744445
  24.4612789   5.5904140  41.7213211  23.5437222   5.6976748  41.4706841
  24.5775414   6.1829891  42.4639969  80.0993423  41.7809906  71.4600372
  79.4777679  41.5288658  70.7771683  80.9170914  41.9457397  70.9905930
   8.2113724  53.9953918   5.8196311   8.3786516  54.2826767   4.9220138
   7.2591267  53.9129105   5.8711839  42.9918861  44.1844826  32.6119652
  43.4702835  44.6942596  33.2657967  42.3782158  43.6561012  33.1223106
  54.6013069  66.6365280  18.7839661  54.9969597  65.8095627  18.5086002
  54.3302078  66.4826889  19.6889935  35.4569168  70.7911224  88.0642929
  35.6305618  70.7695160  89.0053635  35.4809151  71.7207870  87.8376007
   8.5326653  52.2596703  81.1185684   8.0238390  51.5668831  80.6974106
   7.9279008  52.6519127  81.7483597  24.5781784  68.5925674  20.3360195
  24.8524323  68.2126846  21.1707077  24.2946358  67.8425827  19.8131828
  21.0985851   4.1223531   0.4457115  20.7156487   4.4158220  -0.3810096
  21.2846546   4.9305115   0.9237174  24.5920467  25.5441418   3.4605229
  24.6374092  25.0126801   2.6657133  25.0272064  25.0140495   4.1282597
  85.4469986  53.8207474  87.7294846  85.6969452  54.6877899  88.0488434
  86.1457748  53.2423325  88.0350571  82.6193085  13.2304573  63.1043854
  83.2630539  13.5585241  62.4765396  82.6960678  13.8186760  63.8556099
  42.9522591  58.3785210  21.6819763  42.6005287  57.4887352  21.7102680
  43.8233376  58.3042336  22.0717678  70.1276932  12.5056267  75.3428040
  69.4442444  12.0648232  75.8476028  70.3336258  13.2895555  75.8519974
  67.4518890  22.5813046  59.1027565  68.1630402  22.5794430  58.4620514
  67.3366165  21.6599674  59.3353081  61.5172882  20.6883125  79.5612259
  62.1065941  20.9810638  78.8660660  61.1906052  19.8414230  79.2574387
  78.7542419  20.9725189  34.8023872  79.2072067  21.7380810  34.4488754
  78.2962646  21.3012390  35.5759735  81.1339493  38.0257759  29.2949448
  81.6380692  37.8676071  30.0931149  80.5211487  37.2918625  29.2493210
  39.4223938  37.7688408  56.4343567  39.8216858  36.9716454  56.7826080
  38.8652077  37.4644279  55.7180405   7.6929398  43.5599518  45.8246765
   7.7718501  43.6558571  46.7737846   6.7595220  43.4087563  45.6760063
  65.1428375  27.4870491  46.1367340  65.5642090  28.0526657  46.7838440
  64.2114944  27.6971283  46.2052879  56.4693794  70.0041656  66.2627487
  56.2074966  69.2749939  66.8248444  56.0298386  69.8341904  65.4295959
  48.3725357   4.6532078  73.1759415  48.0880585   3.8514497  72.7372055
  47.8554688   4.6820993  73.9809494  41.3804016   8.5492601  28.9562931
  40.8997765   7.9122357  28.4276810  41.8472633   9.0873976  28.3170128
  49.8229523  60.3806419  71.6803970  49.9410057  60.5881882  72.6073380
  50.2354050  59.5236397  71.5724182  49.6296463  68.9708099  66.0698776
  49.4300995  68.0388794  65.9809265  49.0037346  69.4060822  65.4910812
  83.4335632  67.6500473  76.1733322  83.8600845  68.4267273  75.8112869
  83.9547729  67.4283218  76.9449539  51.8855057  45.7722282  77.9130859
  52.2696953  45.5451317  77.0662994  52.1160736  45.0399742  78.4848175
   9.1838484  47.1507111  16.4150066   8.4993773  46.4916801  16.5307922
   8.9914761  47.8147011  17.0770817  68.2189331  48.1102028  63.1190796
  68.1913452  48.9918709  63.4907455  68.2720871  47.5312805  63.8795090
   8.6961174   2.1958363  14.6882896   9.1890287   1.5999401  14.1242170
   7.9214883   2.4256148  14.1750813  11.4030123  65.1011124  10.1337585
  11.7531681  64.8863754  10.9983454  11.4516325  64.2796173   9.6448650
  51.1743927  59.6067886  22.4024220  50.6280251  60.0268097  23.0667229
  51.7739372  59.0518761  22.9012699  13.0218058  44.8545570  67.2559662
  13.5062208  44.7959633  66.4324799  12.7340736  43.9581528  67.4288940
  73.1170197  13.4846506  83.2218781  73.6374054  14.2370834  82.9403152
  72.2710571  13.8577385  83.4696350  63.3077202  30.4475594  76.5108185
  63.5301514  29.9968834  75.6961746  64.0039520  31.0945415  76.6244202
  28.2456684  45.0434418  87.1777802  29.0459576  45.0822182  87.7014847
  28.3343315  44.2407227  86.6639633  23.5521164  21.6548309  45.4489441
  24.1374416  21.5521870  44.6985512  22.7386131  21.9920273  45.0737839
  77.6361313  49.1601715  33.9954720  76.7997284  48.7319221  33.8130608
  78.1135101  48.5322113  34.5376930  17.9406967  66.0875854  44.5854340
  17.2949142  65.6598892  45.1478157  17.4300251  66.4301224  43.8518677
  60.1594391  51.0461235  24.7305336  60.6454849  50.2639694  24.4693336
  60.8138199  51.6066513  25.1474590  42.8888359  10.5604448  24.8534374
  43.4472008  10.4038782  24.0918922  42.0907059  10.9443674  24.4903641
  37.2878685  52.8491440  61.8643112  36.6078644  52.1917877  62.0116653
  37.0007744  53.6085510  62.3713760  81.4278030  45.2234421  34.4547119
  81.5567474  45.1978493  33.5065842  82.0197067  44.5526237  34.7951241
   4.9477663   5.3510180  86.3764038   5.3508887   4.6328816  85.8885422
   5.5523510   6.0848184  86.2657394  47.2993813  51.9876175  50.1560745
  46.7259140  52.6641731  49.7960129  47.9219322  51.8022728  49.4530029
  44.4918098  54.2972870  50.9959984  44.6962242  54.2566147  50.0617638
  43.7247314  53.7339096  51.0980873  20.8103466  35.1069031  64.5152817
  21.3335266  34.4606819  64.0410309  20.3252354  35.5700951  63.8323860
  33.7662697  43.5793686  84.5114441  34.1931229  42.7339172  84.3727264
  33.2483330  43.7191086  83.7186966  68.8578568  31.1299171  12.6994524
  68.3963928  31.8692932  13.0951824  68.9216919  30.4834251  13.4024496
  13.3653173  43.2449684  32.1124077  13.8634377  42.4592476  31.8871307
  13.8357401  43.6217842  32.8560104  46.7367477  13.5581627  65.8129349
  47.0079613  14.1864128  65.1436310  46.4024696  14.0994682  66.5281143
  74.2898865  14.8710089  72.4708557  73.5975723  15.2915630  71.9608841
  74.2519913  15.3000498  73.3256760  70.1017303  63.4160461  67.7972336
  69.9314041  63.5829010  68.7242584  69.6809845  64.1450424  67.3414154
  82.3888016   5.9222879  86.2615585  82.2865677   6.7751241  86.6839905
  83.3325958   5.7628174  86.2692032  29.5712223  66.8070450  50.6566467
  30.3214111  66.7121735  51.2435417  29.7954521  66.2747498  49.8933525
  11.5172739  57.1571846   8.6458321  11.4791584  56.6584473   7.8297186
  12.1472759  57.8561020   8.4702091  43.5597000  46.4539566  64.9150391
  42.7289314  46.3554955  64.4498978  43.9979553  47.1801720  64.4714508
  10.6999979  67.3655167  47.2132263  10.3098593  67.1570053  46.3643761
  11.6415052  67.3954620  47.0432320  24.5440731  59.0208092  57.3432579
  23.6420116  59.1224594  57.0396347  24.9658203  59.8514938  57.1234398
  51.3925476   7.7692084  18.6996861  50.8730392   8.1709576  19.3960629
  50.9500732   6.9399118  18.5188084  39.9528656  59.4678001  17.3368969
  40.4017944  59.3615913  18.1755943  40.0561371  60.3956947  17.1257668
  54.6258736  17.2424202  26.4875183  55.1525917  16.9181709  27.2180386
  54.2372017  16.4558506  26.1047974  32.6296425  63.6275482  29.1911869
  32.3759003  64.2216034  29.8975430  32.2487068  64.0155792  28.4034348
  55.1216774  25.1761475  79.0837631  55.9982834  25.5571842  79.0326843
  54.5831070  25.7389393  78.5274887  28.6965752  59.0142212  35.2208862
  28.9499645  59.8848228  34.9141579  27.7401333  59.0158424  35.1828003
  81.0530167  61.4462967  22.9762955  80.7323456  62.0973358  23.6004372
  81.7716370  61.0096588  23.4336414   0.9619817  36.0941696  34.0225182
   1.1338961  36.2573051  34.9499168   1.0009209  36.9597969  33.6158218
  70.8487549  17.6814461  42.7299805  70.4440765  16.8281670  42.8861237
  70.9812317  17.7139244  41.7825470  18.1220493  62.3101349  44.2265053
  17.9216690  61.8731117  43.3988037  18.8691769  62.8735847  44.0251160
  32.4696274  71.3556366  79.7743759  32.1163368  71.0389023  78.9430542
  32.5018616  70.5786514  80.3324890  20.6122417  67.8835907  77.8403854
  20.5148048  67.2091141  78.5125656  21.1591129  67.4754944  77.1691055
  76.1928482  52.7038612  50.3900375  75.8869019  53.2816010  51.0892105
  75.5251160  52.0202522  50.3348274   3.6579931  51.5849152  20.3515415
   2.9522884  51.0202827  20.6668224   3.8860738  52.1274185  21.1064625
  45.8682976  51.1927338  81.6585846  45.0615883  51.3384743  81.1644058
  46.4455681  51.9078712  81.3910675  71.5548630  41.5777740  29.3688335
  72.5107651  41.6259689  29.3564625  71.2787323  42.4010124  29.7716503
  46.4488029  62.4596710  83.1644592  46.7982292  61.6228790  83.4709167
  46.4088707  62.3683205  82.2124710  45.5402107  49.2564430  13.6509514
  45.4210777  48.3818932  13.2805462  46.1346893  49.6953125  13.0424948
  76.3174667  68.3090363  47.3084831  77.2095947  68.1743546  47.6281700
  76.1588669  69.2453613  47.4284134  63.0270691  59.6576309  28.7709808
  63.0674934  58.7264290  28.5531311  63.6966171  60.0619774  28.2192192
  56.3468552  29.5959797  64.9151993  56.6950912  28.8446751  65.3953094
  55.4995155  29.2973423  64.5849533  70.5706635  29.8128986  74.0322037
  70.1723099  30.6389198  73.7579193  70.2172012  29.1631451  73.4246597
  83.0747604  22.6252899  87.5232086  83.8547363  23.1541252  87.6911240
  83.3715973  21.9463634  86.9172592   9.0528078  51.1974564  30.3157997
   9.4084721  52.0804062  30.4164619   8.2486734  51.2025261  30.8350048
  34.5809288  38.8687210  14.3646088  35.5191574  39.0544357  14.4029913
  34.1970787  39.4350967  15.0340214  26.7961826  56.8612061  39.7120323
  27.2468529  56.5221558  40.4854469  25.8793850  56.9277954  39.9790154
  57.4409752  30.8285084  23.3593655  57.0977821  31.5180244  23.9277134
  58.3686981  31.0413227  23.2579994  31.0997047  71.3213577  57.0491066
  31.0060387  71.3274002  56.0965195  32.0372467  71.1971283  57.1968040
  55.5895576  58.0221748  57.8742599  56.0005150  58.8839645  57.9425697
  55.0884285  57.9308777  58.6846695   1.2989402  28.0507889  78.5280533
   0.8937442  27.5397072  79.2286606   0.6657667  28.7435818  78.3400116
  64.1412506  56.1745872  70.4959106  64.8363342  56.5555611  69.9593048
  63.3473854  56.6328087  70.2201538  84.8913498  35.4575119  72.7926941
  85.1086884  34.7971497  73.4506531  85.6350861  36.0599899  72.8032532
  75.5970612  26.4451180  11.4658546  76.0844727  25.7524223  11.0199451
  74.6777573  26.2088947  11.3420963  37.6414146  67.5645218  52.5479546
  37.0387268  67.8732224  53.2244911  37.7931328  68.3307037  51.9946289
  44.2254982  63.7533722   8.1226482  44.8328094  63.0479431   8.3457489
  43.8316841  64.0036545   8.9584141  84.5116272  33.5137253  42.2764091
  85.0733109  32.9059906  42.7574539  85.1117706  34.1789894  41.9395409
  66.2235565  62.4034119  50.8324699  67.1242599  62.1660004  51.0529137
  66.2714462  63.3291397  50.5937920  47.0730095  64.8792725  84.8604507
  46.9503517  64.0682526  84.3670578  48.0221405  64.9992294  84.8919830
  53.2792015  24.0477829  35.6603737  52.4038124  23.9306774  36.0294418
  53.6118660  24.8411942  36.0799751  50.6018448  12.9324894  54.0900726
  50.4555855  13.6335602  53.4549828  50.2018280  13.2539778  54.8980713
  42.3260384   3.6478691  24.5204010  41.5100327   3.5965476  25.0181236
  42.4391708   4.5813746  24.3415165  55.9735489  21.7706852  26.5598736
  56.8678284  22.0936108  26.6704102  55.7460556  21.3990097  27.4121284
  83.8974533   1.8877350  81.7524338  84.1028900   2.7960966  81.9735794
  83.7144012   1.4716623  82.5948181  50.2195740  35.0005455  47.1176529
  49.4399529  35.5489998  47.2049332  50.8824348  35.4400215  47.6503029
  51.3220024  16.1862316  69.1693649  51.3387794  17.0910835  69.4811249
  51.6183128  15.6692677  69.9184875  64.4550323  70.0664368  32.3290520
  64.4798737  69.7148972  31.4390850  65.0298538  69.4885864  32.8309479
   2.7391646  39.8722229  62.1042404   2.1125522  40.1529350  61.4373131
   3.4660373  40.4899788  62.0250778  81.4545898  12.0324278   3.5544870
  80.9236374  11.3209629   3.1965201  81.3207321  11.9784555   4.5007443
  33.6409950  68.8601990  81.0977020  33.9317932  69.4591904  81.7853699
  34.3657265  68.8432083  80.4726410   0.9404683  13.2631330  39.3549500
   0.6683215  14.1113729  39.0047302   0.8010956  13.3379164  40.2989922
   8.9902992  68.6498642  24.2814503   9.6632004  68.6103439  24.9610634
   9.3533049  68.1428757  23.5552101  10.1229067   1.1669440  69.8232498
   9.8144827   0.6120690  69.1068573   9.5304356   0.9719948  70.5493393
  46.7710152   5.2385488  16.4145660  46.2724915   4.4265547  16.5060635
  46.7754822   5.6172094  17.2936726  59.2859497  -0.1450285  22.9045658
  58.4173508   0.1706552  22.6553535  59.5050240   0.3531447  23.6920071
  56.0235100  43.1881866   5.9577723  56.3375092  43.0129929   6.8448710
  56.7577782  42.9490089   5.3921962  18.2666531  35.0166626   5.8248792
  18.7067871  34.3371315   5.3142390  18.9446449  35.6732292   5.9845042
  82.5693512   1.7575750  42.6255989  83.3255615   2.3264081  42.4813538
  82.7819595   1.2743751  43.4240646  17.1943989  64.8629074  10.7351484
  16.3682365  64.6597366  10.2965040  17.6667671  64.0305862  10.7536469
  21.6380424  31.6514759  73.1938019  21.1125164  31.1450672  73.8131638
  22.4979496  31.7193298  73.6087570   6.1300159   5.9430532  70.6139603
   6.2616873   6.3851748  69.7752533   5.7113452   5.1134806  70.3842697
  59.9764442  65.3557968  70.1092987  60.6830635  64.8244629  69.7424164
  60.3946228  65.8629684  70.8050995  76.5590363  34.4175873  47.6745377
  76.1468735  33.6623802  47.2550049  76.4194183  34.2771263  48.6110229
  34.5336380  10.6769276  71.7840347  35.1731377   9.9675026  71.8471832
  33.7959709  10.3826942  72.3183670  18.3533993  34.6854248  72.0065765
  18.4985542  34.9354095  72.9190826  19.2110767  34.3917732  71.6993484
   3.6766286   4.0154276  14.1714869   3.2781701   3.1458471  14.2074366
   4.0771108   4.1311865  15.0331392   4.9990568  21.9719906   4.4162607
   5.1199937  21.1753407   4.9329395   5.1308031  22.6850319   5.0411177
  85.6032486  23.8724403  21.6398201  85.7209549  24.2603245  22.5069561
  86.4862442  23.8353558  21.2721596  45.4909706  63.3957863  53.6528473
  45.1171646  63.9678612  54.3230934  46.1242180  62.8553467  54.1252403
   4.5686059  27.0175762  89.2018051   5.0594583  27.7987213  88.9466400
   3.6816828  27.3361645  89.3694382  34.4754410  52.5464973  56.6058197
  34.1889801  52.1639977  57.4351959  34.5122452  53.4876976  56.7761765
   9.1720629  60.6984749  60.0325317   9.7400389  59.9874191  59.7358246
   9.5304327  61.4815292  59.6146469  61.6669731  45.0689354  43.3254662
  61.0943909  44.3053398  43.3982887  62.1897583  44.9023628  42.5411301
  18.1185036  44.7709465  27.5542850  18.1805820  43.8349495  27.7447853
  17.6199589  44.8167763  26.7384510  80.4889755  65.2823410  52.7716599
  80.5834274  64.9660416  53.6701393  81.3325729  65.6874008  52.5704117
  68.6022720  63.7925911  70.1137543  67.6901474  63.5595818  70.2868271
  68.7654419  64.5526352  70.6722717  68.2428741  53.6171494  77.9820404
  68.1779175  54.0641479  77.1381226  67.3741150  53.2400093  78.1208115
   6.7281508  10.9118490  60.1711197   5.9493957  11.2799215  59.7536354
   6.3879051  10.2426291  60.7649307  44.2377853  18.0823555   3.3717399
  43.3597832  17.7251759   3.2384496  44.4246063  18.5653877   2.5667496
  71.5949936  52.9005470  39.3531113  71.0901260  53.7113609  39.4157448
  71.1031342  52.3592262  38.7356339  14.6639900  64.7902451  58.0891342
  14.0028353  65.4035721  57.7683029  15.4210358  64.9357147  57.5217285
  68.8436127  58.0952721  35.7730827  68.8652191  58.8690491  36.3361359
  68.9628372  57.3590546  36.3730850  54.1494370  56.3713036  65.9198380
  54.0503464  55.6961823  65.2485580  55.0762711  56.3391724  66.1568680
  85.7909698  57.8198586  47.5786095  85.8971176  56.9079323  47.3077583
  86.5794907  58.2580948  47.2585716  53.1709251  49.2629280  74.2481689
  52.9937363  48.6894150  74.9937668  53.1297722  48.6849174  73.4863052
  14.2346773  66.5944748  55.2028046  13.9119263  67.4859161  55.3346786
  13.5936747  66.0394974  55.6470451  85.9594193  20.9265633  21.3063850
  85.2569733  20.2804375  21.2334194  85.5255432  21.7167225  21.6283073
  25.0533562  24.1676979  73.8655319  25.0928154  25.0209599  74.2975235
  24.6534348  24.3482056  73.0148163  31.1351509  69.2089233  40.8300438
  30.2375641  69.1935883  41.1622124  31.2314816  70.0778503  40.4402695
  33.3767548  59.5644035  28.4042377  32.6854630  60.2137947  28.5332336
  32.9736328  58.7327423  28.6533737  32.7010307  55.6087112  38.6984138
  32.9939575  56.2403679  38.0415764  33.5022354  55.1672516  38.9802246
  73.7072067  49.7147217  85.0597458  74.3798981  49.9970360  85.6794357
  73.8978348  50.2044868  84.2597275  12.5011454  33.0537338  53.5113068
  12.2316999  32.9218102  52.6023369  12.6021252  32.1688423  53.8620224
  52.3598404  23.1577072  68.5746994  52.3757248  23.3487129  67.6368866
  52.4370346  24.0142612  68.9949265  54.3830490  27.3472576  23.2187595
  53.7981491  27.5124264  23.9582462  55.2549400  27.5617924  23.5504417
  60.0134354  68.3818970  58.7290421  60.5993118  68.3148422  59.4830208
  60.4630203  67.9026794  58.0330124  52.5671501  52.4608994  44.8044662
  53.3808556  51.9599495  44.8607674  52.5268326  52.9457130  45.6288223
   3.5416350  25.4536304  20.8523922   3.4784734  24.9230499  21.6465740
   2.8261812  26.0849419  20.9285870  31.2138901  17.2969360  88.2105103
  30.4326172  17.5882893  88.6805725  31.6252651  16.6638565  88.7989044
  29.3074608   8.1860237  64.6929550  29.5037518   8.7631903  65.4309082
  29.1086788   7.3409333  65.0961151  51.9787292   8.1922359  51.2699776
  51.5281029   7.7236538  51.9725418  51.7286797   9.1078444  51.3939476
  49.7459297  19.1246834  59.3176727  49.6055717  19.7566929  58.6126213
  49.0019264  19.2530956  59.9060631  41.6532593  60.7968636  74.3727417
  42.1154137  60.5531578  75.1747742  41.3554344  59.9645538  74.0056000
   9.1235771  68.8760681  37.0230370   9.4084597  68.1159515  36.5157928
   8.2283020  69.0399399  36.7266273  18.2844486   6.6670513  68.9539642
  17.8550587   6.3114705  68.1758728  19.2201557   6.5865507  68.7690201
   2.8652596  33.5433769   1.0411789   2.4588785  32.8510437   1.5624853
   2.8267221  33.2195206   0.1412538  79.7428284  62.9763222   7.1835690
  79.3149033  63.7575493   6.8331370  79.1598282  62.6763458   7.8809609
  62.4208488  35.4535370  68.4549561  62.5304337  36.0716438  69.1775665
  62.8199005  34.6427879  68.7706680  29.8409595  54.2312202  20.9458580
  30.7926388  54.1294785  20.9321175  29.5046082  53.3353424  20.9682579
  85.6187973  61.3980598  25.6876450  85.9645081  60.5390587  25.9302025
  84.7325363  61.4103241  26.0490646  62.5690422  32.5549316   4.3214211
  62.6292686  32.0893250   5.1555762  63.3539124  33.1022263   4.2954011
  51.5404129   0.5591963  21.2959881  52.4510956   0.8366483  21.1964417
  51.5797234  -0.3971917  21.2930489  64.7965240  38.0106354  49.4921265
  64.4432755  38.8679085  49.7298927  64.2840881  37.3887634  50.0087662
  28.9182587  26.1973877  88.7284470  29.2576141  26.5259914  87.8959274
  29.6770382  26.1944065  89.3119431  35.9970856  22.9785614  76.7359619
  36.4610863  22.3686256  77.3094711  36.6906433  23.4278374  76.2528915
  74.4231415  61.5325470  62.0437775  74.6926422  61.4035378  61.1344070
  73.4746857  61.6530800  61.9977036  57.7631035  65.0661011  42.7841454
  57.5444069  64.1475601  42.9412384  56.9242325  65.4810791  42.5833359
   9.3142414   5.8150144  24.6060867   9.5716476   6.7341819  24.6775379
   9.8719482   5.4633512  23.9121647  58.5925522  44.9701195  79.9703140
  59.0948677  45.5551224  79.4031448  58.1257210  45.5563889  80.5657806
  51.9730530  67.8302689  19.3031750  52.3880463  67.7224197  18.4473820
  51.7555008  66.9394989  19.5778275  69.0894928  19.2296982  73.9233627
  68.7545471  19.9173584  74.4988327  68.5569687  19.2999516  73.1310730
  78.9479980  68.6079407  52.3071594  79.0446243  67.6713409  52.1348801
  79.5914688  69.0245514  51.7339134  34.0739899  65.5438080  58.1543159
  33.8682785  65.0378265  58.9403763  34.3663445  66.3928909  58.4857140
  59.4114799  59.0400620  51.3095207  59.6026649  58.1372833  51.0552292
  59.3708534  59.0161171  52.2655563  82.2864609   5.3396373  19.4155807
  82.0523834   6.2605791  19.5309315  83.0889053   5.2307315  19.9259319
  78.3861008  62.1484604  44.5302010  78.9366531  62.0172081  43.7582550
  79.0058670  62.3067741  45.2422867  51.6109657  55.6616821  26.6924782
  50.9351997  55.8580208  26.0436153  51.5503654  56.3771896  27.3254166
  46.6890030  56.2418098  10.2804203  46.8873215  55.9207268  11.1600828
  47.1180496  55.6175652   9.6952143  82.6432037  30.7126255  81.1128082
  82.9677277  29.9618130  80.6156235  82.9915390  30.5842876  81.9950943
  55.4032211  17.7954941  36.0605278  54.6542816  17.3763638  35.6366692
  55.8478012  18.2630978  35.3534737  51.5947800  39.0908966  84.5719376
  51.3409233  38.2172318  84.8694229  50.8462677  39.6456070  84.7916183
  76.4721603  61.9538689  65.3618546  75.8184967  62.0610313  66.0528488
  77.1945724  62.5240402  65.6250229  36.6580963  61.6204453  81.0005341
  36.2510185  62.2754822  80.4335709  37.3790550  61.2672997  80.4792480
  57.1160622  25.7399464  84.9424362  57.7209091  26.0576038  84.2719955
  56.8227730  24.8890285  84.6166229  25.8227654  49.6670036  81.2977753
  26.4851837  49.8755150  80.6390228  26.0907574  48.8166733  81.6461258
  60.1519356  14.0304070  17.5010071  60.6947594  14.6325779  16.9921207
  60.3169670  13.1717539  17.1115055  10.4451647  63.1739655   2.3801064
   9.7969322  63.8782043   2.3888016  10.8982964  63.2758522   1.5431341
  82.6765976  17.0852451  13.0310688  81.9031830  17.0759964  12.4671831
  82.9520798  18.0018463  13.0447636  76.3213577  33.6986160   8.8828535
  76.1051254  33.1463280   8.1315508  77.2707062  33.8102112   8.8327360
  31.2518253  50.8537560  67.4846573  31.1109867  49.9118195  67.3889999
  30.4175034  51.2477684  67.2299194  43.0374527  30.5350895  11.0571947
  43.5957756  30.8678226  11.7599020  43.3296280  31.0051498  10.2762270
   1.8996896  64.2028503  35.3036156   2.4679887  63.9834976  36.0419617
   1.5852963  65.0859222  35.4974518  27.2275314  71.0839844  29.0306034
  26.5302849  71.6284332  29.3961964  26.7785473  70.4953156  28.4238834
  42.3274460  37.2423325   5.0571718  42.2509918  38.1582451   5.3245578
  42.3789330  37.2751923   4.1019225  42.3911819   4.6494174  17.4777107
  41.8686829   4.3763862  16.7236023  41.7641792   5.0761714  18.0616474
  47.5865250   8.8356810  45.0380135  46.7440376   9.0691242  45.4278297
  48.1699486   8.7096004  45.7863121   5.4441233  38.2457504  62.1892090
   4.8364124  37.9103432  62.8483124   5.3663721  39.1975822  62.2540550
  30.6648102  28.7309361   8.1497612  31.4920273  29.0134335   8.5398121
  30.1645947  29.5392628   8.0374098  38.5985413  35.3020172  64.7919083
  39.2243233  35.3317070  64.0682068  37.9094009  34.7110062  64.4885559
  71.3152924  37.1291542  65.6808090  71.3026352  36.5309792  66.4279785
  71.5495605  37.9775238  66.0571365  28.1580200  56.4254761  81.3606949
  27.8518600  56.8949814  80.5847626  28.7804604  55.7823029  81.0213852
  12.6721497  61.1701546  10.3257179  11.7985706  61.3805885   9.9958525
  13.1610136  60.8945808   9.5502806  82.7560501  57.8797951  10.3775282
  83.3648834  58.1221237  11.0752563  82.8965683  58.5386238   9.6975069
  72.9760437  15.0662813  76.2300491  73.0251923  15.9142084  75.7886429
  73.8429642  14.6803493  76.1046066  84.3322906  31.1305065  57.0313759
  84.2599030  30.4303398  56.3827171  83.4330215  31.2810001  57.3227348
  14.8230724   4.5726700  76.7941895  15.7695379   4.4301314  76.8050308
  14.4510183   3.7006130  76.6625671  47.0912094  68.6484451  12.1564636
  46.5614624  69.0064240  11.4441061  47.9942245  68.8389969  11.9025211
  65.8460999  18.8443680  20.2022591  66.5329132  19.4296322  20.5216064
  65.1405716  19.4302387  19.9279938  21.9994888   3.2499104  34.4650917
  21.3009720   3.2159312  35.1186600  22.6190796   2.5746386  34.7414055
  44.6430893  68.0794830  51.5149765  44.1960831  67.3289871  51.9063416
  44.5079842  67.9743271  50.5732117  48.2887154  15.2301464  20.0860577
  49.0771027  15.7493486  20.2444954  47.6924515  15.8305368  19.6385822
  22.8237381  55.4246979  11.7912607  22.7286205  55.6886406  10.8761015
  22.8674393  56.2494507  12.2751036  70.2789764  68.7936020  59.1453781
  70.4338531  68.0173950  58.6070900  69.8728333  69.4219513  58.5483437
  62.5450859  52.5995598  30.8457012  62.3457298  53.2621040  30.1842461
  61.7781715  52.0268021  30.8497372   8.8948660  52.1143684  77.5998154
   8.2729950  51.5628471  78.0745087   8.3548374  52.6072044  76.9819870
  72.5238190  46.0014534  68.8155365  72.9294968  45.2788734  69.2946320
  72.3039169  46.6430931  69.4909439  52.6047020  11.2328119  35.2953110
  52.1219215  11.6731043  34.5958138  51.9903793  11.2038078  36.0287971
  39.4551659  29.7304726  72.5971451  39.5757561  28.8402462  72.2667084
  40.0499763  29.7911205  73.3446426  83.5978622  54.8292809  55.9668846
  83.0170593  55.5091133  55.6252251  84.0950394  54.5335388  55.2042694
  43.7590141  42.5667953  50.9664726  43.7480240  41.9670372  50.2205505
  42.8696632  42.9187698  51.0039215  66.0400848  66.2233810  54.6615448
  65.9588470  67.1226196  54.9793549  66.8847122  66.2037506  54.2115974
  46.3868675  70.7449417  36.5615807  46.3234901  70.6918869  37.5152054
  47.0595169  71.4071579  36.4027138  34.9136162  62.5405502  33.7676811
  34.1062050  63.0461731  33.8607712  35.2999840  62.8546143  32.9501762
  82.3069611   1.0133413  24.5623970  81.7501526   0.2386972  24.4841537
  83.0094910   0.8683373  23.9286327  28.0822945  65.0022049  29.7379227
  27.9223175  64.0585022  29.7456551  28.2645550  65.2217331  30.6516075
  65.6886520  33.8230362  57.5916061  65.3211441  33.3646393  56.8359299
  66.1467285  33.1426010  58.0849686  65.3530045  41.5210381  61.2585602
  66.2570419  41.6840134  60.9895172  65.4049530  41.3888626  62.2051659
  44.0617447  58.9800873  84.5552902  44.1293411  59.3192215  83.6627350
  43.1281929  58.8059998  84.6753006  12.5512276  31.8318005  87.3150406
  12.1253815  30.9916286  87.1447449  13.4871330  31.6454525  87.2402954
  70.4212646  34.7966270  25.7341824  69.7749863  35.2731323  26.2552299
  70.3234406  35.1497612  24.8498974   0.7181998  50.1568718  61.1983719
   1.1324210  51.0176201  61.2597351   0.9451470  49.7226830  62.0206909
  51.8199463  47.5709801  62.5049095  52.5063477  47.7934113  61.8759346
  52.2107353  46.8929710  63.0561104  62.6567879  14.1275043  48.1630859
  63.1838036  13.3309021  48.2256470  62.0515709  14.0729856  48.9026604
  35.6655006  53.1724167   2.1746621  35.1186218  53.8021698   1.7050104
  36.2568665  53.7127151   2.6986835  67.4947891  40.3306084  57.3657837
  67.8444595  40.9377899  56.7136421  67.1228790  40.8950882  58.0434875
  33.2205658  12.2514458  64.6882935  33.9351501  12.4710217  65.2861099
  33.6344452  11.7272701  64.0026016   7.6220732  31.5886631  87.4643097
   8.0530605  31.1998138  88.2254105   8.3023958  31.6153870  86.7914963
  82.9447250  19.5773659  10.7106075  83.3790894  19.6451874  11.5608778
  82.8560638  20.4831295  10.4140205  46.8853149   5.0152583   0.4534877
  47.0111923   4.5475521  -0.3721257  47.0378342   5.9343319   0.2337759
   1.8252381   3.1725204  36.2221642   2.4316213   2.7195773  35.6361847
   2.0176818   4.1014471  36.0945244  56.1079254  29.8206730  16.8384209
  56.2819862  29.3708324  16.0116329  56.6380539  30.6164455  16.7943497
  24.1569977  30.5654430   6.7168083  24.7118492  30.2891140   5.9874148
  23.8962917  29.7485905   7.1422677  81.6252213  68.5804214  68.1833038
  81.6138000  69.5372772  68.1601639  82.1471481  68.3286285  67.4214401
   6.3672166  52.0507965  41.2009659   5.5113721  52.4070663  40.9625702
   6.4100327  52.1467819  42.1523781  39.4052773  12.6705656  84.6274109
  38.8937416  11.8783064  84.4634399  39.7947693  12.8839540  83.7794724
  44.1599770  35.6748390  79.7928467  44.6249466  36.1187325  79.0836182
  43.7532005  34.9160576  79.3745041  34.3001785  53.3687744  75.7647705
  35.2241364  53.2625313  75.5383911  33.9187584  52.5016098  75.6277390
  77.1916199  69.0119171  32.6379433  78.0389252  68.6896362  32.9452477
  76.7994385  68.2634354  32.1882706  61.6785126  20.0008583  24.9563332
  61.8237648  20.6845570  25.6103134  62.0454445  20.3602142  24.1485863
   7.1322522  61.2762947  75.2554474   7.9352603  61.4441833  75.7486191
   7.3743482  61.4336243  74.3428268  66.4379959  20.0852127  27.7944317
  67.3122177  20.2495022  27.4409142  66.5578232  20.0954990  28.7440453
  69.4637451  31.7178459  24.3561916  69.7786636  32.3884926  24.9622383
  68.6453934  32.0734367  24.0096455  69.1917877  15.2667503   6.0451598
  69.0274963  15.9922085   6.6476140  68.3652115  14.7847290   6.0196400
  61.3871193  15.9646339  16.1500454  61.9101562  16.7605743  16.0544109
  60.9883156  15.8352737  15.2895508  28.7293720  64.8074951  23.4970093
  28.8161716  65.0173569  22.5671425  28.1023846  64.0846558  23.5218945
  52.5792770  20.1729279  18.2117157  51.6963120  20.4090023  17.9273338
  52.6354790  19.2294693  18.0601978  34.1366463  64.6665268  78.1080399
  34.0785713  63.7425346  77.8649445  33.9044533  64.6849747  79.0364685
  73.5380478  37.9241714  87.2531052  74.2974319  37.3537254  87.1341248
  73.2970123  38.1902809  86.3657913  44.1917992  16.3140144  84.0673599
  44.6421394  16.8666248  83.4285736  43.3959732  16.0287685  83.6184387
   9.0380421  67.8769760  60.2359009   9.0683403  68.6714096  59.7028046
   8.7375450  68.1757889  61.0941811  22.2406635   5.4247556  14.0235672
  21.6732597   5.8007464  13.3505774  22.4313068   6.1554713  14.6117353
  21.7063179  44.6944122  75.8213959  22.5752621  44.9397430  75.5036240
  21.4696045  43.9258652  75.3022232  78.9922409  20.6712723   8.8989115
  79.2388306  21.0294075   9.7516527  78.3514709  19.9896870   9.1016026
   8.2398386  54.6256485  42.9639435   7.6617274  55.3868790  43.0143661
   9.0146990  54.9436302  42.5005760  47.1454315  52.2742424  31.8213787
  47.1494942  51.5014725  32.3862228  47.9214287  52.1722183  31.2703342
  17.9644890  52.2126884  30.0913391  17.7158604  51.2958565  29.9737358
  17.1345711  52.6894493  30.0785084  66.0802231  50.4136963  47.8890915
  67.0219803  50.2506676  47.9414444  65.8716583  50.8758812  48.7009544
  47.1396103  33.7800522  12.4608812  46.6080017  34.5059738  12.1342869
  46.9490242  33.0562286  11.8642368  55.6579018  25.1723042  49.4380379
  55.2176132  25.9895477  49.6714668  55.0037117  24.4927979  49.6009521
  18.6825428  40.7658958  57.7511215  18.0891094  40.9934998  57.0353966
  18.6729908  39.8090439  57.7750816  76.2821274  55.9444885  60.9997139
  75.9166489  55.8720284  61.8814201  76.8838806  55.2035255  60.9282379
  86.0708237  59.1973801   0.1972774  86.0963745  59.6295509  -0.6564255
  86.6251221  59.7406921   0.7574562  84.4741516  49.2904739  33.4983292
  84.8377228  48.7879906  34.2274094  83.6489410  48.8512077  33.2926483
  54.5810509  58.1824875  79.3449631  54.4777107  58.2271805  78.3944092
  53.6866302  58.2108994  79.6847229  24.1033897  69.8153534  69.9712524
  23.4050732  70.0773926  70.5711899  24.8171082  70.4268112  70.1527939
  46.8209305  44.7672882  61.5156708  47.2056961  45.4640541  60.9839706
  46.0772667  45.1823502  61.9526176  10.6511698  13.3390265  64.4193497
  10.4007454  14.0866632  63.8766136  11.5948544  13.2511568  64.2852936
  77.3738556   0.8350935  52.5001068  76.8034286   0.4784010  53.1810036
  77.3527069   1.7815567  52.6414986  28.5436573  36.7885475  16.6775188
  29.1721954  37.3846779  17.0847111  28.6094589  35.9836235  17.1913280
  74.7312393  65.4053116  76.0411530  74.4115524  64.7359772  75.4361572
  74.7620621  66.2061691  75.5177841  34.9335747   2.5181222  20.2962646
  34.8325157   2.0811729  21.1418972  34.3096275   3.2434349  20.3253670
  19.1773987  13.9201965  88.5964279  19.1289692  14.7886181  88.9960938
  18.4379730  13.8944559  87.9891281  69.9782257  25.2335911  10.8825054
  69.8392792  26.0175095  11.4139185  69.7608261  24.5068512  11.4663010
  78.5910721  13.7957315  48.4100533  78.1400681  14.2870026  49.0966988
  78.5134888  12.8806458  48.6799240  58.9628639  44.8580322  61.4294662
  58.8773422  45.4054489  60.6489182  58.6922989  43.9862251  61.1414108
  66.1181335  36.7174149   8.2504406  65.2179337  36.9628525   8.4640541
  66.2866211  35.9390717   8.7815056  23.3171406  57.4956131  36.8292618
  22.6297817  58.1617317  36.8369980  23.2739525  57.0967789  37.6983414
  13.8091011  41.9953918  59.3422546  13.7570448  41.4577065  60.1324539
  14.0316563  42.8698120  59.6617737  26.0387440  60.6102905  60.1120834
  25.4817677  60.8617668  59.3753548  26.9308300  60.6765404  59.7714577
  23.4722729  64.0712585  68.9546814  23.0548611  64.9139709  69.1331406
  22.8856487  63.4253082  69.3481903  78.0647049  29.6435432  15.6805344
  78.7112198  30.2277107  16.0767727  77.3391190  30.2187366  15.4378319
  14.9486275   2.5926247  66.3707275  15.4345722   2.1971915  65.6470413
  15.4020176   2.2897618  67.1574631   0.2033821   5.8716378   3.5513673
   0.7878315   6.4296532   4.0644650  -0.5299275   6.4416547   3.3199170
  74.1982346  31.2443752  10.8829460  74.9453506  30.7988586  11.2824030
  74.0063477  31.9699078  11.4770956  10.6715059  47.2365761  30.1431770
  10.7931948  47.9238510  30.7982178  10.1967049  47.6655579  29.4312973
  40.8455162  71.0032120  66.3759232  40.9135971  71.7917633  66.9142380
  41.3122063  71.2226715  65.5695343  30.3367405  33.1457138  65.9609985
  30.3109703  32.3173370  65.4820786  29.8046780  33.7429810  65.4352570
  39.0887833  65.1025162   5.7189488  39.8858452  65.0764542   6.2483339
  39.0088120  66.0180664   5.4513559  51.7759132  49.8161812  48.4755096
  52.2962646  49.0692635  48.1795769  51.1216316  49.4352531  49.0612106
  60.1929626  14.7439871  34.7220039  60.8406410  14.8281641  34.0222511
  60.3422623  13.8700018  35.0826874   8.8495255  34.4733887  15.3209429
   9.3185072  34.2753906  16.1315498   8.0812788  33.9028320  15.3432283
  61.2405930  47.7005539  26.5313854  61.6643562  47.9021492  27.3656616
  60.5931091  48.3962479  26.4173565  77.5522995  24.9185104  44.5611687
  77.3198700  24.2233486  45.1767654  78.5071411  24.9685917  44.6058197
  66.1626892  19.7757187  45.7525787  66.3216095  20.5563946  46.2831650
  66.4824295  19.0513802  46.2904739  55.4556274  50.0974617  25.7892799
  54.8273392  50.7596664  26.0773315  55.6325645  50.3170242  24.8745575
  12.3613710  63.2296028  89.1884537  12.2319403  63.0874672  88.2507553
  12.9030752  64.0171661  89.2388000  36.6619682  16.1930637   2.7117000
  35.9914055  15.7740107   3.2511151  36.1727257  16.6102886   2.0026171
   5.5277376  31.9153690  30.2811394   5.6552877  32.2115784  29.3799076
   6.3603120  31.5075397  30.5193157  48.2846298   7.7296224   9.8279657
  48.6694984   7.5278773  10.6808472  48.6923447   7.1055250   9.2275467
  52.3698120  13.4498873  17.6315441  51.9860077  12.6271753  17.9349728
  53.3072128  13.3531189  17.7993183  82.8640213  46.3997002  30.0396900
  82.5610352  46.1003075  29.1824875  82.1147766  46.8674126  30.4086151
  79.5932007  71.0481110  58.3590775  79.6006851  71.8812256  58.8303528
  80.4403000  71.0168152  57.9144821  50.2511711  63.9136124  86.9605484
  50.2721596  62.9817810  87.1784515  50.6053696  63.9599571  86.0725021
  12.9139376  11.4451761  79.3021545  13.0851402  10.7855539  79.9743347
  13.6081066  11.3146133  78.6561584  85.7870026  26.5933228  57.3014984
  85.0664520  27.0640430  57.7203751  86.5283203  26.7127800  57.8951454
  75.8057632   5.0962081  23.7612743  75.3085938   4.3980365  23.3351173
  76.5955276   4.6638546  24.0862045  53.6763306   0.6819463   9.8773098
  54.4491692   0.7202524  10.4407682  53.6057472   1.5619613   9.5074129
   2.5158238  29.6564007  47.3215256   2.7679574  28.7396069  47.2113075
   3.3416018  30.1386337  47.2794075  18.7369328  22.3554688   4.1269526
  19.5126133  22.0984821   4.6254606  19.0722904  22.9382229   3.4456580
   8.5855942  63.0089264  27.1130314   8.3612051  63.5804024  26.3786621
   7.9873676  63.2717361  27.8125210  86.4806213  41.7495079  10.2962942
  87.4225388  41.9141769  10.3399668  86.2411575  41.9660072   9.3951750
  28.4082890  52.0333214  61.5984421  29.2015915  51.4999313  61.5494728
  27.7054348  51.4426613  61.3276062  52.9941635  40.3222580  48.2782631
  53.1059265  39.3717041  48.2919922  53.8814354  40.6691132  48.3713455
  68.2342453   8.9900312  78.0330963  67.2817307   8.8956194  78.0280380
  68.4812698   8.8769436  78.9509354  23.4793968  28.9121628  10.4936857
  22.7561932  29.4956322  10.2639627  23.8258018  28.6170464   9.6515799
  85.4243088  14.6689091  15.6023979  85.6806335  14.0173006  16.2550373
  84.4794998  14.7671776  15.7202988  79.9194031  28.6194954   4.8589711
  80.1186829  27.8645191   5.4126244  80.0001221  28.2884865   3.9644601
  84.5794601  12.5116272  38.0522881  85.0430222  11.8906269  38.6141624
  83.8090134  12.7654562  38.5604362  15.1803999  55.9745483  28.7896080
  15.6178961  56.1038246  29.6311035  14.4809256  56.6279144  28.7804489
  24.3717690  61.9801788  -0.2289272  25.1653976  62.1100159   0.2902331
  23.7880898  62.6877327   0.0447788  47.2540474   4.2009187  79.3021011
  47.7417412   4.4248061  78.5094757  47.1185913   5.0387864  79.7446671
  29.6827793  61.1251411  64.6610336  29.3399887  60.7808838  63.8362846
  29.2819824  61.9903793  64.7444382  62.2076797  50.9292870  73.2561111
  61.6306267  50.9821434  74.0179749  61.6128044  50.8594780  72.5094604
  17.1408806  16.2979565  84.9921417  16.6512966  16.2802162  84.1698151
  17.3229923  15.3776941  85.1823654   3.3390467  12.5091515  71.1451569
   3.5074422  13.3012896  70.6348724   4.0703626  12.4608889  71.7608490
   6.9075704  20.5050182  68.4257812   7.3139625  20.1890545  67.6187820
   7.6401792  20.8187046  68.9559860  74.5622635   4.1791649   2.5443516
  73.7900543   3.8731380   3.0200257  75.3027344   3.8224406   3.0349567
  61.3653908  64.1473465  17.8618298  60.4788361  64.1573944  18.2225876
  61.2529984  63.8518105  16.9583607  62.9051247  44.6329880  53.5025024
  63.3084488  43.7649117  53.5008125  62.3841553  44.6534729  54.3052483
  84.6979065  10.8474293  56.2792625  83.8143845  10.8879461  55.9132271
  84.6707687  10.1104984  56.8895302  43.2472267  50.5352478  65.2970886
  42.6056671  51.1457672  64.9339142  43.7983437  51.0756302  65.8632050
  50.9465637  55.5323524  62.2308044  50.6544418  55.6134682  61.3228836
  51.7578621  55.0272331  62.1771469  61.9657364  40.5826683  14.2341347
  61.0476761  40.3856354  14.0481930  62.4573860  40.0201302  13.6357508
  65.5446777  14.7838898  81.8798904  65.0744476  15.5362253  82.2391968
  66.0581436  15.1451702  81.1573486  61.3901367  29.0992737  29.6533985
  61.3899155  29.8829613  30.2030029  61.0654144  28.4047413  30.2264709
  10.0845661  52.2265091   6.4289994  10.4125214  51.8032532   5.6355696
   9.5256586  52.9347076   6.1091404  72.0334473  57.8371506  86.8428497
  72.2633286  57.7331619  87.7661972  72.5233154  57.1474953  86.3949203
  45.7006569  57.2966461  26.2456665  45.6513062  56.5802460  26.8785725
  44.7921715  57.5731888  26.1256199  59.9270821  39.8000641  17.0277290
  59.5069122  39.2223244  17.6648369  60.6187515  40.2394447  17.5224724
  23.9591789  70.5165558  12.5250454  23.1671486  70.9428864  12.1976852
  23.6775532  69.6305466  12.7528801   4.3961511  59.7476616  18.3525505
   4.4404297  60.4642143  18.9856529   4.6033173  58.9644661  18.8623695
  80.1691360  70.2299347  36.1184387  80.8771896  70.0240860  35.5081062
  80.6068497  70.6439590  36.8622284  13.2149696  47.7333031  62.5006905
  13.6680279  48.2807693  63.1419754  13.9147844  47.3748474  61.9547958
  20.5466614  13.1372337  19.1488228  21.2202110  12.6939268  19.6646137
  20.9959164  13.4037123  18.3467064  75.5497589  58.0556068   7.9687185
  75.1634369  58.1508751   7.0981379  76.4826660  57.9195290   7.8031893
  46.7830353  40.4296837  85.6754990  45.9389839  40.7119904  86.0277939
  47.1566811  41.2203674  85.2863464  56.6103516  55.5946617  66.9574661
  56.8935394  55.2419395  66.1138840  56.7756310  54.8870964  67.5805740
  19.3949699  34.9615555  84.4794083  18.5020981  35.2602043  84.3067245
  19.9194946  35.7622452  84.4797134  56.3754730  60.2443886  71.6775208
  55.7459297  59.9827271  71.0056229  55.8362694  60.5848122  72.3913803
  82.1026230   9.4034414   3.4283097  81.2181168   9.1784534   3.7168624
  82.5878525   9.5550337   4.2393627  28.4653702  42.1019249  14.5459538
  28.0252666  42.8782730  14.1997995  27.7617798  41.4663925  14.6774530
  14.2988367  67.6276855  59.0636139  15.1248856  67.7582932  58.5979767
  13.8780127  68.4873123  59.0505409  84.4651260  19.4263191  13.2242336
  84.6095963  20.1918869  13.7803478  84.8888016  18.7068672  13.6923332
   9.9557695  15.4130096  76.3776321   9.0334263  15.1604548  76.4192352
  10.4306736  14.6341639  76.6676331   2.4528561  20.8669205  17.6448154
   1.8475500  21.5217896  17.2969913   3.3197091  21.1823559  17.3892822
  46.6986809  56.8068962  53.6541557  45.9696007  57.2261696  53.1971169
  46.3913879  55.9176178  53.8301849  77.8842850  37.5223579  72.7514648
  78.6909637  37.9682617  73.0096741  77.7271729  36.8876343  73.4505157
  83.2576523  27.1907177   3.9205303  82.4245377  27.2369976   3.4514740
  83.2431870  26.3357162   4.3506379  14.2552376  47.7700424  36.4985847
  13.6805172  47.9964409  35.7673759  13.6579523  47.5429726  37.2112732
  53.7224083  11.3410587  59.2384872  53.1791458  12.1287813  59.2141914
  53.2625656  10.7513056  59.8359528  67.1709366  59.9226608  15.7710743
  67.2853241  59.1990967  15.1549530  67.0604324  59.4977646  16.6216526
  56.2759132   4.5880780  76.6933594  55.8797264   3.8628695  76.2103043
  56.9945221   4.8838811  76.1344910  86.2307205  13.9176750   5.6273012
  86.4803314  13.5816031   6.4881039  85.4546051  13.4110012   5.3882098
  62.3838310  54.7142029  57.8072548  63.3346672  54.6045761  57.8185043
  62.0687447  54.1446075  58.5090446  85.1148682  36.6327209  51.4466400
  85.6053314  36.9549828  50.6904449  84.6527786  35.8603096  51.1209373
  57.7099762  55.7617302  46.1991081  57.4321671  55.7028847  47.1132164
  56.8956985  55.8705368  45.7078400  32.3946114  53.5902786   3.4069862
  32.1088409  54.3547630   3.9071224  32.7035332  52.9723930   4.0695691
  75.0912857  40.2825890   5.4461055  74.3899536  39.9715118   6.0184669
  74.6483154  40.8380890   4.8046789  12.6357565  59.9264984  33.2639122
  12.3453341  59.6795464  32.3859024  12.9350319  60.8310127  33.1716232
  86.0721817  49.3213272  12.7005253  86.4000702  48.9034309  13.4968176
  86.2604752  50.2517509  12.8233681  47.8941536  63.5786095  10.6414404
  48.1249657  64.2135162  11.3195610  48.7357788  63.2721405  10.3038359
  36.7559319  52.5561523  75.0700989  36.4424171  52.2489319  74.2194748
  37.2325859  51.8098450  75.4334869  27.1562214  64.3546066  67.3727036
  26.7525082  65.1779175  67.6473236  27.1827126  63.8236313  68.1686859
  51.2560387  49.3646469  71.2713623  50.9137650  50.1353569  71.7242279
  50.4828796  48.9464912  70.8924103  64.7666321  67.4329758  66.7831268
  65.3056793  67.0386734  66.0974274  65.0709610  68.3389816  66.8357315
  13.1656694  68.9198990   4.7201924  13.7264967  68.6404343   5.4437981
  13.2856607  69.8685532   4.6767426  70.5942154  66.5608368  87.0040970
  70.4489136  67.5069351  86.9998550  71.5120697  66.4606094  87.2565460
   5.5778642  53.7956467  38.1820335   5.5268564  52.8419533  38.2460442
   6.4581532  53.9664841  37.8471642  32.3461151  64.8593292  54.7359428
  33.0032234  65.5457306  54.8512306  31.8064060  65.1644897  54.0066833
  51.0380936  36.0922966   0.2048998  51.7951126  36.3479385  -0.3221706
  51.2460632  36.3991547   1.0874065  14.2153730  48.6209984  73.0422745
  15.0471153  48.3241920  72.6730270  14.4537401  49.0209541  73.8786011
  17.0313568  30.6403046  74.7375717  16.0869541  30.5167904  74.6422806
  17.2332935  30.2847424  75.6030350  75.8193588   4.0244646  38.5789375
  75.8906631   4.9615450  38.3972054  76.4863281   3.6212823  38.0232124
   2.0092642  70.2183075  71.6730042   1.5345689  70.2191315  70.8418045
   2.1144793  69.2914734  71.8878098  61.2625656  14.6482477  83.7538986
  61.0228806  14.8402319  82.8472977  60.5758095  14.0575771  84.0632629
  56.6537437  31.6434574  40.1843491  56.1844902  31.9051437  39.3921661
  57.4857597  32.1142921  40.1364365  56.9452591  54.0612946  38.0824928
  57.6258812  54.2162781  37.4275398  56.7186546  54.9341011  38.4035759
  45.4245262  38.2025261  62.9074554  44.7737350  37.6373558  63.3237305
  46.1958313  38.1345177  63.4702110  27.0926456   9.1541786  70.5313416
  27.9188290   9.6291065  70.6213074  27.0294819   8.6300659  71.3298035
  71.2521057  57.0378685   6.6211905  71.2011948  57.9060211   7.0211344
  70.3557968  56.8493271   6.3431287  49.3834496   0.7546849  84.4180984
  50.2728348   0.4727693  84.6319809  49.4070129   0.9283086  83.4770660
   1.4176941  44.7568626  42.1112747   1.4451581  44.2339401  41.3100090
   1.7893860  44.1853104  42.7831421   9.9350424  62.9211502  56.9015694
   9.6814604  63.7306900  56.4582062   9.8917131  63.1348305  57.8336067
  43.1132851  70.9540176  56.9909935  43.5811691  71.0212555  57.8233376
  43.7725372  71.1601410  56.3283234  30.0628014  32.8276367  84.6795578
  30.6716747  32.0900116  84.7171249  29.4674149  32.6104546  83.9622116
  35.5887566  17.7752934   6.1656356  34.7653847  17.4370117   6.5175672
  35.3517990  18.6106167   5.7627449  25.6325836  16.7624187  43.2985458
  25.3268700  15.8578043  43.3652115  25.8646183  16.8694553  42.3760834
  46.8799248  39.8933830  52.2036438  47.3059578  40.6867142  52.5282326
  47.0946465  39.8706322  51.2711143  62.6513100  70.4483032  59.8464088
  62.2425003  70.9449844  59.1375923  62.8851776  69.6101379  59.4476471
   6.6004848  70.2880020  66.0185089   6.4678502  71.1146469  65.5545044
   7.5357370  70.1075516  65.9237823  71.9958572  20.2467403  13.0813980
  71.2254181  20.1502228  13.6411610  72.5008316  20.9508018  13.4882565
  54.9853172  53.8857117  77.0065918  55.6024055  53.1856155  77.2194214
  55.4175453  54.6853523  77.3065720  59.8753052   7.2133231  40.9415474
  59.4715996   8.0041323  41.2991447  60.7992821   7.2870917  41.1804161
  70.0248947  30.2292118  59.4911003  70.2178192  31.0065441  58.9669151
  69.9153290  30.5621204  60.3818283  74.2348557  29.5335712  35.7530060
  74.5401993  29.6094742  34.8489952  74.8696671  30.0364685  36.2632484
  24.7272511  29.3726368  73.9983597  25.6316166  29.6846123  74.0303955
  24.7828197  28.5212440  73.5644531  53.1872063   9.0213957  77.7485580
  53.3242607   8.9336042  76.8052902  52.8714180   8.1613588  78.0257645
  10.0119553  23.7454796   2.4506137  10.4159107  24.4969025   2.0165439
   9.3294716  23.4571667   1.8445419  43.0694389  61.4563026  51.1610680
  43.3795624  62.1839600  51.7001190  42.9373245  61.8398209  50.2940674
  77.3052750  48.9031868   4.9168429  76.6208801  48.9738655   4.2513847
  77.3081512  49.7572174   5.3491087  24.4397869   8.9201860  22.5362930
  25.2214050   8.6944771  23.0406361  23.8747253   8.1514263  22.6133957
  48.3387985   7.1290073  84.4183960  48.1106529   7.0598860  85.3454361
  49.2137718   6.7456222  84.3578415  85.2085190  70.5599365  51.0979767
  84.4594879  70.7818222  51.6511002  85.4004288  71.3666153  50.6197777
   2.1649718  67.9366608   6.0264215   2.0762160  67.9839249   6.9783249
   1.3080714  67.6394653   5.7204361  30.5746841   9.5698624  16.3046284
  29.6714592   9.2974720  16.1427059  30.7990360   9.1685238  17.1441669
  42.3126640  53.0012131  73.2360764  42.0850372  53.7704124  73.7583313
  42.7607536  53.3568306  72.4686203  59.7741890  23.0502472  30.3353825
  59.5830421  23.8419094  30.8383389  58.9473305  22.5681572  30.3241310
  54.9645576  21.3528728  17.0758228  55.2804680  20.6715698  16.4823093
  54.0925941  21.0571365  17.3374557  72.1818542  44.7232361  54.4684105
  73.0457382  45.0399246  54.2045059  71.6383286  45.5104065  54.5025177
   1.1507766  50.0673103  31.0612526   1.3005919  50.9000244  31.5088825
   0.4767031  50.2630997  30.4104652  41.2985229  53.1091423  82.7837982
  40.6830215  52.7614479  82.1384277  41.7476082  53.8206635  82.3274002
  34.2822189  48.5793686  14.4778023  34.2299843  48.4197235  13.5354557
  35.0557175  48.0916939  14.7608337  10.9152946  39.6831474  33.2312965
  10.9792700  40.5617867  32.8569527  11.6840506  39.6070518  33.7965012
  15.7257910   7.1339283  85.0247803  16.2741337   7.9135857  84.9371109
  15.8332624   6.6708665  84.1939697  70.3348389  25.4400539   2.4345489
  70.0133591  26.3413486   2.4581070  70.3661575  25.2211990   1.5032308
  47.2901154  45.4046593  58.0132256  46.5945930  45.0455284  57.4623108
  47.8229866  44.6459503  58.2512169   5.7207713  11.0101204  28.5746956
   5.7788320  10.7868824  29.5036888   5.5582743  10.1743832  28.1372395
  19.9870434  19.9175434  78.4418793  20.8875179  19.9856396  78.7592773
  19.9183559  19.0237732  78.1061859   1.8393153  62.6048889   7.5217094
   2.0475209  63.5337067   7.4208121   2.5285790  62.1508904   7.0369101
  35.3668442  58.2433128  10.1580534  35.1827736  59.1366692   9.8677721
  35.7885590  58.3506050  11.0106249  80.4881592   7.6134133  84.5565948
  80.8870773   7.7642961  83.6996689  81.0870285   7.0101848  84.9967117
  39.3682098   2.4168615  35.0028610  38.8056679   2.9172647  34.4117813
  39.6562691   1.6672496  34.4819641  41.0339012  20.3323135   9.3492279
  41.0218086  20.8250198  10.1697922  40.2028465  20.5498028   8.9269953
  74.4911575  39.1918526  37.8480949  73.5370636  39.2681274  37.8371468
  74.7225266  38.9514275  36.9509354  44.7932434  32.0801926  82.3327255
  45.2858734  31.9922085  83.1486969  45.2096901  31.4606953  81.7335358
  50.2305260  32.5015068   3.1870663  51.0384941  32.3176804   3.6662619
  49.7681122  31.6636524   3.1668980  68.8728561  56.4239159   8.4648838
  68.6447525  57.3144226   8.7317162  69.4479599  56.1053238   9.1605740
   2.1817269  27.2265549  24.0312500   1.2493173  27.1287251  23.8381882
   2.3745081  26.5188866  24.6462898   6.4687200  32.6533813  80.3470230
   6.5813794  33.5337181  79.9884796   7.2703176  32.1908417  80.1026306
  13.2366819  46.2322769  11.6185942  13.5640697  47.0890427  11.3447294
  12.2843599  46.3287926  11.6192274  58.7372437   4.2140622   9.2654953
  59.4030266   4.2031074   9.9531317  58.6973877   5.1284490   8.9852467
  46.2438202  28.3673477  74.0942688  46.4408150  27.4830761  74.4032822
  46.5926170  28.3929482  73.2032471  27.8929577  48.3722534  60.6998177
  28.3189163  48.1285744  61.5216522  27.0849533  48.8090744  60.9691696
  27.2679672  35.3806801  83.4576874  28.0513763  35.4716949  82.9152679
  27.2750912  36.1548729  84.0205460  30.5073681  65.1066437  48.6759071
  31.3041668  64.6254196  48.4528313  29.8562317  64.4260101  48.8461533
  66.7493057  22.6263618  82.4529648  67.3388901  23.1606846  81.9208755
  67.2098007  22.5178127  83.2850723  30.4148006  27.4682465  72.6888351
  29.7019043  26.8827076  72.9440918  29.9794693  28.1969318  72.2464142
  63.1329651   9.4755526  34.2518196  62.4874115   8.7797909  34.1276779
  63.9709587   9.0658827  34.0369415   2.0152841  25.9116859   5.9734526
   1.1950870  25.4307327   6.0838728   2.6754053  25.3585224   6.3911648
  25.9959774  58.5907211  23.3457069  26.7733402  59.1180153  23.5298290
  25.2607727  59.1648827  23.5602818  13.5158787   2.0769718  38.3880424
  13.1669540   1.2085230  38.1873436  13.3689785   2.1827617  39.3279686
  32.4200249  45.5737495   3.0606351  31.5323677  45.3531609   3.3428404
  32.6636391  46.3248749   3.6016493  69.1092834  14.0172195   1.9415222
  68.8154602  14.9207048   2.0582016  68.9881287  13.6131067   2.8007345
  46.3270988  23.7764301  72.1013107  45.8298836  24.0490952  72.8724594
  47.1552544  24.2514763  72.1700211  70.4473877  64.2673721  88.5017395
  70.8051987  65.1459274  88.3738556  70.9086151  63.9303818  89.2698135
   0.7939478  37.5224915  21.9404564   0.8991695  36.7485504  21.3871231
   1.4393865  37.4077950  22.6379414  68.4975662  48.9498863  35.0515213
  68.3387299  48.0340614  35.2801476  69.3592834  49.1429634  35.4208450
  67.5440140  35.8328781  57.6743164  66.7617340  35.3152237  57.4837685
  67.2058868  36.6642494  58.0070648  85.4262848  23.5255070  64.2531052
  86.0749664  23.9781055  63.7140274  85.8580933  22.7125053  64.5154037
  81.9284668   3.9923646  84.4661636  82.0295029   4.8906870  84.7808685
  82.6066360   3.4991682  84.9277649  31.7948570  32.4360580   2.4066608
  31.6998882  31.4898529   2.5157824  31.5482864  32.5980873   1.4960667
  34.5580139  70.9325333  76.1495972  34.9347191  70.0867691  75.9066849
  33.7086792  70.7149887  76.5336990  18.1807976  40.2621384  76.8040009
  18.9126377  40.4417152  77.3942490  17.4084435  40.5661812  77.2807159
  83.0392303  12.8624268  15.0517702  82.8298569  13.7698946  15.2728939
  83.5012512  12.9201775  14.2154474  75.1414948  38.3961372   8.2528048
  74.4312592  38.6865311   7.6805506  75.3693771  39.1723289   8.7644882
  17.6456757  67.7243805  84.4403000  18.2167339  67.8937073  85.1896057
  17.4739990  66.7834473  84.4778137  61.7648926  11.4565382   6.5885158
  61.3604393  10.7042589   6.1563983  62.6264191  11.5335941   6.1785512
   3.1229956  17.8926640  18.1092987   2.8269622  18.0452900  19.0066853
   3.3920028  18.7561035  17.7957115  52.0758057  57.0050316  77.3030167
  51.1441841  57.2155647  77.2398605  52.0985603  56.0580597  77.4407043
  84.7447739  64.1937332  23.8482018  85.1621704  63.4498138  23.4139271
  85.4670334  64.7874908  24.0531902  86.6895981  70.9177017  42.3785553
  86.3822479  70.4096909  41.6277580  87.0755234  71.7045059  41.9935570
  73.5878677  46.8676605  39.9957314  73.8850327  46.0974045  39.5113373
  72.6898804  47.0077591  39.6953659  75.4462280  68.7904358   2.1026919
  74.7480698  68.2971191   2.5333369  75.6744308  68.2636032   1.3367901
  59.0728683  58.9215775  61.0863495  59.1879845  59.3766861  60.2521706
  59.4055138  59.5348625  61.7416801  60.3153191  64.9995117  14.5685368
  60.9236298  65.7377396  14.6032801  60.8769569  64.2308578  14.4686918
  52.4825592  45.5530701  23.9237804  51.6245995  45.1286507  23.9262390
  52.4202805  46.2230835  24.6045418  29.5155907   4.2837787   6.2661638
  29.3496857   4.7716460   7.0728192  28.6619911   4.2352114   5.8357673
  17.1481609  22.5937405  64.4525604  17.2961597  22.0275707  63.6950760
  16.9087830  23.4404087  64.0756149  49.3524513  35.4964104  59.5767479
  48.7324677  34.7906761  59.3929329  50.1581078  35.0470009  59.8320503
  40.7569466   7.1889639   6.4620671  40.2099075   7.5539050   7.1576238
  40.2950211   7.4097886   5.6533065  84.7422714  33.2927094  37.4974632
  84.6430893  32.8110008  38.3186531  85.6249847  33.0756493  37.1975632
  81.7102966   4.3926549  70.9740982  81.3317947   4.7737880  71.7663727
  82.2522964   5.0913129  70.6075668  34.2495422   4.2776275  11.2024546
  33.5502014   3.9684525  11.7782717  33.8015442   4.5272751  10.3942442
  15.0939579  53.2452049  28.2670288  15.3233175  54.1743164  28.2475777
  14.5167418  53.1568184  29.0254765   3.7481170  53.9523163   1.7042418
   3.7364974  54.1402893   2.6427319   2.9557536  54.3698502   1.3665169
   3.9649920   9.2278814  89.1190414   3.9348328   8.3531408  88.7315445
   3.2977135   9.7233343  88.6441727  70.2743759  18.8583488  59.9886742
  70.5169296  19.7837563  60.0206528  69.8691940  18.7465267  59.1287003
  83.2887039  26.0367851  11.7407665  83.6747894  26.4098015  12.5332527
  82.3914032  25.8175545  11.9918051  55.8822784  24.6743126  18.6651134
  55.0534248  24.3468933  19.0144424  56.2906799  25.1275673  19.4026756
  22.6079903  57.6244431  61.7150345  23.0693798  57.3993111  62.5229111
  21.9727192  58.2898216  61.9794884  77.8769073  67.7096024  25.5618515
  78.7137375  67.3980103  25.2170773  77.4264450  68.0770340  24.8013897
   6.2851596  22.7190762  64.6959610   5.5597682  22.3050346  64.2284088
   6.1624064  23.6565456  64.5465775  55.1068306  23.0476303  77.4247513
  55.2353096  23.3434372  76.5235138  55.1412277  23.8490200  77.9470749
   8.4842033  23.9690933   4.6530118   8.6312218  23.2266407   5.2390003
   9.1636982  23.8845310   3.9841559  78.0955887  57.0184441  83.4244385
  77.8231125  56.4018250  84.1039734  77.7415161  57.8608322  83.7094727
  59.2794075  -0.1628388  71.4051743  58.4955177  -0.2369434  70.8608780
  59.7502632   0.5891143  71.0458755   1.8334960  33.9207115  36.7026138
   1.8347027  33.6105347  37.6081657   1.7155323  33.1286240  36.1782913
  75.8603363  38.3645287  24.6545467  75.6644974  38.2418251  25.5834293
  75.1305313  38.8876686  24.3229713  80.7040024  25.3803368  12.0960512
  80.0612335  25.8974648  11.6105995  80.2464828  25.1182957  12.8949537
   1.0473151   9.3851414  49.5568390   1.3591447   9.9876223  50.2321243
   0.1381043   9.2062654  49.7967796  13.6745291  49.4765816  47.7614594
  13.5627136  50.3108749  47.3057327  13.3988476  49.6558723  48.6603966
  27.1350384  63.1710815  48.7549210  26.5141907  63.0231628  48.0415497
  26.6697731  63.7467422  49.3618546   3.8511965  65.6746063  70.7783508
   3.1136413  65.0734558  70.8825455   3.9320276  65.7927704  69.8319244
  81.0063629  33.3729362  67.8175812  80.9018097  33.3897438  66.8662567
  80.1117706  33.3961296  68.1573029  32.9480133  10.1030588   4.1840878
  32.0046997  10.0593615   4.3405447  33.3399925   9.7543592   4.9847074
  74.7400513   5.6952348   9.1966085  75.6351852   6.0203562   9.1003199
  74.6500168   5.5151067  10.1323862  44.5458755  70.0227814  64.7541809
  44.4758301  69.9150391  65.7027130  43.6688728  70.2888489  64.4779434
  65.9288635  68.3995514  13.8674965  65.2033157  67.9467392  14.2973499
  66.7089844  67.9193420  14.1450596  37.3328094   5.6978464   0.3014390
  37.4832611   4.8901439  -0.1896945  38.0601273   6.2683249   0.0528533
  24.8495159  63.4032402  65.2867661  24.5438251  62.5283127  65.5261154
  25.0978470  63.8061180  66.1187897  71.4249573  30.4225368  69.3355560
  71.6571579  31.3453941  69.2323761  72.2129974  30.0161514  69.6962128
  54.8491783  43.0215950  24.1605110  55.2089005  42.3243828  23.6121254
  55.1858139  43.8292847  23.7725067  14.1572437  58.0510979  25.4037132
  13.7326717  58.5629272  26.0921917  13.4356613  57.6178322  24.9478302
  84.0740128  55.3806686  41.4762344  84.6109924  55.9490852  42.0283089
  83.2041931  55.4121933  41.8745461   6.5852747  41.4442940  74.0905609
   6.9378471  40.7709579  73.5087204   7.2857051  42.0931931  74.1580811
  84.3611069  62.8459969  59.2367401  83.8615570  62.8343735  60.0531616
  84.1295547  63.6790657  58.8261108  76.5518570  25.5084267  42.2231445
  76.5665665  24.8312931  41.5467491  77.0436630  25.1297874  42.9518356
   3.5108573  49.1777077  71.8101654   2.9634719  49.6503143  71.1830750
   3.4936433  49.7194901  72.5990982  20.6476994  58.9626961  52.8300705
  21.5549698  59.2280502  52.9806671  20.5776424  58.1028595  53.2448120
   9.1447983  26.1142006  63.6193619   8.8140125  26.4927101  64.4339447
   9.7275352  25.4094048  63.9020500  69.3840485  59.7510643  75.6385880
  69.3558578  60.3420677  74.8861542  68.8408051  59.0068893  75.3791122
  39.7330513  48.2221146  69.5585632  39.3394394  49.0856400  69.4335709
  39.5937653  47.7724915  68.7250900  24.6441307  14.2683392   1.2629712
  25.1253834  14.4294109   2.0745647  23.8769875  14.8377180   1.3223822
  61.5345993  62.4812622  15.4818707  61.8810501  61.9754753  14.7467632
  61.7072258  61.9366112  16.2498455  71.7615967  35.9115601  45.3159370
  72.6811676  35.9656868  45.0557747  71.7394180  35.2170563  45.9742737
  33.7599907  68.9083405  42.1207962  33.8703918  68.0490112  41.7138557
  32.9078140  69.2132034  41.8092041  77.1813736  62.4522781  60.3326187
  76.3980408  62.1689835  59.8610649  76.8939819  63.2111702  60.8402824
  58.5281181  68.6570358  74.6991959  57.8220978  68.1480789  75.0975952
  58.3894234  68.5622406  73.7568512  85.9761353  60.2516632  40.8735733
  86.9170303  60.2885208  41.0456123  85.8015976  59.3279114  40.6934471
  40.1245384   2.0439525  31.7000008  39.7486382   1.3678814  32.2637901
  39.7028503   2.8547904  31.9845238  54.0851440  20.0146885  20.5550480
  53.7294273  20.6806278  21.1434555  53.6696472  20.1937885  19.7115345
  37.3558960  47.3827629  81.7089844  36.8684235  48.1442413  81.3947449
  38.1382790  47.7516899  82.1188660  56.5548058  65.3183975  16.7153530
  56.9283600  65.0180740  15.8868017  56.8144760  66.2377090  16.7759075
  61.1807671   2.9742177  73.1861954  61.0929680   2.4688458  72.3780365
  62.0789757   2.8113296  73.4741516  47.6510429   2.5008843  29.8895702
  47.2872391   3.3436623  29.6182709  47.2743912   2.3450625  30.7556438
  77.6241531  32.8248863  86.5811768  77.7018204  32.0067406  86.0904236
  76.8666611  33.2647247  86.1951981  66.4388885  23.1136131  70.0034256
  65.5760040  22.9946213  69.6065598  66.8585510  23.7861862  69.4669876
  27.5366859  48.4100723  46.9267349  26.6940250  48.2420654  47.3485489
  28.0092010  48.9642563  47.5478973  16.1525860  58.2211571  46.6560326
  16.6522408  57.5116196  47.0599289  16.3811035  58.9967880  47.1682854
  43.5023308  63.3995819  15.4920330  44.2271500  62.8348732  15.2237549
  42.7572212  63.0953522  14.9738779  76.1174316  70.3658218  43.8224144
  76.8313904  70.8215332  43.3765182  75.3432693  70.5578232  43.2932281
  55.1213417  57.6085281  20.6801624  56.0027351  57.9767075  20.7419567
  54.7441254  58.0194283  19.9022789  57.8391151  42.4728966  30.7500534
  58.1685638  41.9795914  31.5012817  57.5157051  43.2922058  31.1247120
  68.2180176  17.1908703  75.3779755  68.0997009  16.3947716  74.8598480
  68.5421906  17.8382092  74.7517929  80.5556335  34.1333008  26.9382191
  79.9515915  33.6058884  26.4155369  80.2073593  35.0230865  26.8814964
   7.1018314   8.6783924  12.2707281   7.1892557   7.7850766  11.9382010
   7.5682540   8.6695518  13.1065540  21.8160839  62.2753105  70.0450668
  21.5580082  61.7657661  69.2769547  22.0931988  61.6198578  70.6852417
  73.7068863  43.4016533  66.1883926  73.6227341  42.6902313  66.8232346
  74.6472321  43.4626503  66.0202637  51.0076141  39.0581322  34.0793228
  51.4095039  38.1961403  33.9712448  51.0139809  39.2085495  35.0246086
  64.3145752   6.5216837  80.2169037  64.6557465   6.8398814  81.0527115
  63.3703041   6.4488673  80.3557739  68.5600281  67.4283524  41.6205902
  68.8986816  68.2821655  41.8899384  67.6557007  67.4196014  41.9342079
  10.9512558  67.0963669  25.6108685  11.4198713  66.8543777  24.8120747
  10.6766481  66.2613373  25.9897442  33.9460258   0.8019595  32.6719017
  33.7045250   1.2525306  33.4811592  33.1098976   0.5931432  32.2553482
  67.7605896  35.2193298  33.6589088  67.2990952  36.0276794  33.8821259
  67.4042282  34.5660248  34.2609329  61.6677780   8.2430439  20.7705803
  62.4022751   8.4327641  21.3543224  60.9555664   7.9877810  21.3569450
  51.3226242  59.9461632  68.8132858  51.9598351  59.5571747  69.4123535
  50.8565292  59.1978416  68.4404602  37.5357590   6.0012507  18.9084301
  37.7922745   5.0877500  19.0347214  36.5909538   6.0081201  19.0618114
  77.7144699  15.1907949  56.5401192  78.1288223  14.5619898  57.1310081
  76.8420258  14.8307114  56.3807297  30.2535877  43.1107330  67.1671219
  30.9256725  42.5004654  67.4706116  29.9125462  42.7125435  66.3662643
  46.0104446  18.1288185  65.8436356  46.4892273  18.1379623  65.0148315
  46.2490082  18.9534073  66.2671585  34.0488472  10.2274942   9.1890697
  33.7553444  10.4992676  10.0586824  33.2512283  10.2153397   8.6600285
   5.9609756  61.7646217  11.1081924   6.8326979  61.5464516  10.7784443
   6.0709424  62.6165619  11.5304909  16.6512375  48.7266960  68.5956650
  17.0148544  47.8423729  68.5511322  17.3723602  49.2959824  68.3270950
  71.5716553  66.4202576  57.4884796  72.1877213  65.9674606  58.0643883
  71.2552948  65.7400208  56.8939857  84.8688889   5.3635068  54.2723389
  84.6714020   5.9030557  53.5067558  85.7826538   5.1043882  54.1534653
  58.9547005  21.9727688  74.0913315  59.3467598  21.4165306  74.7644730
  58.7018356  21.3653564  73.3961029  75.6132965  25.4186859  81.7551041
  75.7160568  24.7505322  82.4327774  74.6981659  25.3460865  81.4839859
  81.0018921  49.4341583  72.0943756  81.6826782  49.5676003  72.7538834
  81.1922150  50.0848389  71.4186325  67.6583481  39.6678886  22.6679440
  66.7550659  39.9463806  22.8187695  68.1153793  39.8873138  23.4798641
  64.0109406  31.3056564  20.0285015  64.8440399  31.6630878  20.3357697
  63.5629311  32.0515022  19.6294575   0.4153905  35.2456131  43.7948227
   0.0319713  35.8961487  44.3830605   0.0160750  35.4271469  42.9440422
  48.8658638  64.6032791  49.5695419  48.2613449  64.9529572  50.2241516
  48.9171867  65.2869110  48.9015274  28.7370491  30.2562332  10.3007259
  28.5966740  29.3104477  10.2558031  28.9324398  30.5124474   9.3993883
  26.4673042  71.3247833  23.9815998  27.3599415  71.0339050  24.1682014
  25.9428043  70.5247726  24.0149441  59.3018417  17.7581406   4.1553178
  59.3477859  18.7123814   4.0957727  58.4080811  17.5791512   4.4475327
  66.8966217  19.7129250  72.2533798  66.6713028  19.3653069  71.3904648
  66.5135117  20.5900230  72.2657700  50.4873695  43.7843819  41.3806343
  50.5122528  44.5997429  40.8798332  50.9596062  43.9851036  42.1886787
   0.7578397  64.8667908  14.4022827   0.4628481  65.7472153  14.1697521
   1.3401475  64.9990845  15.1503792  22.8842201  53.7745094  34.8092117
  23.3169098  54.5777664  34.5197487  23.2931042  53.0818443  34.2903061
  54.9832993  52.9335747  36.5928154  54.7126312  53.7789803  36.2346840
  55.7105064  53.1434441  37.1787834  37.4058800  27.2968178  69.0979156
  36.5688095  27.5923271  68.7398300  38.0595932  27.6239071  68.4799271
  44.2642708  31.2128105  13.3759804  44.0561104  32.0714226  13.7443419
  45.0872879  30.9646778  13.7970562  11.1720734  10.1037741  86.4370499
  11.5129766   9.5802851  85.7118073  11.9349384  10.2723131  86.9900970
   6.4013591   4.5641546  51.2051697   5.9347773   5.2904396  51.6187439
   5.8355465   3.8049829  51.3456917  85.3799896  33.7536278  74.9146652
  85.2470932  34.0034180  75.8290939  86.1744919  33.2198792  74.9252243
  40.6902428   4.6305771  29.4821014  41.1135139   4.8645315  30.3081398
  39.8400650   4.2749848  29.7409115  27.6527023  38.4690895  81.3597565
  26.9934597  38.6568832  82.0278625  27.1464405  38.2088089  80.5902176
  25.8061657  70.3207474  56.1177750  26.2679977  71.1347809  55.9170341
  26.3229218  69.9180298  56.8156395  32.7713928  64.3384857  80.8054886
  32.2916183  64.3728409  81.6330566  33.4272614  65.0316925  80.8799133
  23.4480305  36.5491791  17.3107109  22.6472168  36.0282097  17.2513905
  24.0340557  36.1625137  16.6601028   1.3642040  60.6807518  60.7039642
   0.6990260  60.9301720  61.3454933   1.4073073  61.4239922  60.1023254
  65.0296097  60.8865509  76.4843063  65.6073990  60.1568565  76.2608261
  64.2648010  60.7676277  75.9211426  53.2810745  37.6084785   4.3093314
  53.9909172  37.0749016   3.9520540  53.6956215  38.4429970   4.5283337
  37.2536507  47.6958466  35.4201050  36.9021034  48.3346596  34.7999763
  36.4864197  47.2128601  35.7272034  48.8926315  11.6715574  83.9790268
  48.1587601  11.1636276  84.3249664  48.9859161  12.4034567  84.5888290
  16.6206017  31.3089905   4.1241093  16.6926899  31.3912849   3.1731818
  15.7442579  31.6361866   4.3270812  59.8139153  62.0113182  69.3888397
  60.3564949  62.7121010  69.0272598  59.6536674  61.4262161  68.6484299
   1.9804761  11.1592417   5.7858829   2.2726226  11.6389780   6.5609536
   2.7195258  10.5938377   5.5614824  21.9248333  45.9597740  52.2362595
  21.3109703  45.3807640  52.6880913  22.2950363  45.4188843  51.5386810
   5.5747652  50.5501022   4.8576422   6.3688049  50.9670868   5.1920919
   5.7412424  49.6117249   4.9468603  61.8748055  10.5084925  58.4359093
  61.9260521  10.2862015  57.5062904  60.9368782  10.5760355  58.6146736
  84.0063629   8.8711548  85.1054688  84.8438873   9.2992401  84.9279099
  83.7506409   8.4879122  84.2664413  17.4509583  13.4271774  23.1582680
  18.2952232  13.5865936  22.7363300  17.6156254  13.5797873  24.0887661
  32.5590324  11.6243086  11.1547642  32.3486290  10.6966782  11.2618332
  31.7270699  12.0763655  11.2951641  77.7204285  30.0665493  22.6588840
  76.9130783  30.4602432  22.9896889  77.4379349  29.5228291  21.9234943
  61.1768303  20.3945484  38.6495819  62.0137901  19.9499798  38.7840958
  60.5255089  19.6938629  38.6820374  11.2844191  34.0932999  69.3534698
  11.9558096  34.1270218  70.0348892  11.7559814  33.8222733  68.5658112
  67.8302460  66.4036102  48.7587776  68.4809647  66.8919220  49.2631073
  68.3379211  65.9580002  48.0806046  36.8343811  44.6203423  88.8742371
  37.5534286  45.1465988  88.5245819  37.1311569  43.7153931  88.7781982
  77.9738388  50.6400833  48.6256676  77.3237839  50.0901489  48.1883659
  77.5126572  50.9994469  49.3835602   9.4565907  37.1329041   4.2615209
   9.1870089  36.2147331   4.2843189   9.4402514  37.4101372   5.1775479
  47.4334946  10.2115135  73.6545029  48.3777084  10.0639677  73.6004257
  47.1915283   9.8976002  74.5257874  74.7204208   1.9106889   5.6999378
  75.3598785   1.8978038   4.9877882  74.5741882   2.8405504   5.8737354
   3.4102855  38.1437378  64.1239471   3.4098804  38.8451042  63.4725533
   2.6061008  37.6546631  63.9498100  64.1867828  17.7988892  56.9079933
  64.3036194  18.7464256  56.8390465  63.7624550  17.5495205  56.0870209
  63.1350174  70.7973175  46.7830887  62.4370041  70.1479568  46.6974220
  62.7676163  71.5954132  46.4032249  47.6197319  16.3224220  27.0300064
  47.8647575  16.7854137  26.2288628  46.6665840  16.2486820  26.9820404
  70.1124573  51.6988106  29.3084583  70.7368469  51.0397377  29.6117535
  70.6074142  52.2275810  28.6826363  68.6346970  59.1177635  81.8326035
  69.4073486  59.3176231  82.3610916  67.9575577  58.8971939  82.4721832
  68.9170074  59.2341156  65.4511490  68.9282761  59.3522911  64.5013428
  69.8408737  59.2016182  65.6994476  78.7742233  21.1563072  81.1495590
  78.0840988  20.8552856  81.7406082  78.5400925  22.0627098  80.9499283
  65.4285278  24.2825966  58.4595451  66.1850281  23.8836651  58.8894196
  64.7688522  24.3501720  59.1498375  81.2457657  55.7238083  10.3857803
  81.7279968  56.5264740  10.1872673  81.0199509  55.8030663  11.3125811
  23.5332851  35.7277184  65.6847763  23.6467228  35.2085648  66.4809189
  22.9930573  35.1791306  65.1160583  62.8981285  13.2266989  86.9314575
  62.6440315  13.7100115  86.1452789  62.8134117  12.3058357  86.6843414
  14.3071833  19.9617939  78.8089600  14.1038952  19.1169395  78.4075546
  13.6563492  20.5623569  78.4456863  59.4825554  25.4301376  36.8285828
  60.1457176  25.8120861  37.4035301  59.9191856  25.3480511  35.9807358
  48.1781387  58.7355309  25.9493370  47.4293327  58.1910477  26.1923542
  47.7882690  59.5286903  25.5817337  79.5293655  66.5038071  87.9146805
  79.2175522  67.4069672  87.9722290  78.8506088  66.0472946  87.4175720
  83.2288437  39.4079323  32.5398674  83.0493393  38.6894836  33.1463661
  82.3637238  39.7056580  32.2585030  27.2271309  71.4377975  16.4728661
  26.8471222  70.9260788  17.1869888  27.3213711  70.8127365  15.7540817
   5.2878547  29.7162838  67.0456543   4.3591204  29.5535889  66.8806915
   5.6358504  29.9970798  66.1993179  73.2263794  11.4865894  72.1559067
  73.1872482  10.6365566  72.5942535  73.7543488  12.0324631  72.7385788
  24.1668549  40.2341423  60.8712845  24.0559826  39.3040199  61.0682755
  23.2786369  40.5904503  60.8899078  65.6192627  59.1351433  65.4569931
  65.6158676  59.8285561  66.1168365  65.7509918  59.5944252  64.6275711
  11.8584862  21.3882027   2.5072436  11.0959969  20.8605900   2.2696157
  11.5874138  22.2905445   2.3383355  75.6343307  14.7177563  12.4567862
  75.2771912  13.8296785  12.4557562  76.2203445  14.7411213  11.7002993
  47.1487198  14.9170952   0.3575287  46.7886925  15.7639627   0.0940378
  47.1824570  14.9580841   1.3132553  12.1144733  56.5211334  22.5847092
  11.6575985  57.3320236  22.3612041  12.7521935  56.4036446  21.8806210
   7.2243519  10.9403486  73.4743652   7.6784377  11.3912840  72.7625427
   7.7593002  10.1655560  73.6468658  14.3536339  22.6551514  89.1703796
  13.7811508  22.4441204  88.4328461  15.1647720  22.9606209  88.7642136
  59.8934174  23.7638817   0.7091359  59.2451668  24.3108368   1.1528054
  60.2658157  23.2218857   1.4046872  80.4796295  38.8019142  58.7122307
  81.0982742  39.1805229  58.0875969  80.9706345  38.7466202  59.5320396
  60.5792999  43.0270348  40.2596092  60.7203293  43.9295311  39.9735260
  60.9961967  42.9805946  41.1199989  78.9887924  59.9557991  67.0533218
  78.4991226  60.7130966  67.3741913  78.4295425  59.5793839  66.3737717
  45.0432968  49.0234795  67.2679520  45.9329796  49.2728615  67.0179520
  44.7551193  49.7216797  67.8559189  58.6345444  25.5444450  71.9318848
  57.9892044  25.0279217  71.4492188  58.5491447  26.4285030  71.5749817
  81.1708374   4.0384283  10.7941074  80.5381165   4.4962645  11.3475399
  80.6479111   3.6847742  10.0745850  11.5424604  42.3980827  27.3482418
  12.2726288  42.9993820  27.2015266  11.9569645  41.5812950  27.6262245
   4.1445880  65.8710785  68.1610184   3.7136259  66.3878326  67.4802399
   4.2531414  65.0038147  67.7707596  33.3590393   6.7061725  76.1580200
  33.4912491   7.2998877  76.8971100  32.5609932   7.0237103  75.7354965
  26.7372169  65.7803268  88.2074280  25.9080544  65.6041565  88.6520462
  27.0035419  66.6414108  88.5296478  16.9754925  34.3792076  87.6848755
  16.0822678  34.4719543  88.0162048  17.2783737  33.5448112  88.0430298
  76.6452942  66.8633881  72.8565140  76.9298325  67.0927505  73.7411957
  76.0011215  66.1671524  72.9850616  79.5986328  68.2104568  42.6026421
  79.2431946  68.4778671  43.4502182  80.4066467  68.7154999  42.5116539
  73.5763397  -0.3165120  40.5946884  73.7595139   0.5503215  40.2323608
  73.6605682  -0.2030735  41.5414047  37.4784012   7.8921509  64.3129425
  36.9916191   7.2702556  63.7720871  38.3969345   7.7265081  64.1005936
  56.3556442   3.0328512   9.3453217  57.2146988   3.4116390   9.5318050
  55.9938545   3.5881305   8.6546659  31.2404060  54.8641357  69.0236588
  31.6771202  55.0137711  69.8621826  31.8874722  54.3949394  68.4969788
  16.2224712  29.4510612  68.3655701  15.5866671  30.0004959  68.8239517
  16.7258415  30.0636692  67.8293228  68.7165833  11.0261307  49.6324959
  68.5320892  11.6853123  48.9634094  68.5418243  10.1903334  49.1999016
  46.9107323  55.6398430  23.5359669  47.5805244  55.1797066  23.0301151
  47.0424538  55.3407555  24.4356499   9.4471149  61.9178238  41.7710114
   9.4994802  62.6900368  41.2078247   8.5098734  61.7935829  41.9205894
  56.8489723  16.7982845  40.5360909  56.7353249  17.5963287  40.0199127
  57.6029549  16.3618641  40.1395035  67.0962524  65.1144791  23.9895763
  66.5429993  64.3333664  23.9913006  67.8226013  64.8922272  23.4071178
  53.5597115  58.6839981  56.1819992  54.4196358  58.2789154  56.2945862
  53.4837189  59.2928352  56.9166908  47.6693268  30.6581039  14.7890663
  47.3826561  30.0683002  14.0917969  48.5302963  30.3266697  15.0442419
  82.3910446  64.3551788  80.6500549  83.2029419  63.9845009  80.9959717
  82.5439987  65.3000259  80.6407623  19.4113312   3.0999722  19.7389622
  20.2278652   3.3504050  20.1711483  19.6869659   2.5454452  19.0090599
  15.7287941  44.1699486  85.7751694  16.1964397  44.1200867  84.9414673
  15.5306406  43.2592850  85.9934769  28.9780807  27.5923786  78.7669296
  28.3537235  26.8782120  78.8948898  28.8019772  27.9085827  77.8807983
  68.3522873  36.3843307  16.6782951  67.9106827  36.1902847  17.5050735
  69.1641541  35.8786812  16.7159634  43.0859184  50.1022186  15.0362806
  42.2628593  49.9099464  14.5870209  43.7340698  50.1602631  14.3343096
  40.0344086  70.9666977  59.7990913  39.9293060  70.2282410  60.3989754
  39.1403122  71.2539520  59.6138763  64.1496735  69.3932419  24.8091717
  64.7927933  69.8556595  24.2717705  64.0468674  69.9431152  25.5858974
   5.4855471  56.0231056  57.8936043   5.3912621  55.6177444  58.7555923
   4.5998936  56.0225296  57.5304947  16.0552902   2.8813400  17.1741829
  16.7814751   3.4349742  17.4611912  15.2709923   3.3924251  17.3739376
  31.1658363  65.1938629  66.8264847  31.1692944  64.5918350  66.0823135
  31.0243282  64.6320267  67.5884247  73.4505386  67.3401413   3.4174790
  72.7025604  67.2872772   2.8225348  73.0880966  67.7014236   4.2263947
  69.3868256  62.9632416   9.0192909  69.6562576  62.9057045   8.1025972
  69.0407562  63.8508682   9.1119566  62.9952583  24.5161362  30.9778976
  62.9350357  24.0408611  31.8065834  63.1879349  23.8405342  30.3277683
  15.4115953  11.3626738   3.1767523  15.8008327  12.2366753   3.1476233
  14.7215843  11.4296570   3.8367746  26.0041790  69.3176117  72.3779221
  25.2741833  68.7023087  72.4467239  26.7728062  68.8066940  72.6317062
  10.9481163  26.5258904   9.3002701  11.5198412  26.3142624   8.5623159
  10.8895483  27.4812584   9.2915878  34.3102303  66.8084717  54.3676910
  34.9093094  66.7391663  55.1110153  33.8305702  67.6223755  54.5217285
  20.4539452   2.4508603  79.3686829  21.2788353   2.9098032  79.2100754
  20.0298748   2.9538226  80.0639725  79.3319016  48.6030121  22.9802570
  79.2579422  49.5491295  22.8552685  78.4375916  48.2773285  22.8783855
  47.1488152  25.6989517  74.3557663  48.0163193  25.9930916  74.6335220
  47.0065727  24.8841343  74.8375015  57.4393044  62.4486771  52.7573204
  57.5232277  63.2923012  53.2017136  58.1003494  61.8933907  53.1707306
  68.2567520  16.7243252  51.7484398  69.0486908  16.3675289  52.1506424
  67.6038513  16.0317020  51.8495522  28.1581707   6.3905106  32.8808517
  27.5460339   6.6202502  32.1817551  27.9620399   7.0096698  33.5839920
  55.7494926  36.1993332  65.4453506  55.4702759  36.5808372  66.2776489
  56.6537971  36.4942245  65.3380966  43.2786217  60.0410347  76.4257507
  43.8295517  60.7937317  76.6405869  42.7617455  59.8889542  77.2169113
  58.6247864  55.5755844  85.1714554  59.2651100  54.8647079  85.2010574
  59.1462631  56.3719826  85.2716446  24.5209465  28.2133389  86.3801498
  24.0024166  27.7346287  87.0268250  25.0384483  28.8304729  86.8974152
  24.1242485  64.7336502  15.2937469  23.2158871  65.0112305  15.4123240
  24.0820885  64.0594711  14.6155567  55.1951752  51.2865677  56.6431847
  56.0245934  50.9286919  56.3266029  54.7269592  51.5444679  55.8491478
  49.5945549  43.1086998  14.4760618  50.3735008  43.0042686  13.9296465
  49.6430054  42.3867340  15.1026812  57.6600761  51.1260109  69.3416901
  57.5113182  51.0505295  70.2842407  57.1953049  50.3786697  68.9652557
  41.5486107  38.0772057  64.5467987  41.6879883  37.1496086  64.3561096
  41.9124908  38.1987610  65.4237518  36.5453568  19.2252827  68.9119263
  35.6728134  19.4726486  69.2180481  36.3892250  18.5081005  68.2975082
  58.9029236  47.3445892  86.6913452  58.9390450  47.9847221  85.9806061
  57.9802170  47.0950928  86.7423096  49.9189835  31.7812634  46.3635712
  50.4331398  31.8637409  45.5604095  49.2885857  32.5001984  46.3192902
   4.6404505  30.9589062  16.6219978   5.5569334  31.1732845  16.4478359
   4.2079353  31.8084641  16.7080936  28.2720337  38.3516159  77.8042908
  27.4058952  38.5113945  78.1791306  28.3389187  37.3980980  77.7536697
  43.8541031   8.5123510  80.6067123  42.9302902   8.3239460  80.7719498
  44.0598679   9.2375793  81.1965790  83.5965195  66.9148102  80.7846985
  83.7301254  67.0467911  81.7232971  83.5387802  67.7996597  80.4242401
  40.6574631  48.5297050  88.1252518  41.3694458  48.9782257  87.6690216
  41.0246124  48.3055305  88.9803391  29.1478081  21.7144947  74.8325348
  29.8492775  21.6090336  75.4752274  28.4529381  21.1316452  75.1385956
  39.3249092  38.5214195  21.6332436  38.7346573  37.7893524  21.8118801
  39.1549149  38.7485771  20.7190571   1.9650444  43.0401306  39.9043312
   1.2313173  42.4864159  40.1713028   2.6541493  42.4227448  39.6589737
  75.6866455  65.5004120  64.0705872  76.1976852  65.6791153  64.8599777
  74.8661499  65.9750137  64.2038879  11.7573023  64.9925690  19.5659637
  12.0837049  64.6893997  20.4131832  11.0647688  65.6159058  19.7852249
  46.8900299   6.0396533  23.9015408  46.9977837   6.3118601  22.9902096
  47.5432243   5.3508668  24.0246048   9.6752481  25.1189098  84.9594650
  10.2887640  24.5190563  85.3837357   9.2380037  24.5848331  84.2962799
  65.4258499  24.5669899  61.8342438  65.8136826  23.7151222  62.0345917
  64.5452042  24.5227852  62.2067299  80.7936554   5.3624644   5.5843577
  80.0988998   5.8666253   5.1608419  81.5573578   5.4867721   5.0208497
  81.1068954  27.3104229  58.0702705  81.5572510  27.3336601  57.2259560
  80.7502365  26.4239731  58.1271667  41.3500977  54.7319908   9.1856623
  41.5055122  53.8870010   9.6076441  40.9115524  55.2570076   9.8551903
  63.4286690  68.3320084  48.3626251  63.5143013  68.4255295  47.4138603
  64.3281937  68.3623962  48.6884460  25.2206612  43.2980919  22.4336395
  25.2868938  44.2510910  22.3733463  25.6555576  43.0794449  23.2578297
   0.4937863  27.0387688  34.0235252   0.9217851  27.8922672  33.9557838
   0.5175686  26.8323917  34.9579086  29.8372898   1.7924486  68.5078812
  29.9405251   1.7574788  69.4588547  30.2321453   0.9789300  68.1940231
  82.1805878  39.1211433  17.2806129  82.2912827  39.0541992  16.3321953
  83.0702820  39.2217445  17.6190815  33.8132439  26.5418415   9.0968828
  34.5739174  26.3173180   8.5609770  34.1616974  26.6247730   9.9845400
  65.6313629   2.7036009  26.5470905  66.1378098   2.4563549  27.3207932
  65.6488876   3.6606386  26.5451393  12.2736788  52.4925003   8.6072464
  11.7335014  51.9468765   8.0356398  11.7387228  53.2687912   8.7728643
  83.5127182  31.3547821   7.0096221  84.2229233  30.9902248   6.4814806
  82.7138214  31.0392780   6.5871902   1.8402141  24.5543537  46.7338524
   1.1135195  24.0424976  47.0890274   1.4511279  25.4000530  46.5110550
  12.4981928  53.5285110  65.0428619  12.2481136  52.6510849  64.7533569
  12.5936136  54.0298042  64.2330246  67.9699097   9.9462490   2.5568662
  68.5093155  10.3223152   3.2524586  68.0741272   9.0001259   2.6579690
  77.3601303   9.9566593  24.1610279  77.9185715   9.4342051  24.7367115
  77.5125732   9.5959835  23.2875843  56.9443359  22.2616978  29.4055862
  57.2590179  21.4015064  29.1276035  56.3078651  22.0725689  30.0950565
  63.3371315  59.2262039  15.2275105  63.3138428  59.1997719  14.2709589
  63.6560059  58.3606987  15.4833384  53.6928444  62.9761696  58.7721710
  54.4418373  63.4878273  59.0778542  53.1333427  62.8862419  59.5435982
   5.3543596  27.9954910  29.5556297   5.6980267  28.5875072  28.8865681
   5.5929089  27.1212788  29.2472820  74.2565536  22.0962543  55.9033127
  74.3862839  21.1958275  56.2010231  73.4101791  22.3505096  56.2710495
  48.7968712   8.4271355  35.1687241  49.7301369   8.2566729  35.2959709
  48.5052452   7.7336493  34.5768967   2.6743758  62.7215080  58.4485626
   3.1047506  63.3913612  57.9172401   1.7609323  63.0036659  58.4958839
  79.9473267  70.5925293  88.5785446  80.0750580  71.0527573  87.7490234
  80.8281784  70.3280106  88.8438034  63.1086388  69.2487640  53.9783745
  62.5638657  70.0038834  54.2002983  63.2923737  68.8304977  54.8195229
  36.3236504   4.4936318  23.1582603  35.7709923   4.7713842  22.4277420
  36.1337624   5.1221981  23.8547363   1.3866402  69.8314743  54.3080978
   1.5773362  69.9174347  55.2421608   1.5294460  70.7087326  53.9527664
  69.1921005  41.6728249  68.9611664  68.4148407  41.4146194  68.4657516
  69.8799210  41.7571640  68.3008499  28.2085667  50.9603233  57.8228798
  27.6852474  50.6693382  57.0760880  27.7394142  50.6279373  58.5881538
  65.9340439  37.0078506  62.4034004  65.9535980  37.6100731  63.1471634
  65.4544601  36.2447166  62.7256699  19.8718796  59.6410866  47.2480125
  19.0055943  59.7478104  47.6409416  20.4643536  59.5531387  47.9946518
  12.7660532  34.8059578  72.2457581  13.1875334  34.5097275  73.0525055
  13.3787222  35.4408836  71.8746338  15.5152988  46.3101616  61.1576462
  16.0349865  46.9029961  61.7005119  16.0781155  46.1165314  60.4079971
  77.3635406  66.2170029  57.0132751  77.8239441  65.3852005  57.1244774
  76.8731155  66.3300171  57.8274879  71.1114120  10.9961014   1.2214724
  71.7370071  11.6406145   0.8906038  70.5379944  10.8146925   0.4768151
  65.6569290  32.7254639  47.8675003  65.6194000  33.6810303  47.8260040
  65.0423889  32.4321976  47.1947708  85.8187332  24.7927132  33.2157898
  86.3628235  25.5291348  33.4948730  85.9074554  24.1493607  33.9189682
  58.5548744   7.1698961  15.4957619  58.2548981   7.9746227  15.0730801
  59.1433907   7.4685483  16.1890774  71.8432846  59.7197151  66.6308365
  72.4938354  60.2747383  66.2007599  72.2717667  58.8676758  66.7124710
  28.0439167  60.1965027  55.7973785  27.3384075  60.4735985  56.3819351
  28.0144939  60.8218155  55.0732574  62.7594795  66.8158035  27.3117352
  61.9337540  67.2922287  27.2255669  62.8405228  66.3269424  26.4927864
  31.5841579  70.5260391  47.5147018  31.0862007  71.2611008  47.1569939
  30.9794617  69.7851028  47.4748306  79.6214447  32.9608269  33.5005531
  79.4263611  32.5255737  34.3304482  80.4763794  32.6151543  33.2439728
  76.7989502  11.5817909  56.0923233  77.6855011  11.2581491  56.2520828
  76.5816498  12.0829287  56.8783722  11.2608528  58.2942162  38.8605728
  11.5827866  58.6265717  39.6985054  10.3076077  58.3369370  38.9362602
  30.1430473  51.3323936  17.4738350  30.4940548  50.4619865  17.2856407
  30.7806950  51.7238541  18.0708237  70.4926758  60.9733162  43.2647591
  71.1273727  61.6183357  43.5767479  69.8434906  61.4883881  42.7857170
  62.8817520  37.5007095  70.4657745  63.6118507  37.7756805  69.9111786
  63.2728996  37.3708649  71.3297043  39.3452721  42.7648506   1.3816794
  40.2402534  42.4797058   1.1974782  38.8565331  42.5476761   0.5878276
  60.4097176  44.5464058  55.2838135  60.1411896  45.0479355  56.0536156
  59.6162338  44.0873985  55.0082550  61.4806061  64.6292877   7.2432127
  62.3773842  64.3420029   7.4149299  61.2065582  65.0568390   8.0545864
  54.8170776  58.9653244  66.2755280  54.5641136  58.1612816  65.8219299
  55.7069435  59.1425133  65.9706116  78.9087906   7.4580946  40.3152962
  78.0645294   7.1411142  40.6362000  78.9703445   8.3536997  40.6474648
  65.9675674  35.4166832  77.0225449  65.9557800  35.3121262  77.9739380
  66.7845993  35.8818665  76.8428116  22.3632507  66.4277267  50.8101768
  21.7686024  65.6778107  50.8260422  22.6796036  66.5016403  51.7105598
  67.1531067  25.9594975  30.6019287  67.8349609  26.6308041  30.6274033
  66.4934921  26.3106651  30.0037479   9.9114647  67.2091522  22.2746735
  10.7336035  67.6603394  22.0829697   9.4537506  67.1781082  21.4345741
  53.6539688  57.1703110  11.5616550  52.9859581  57.3524284  10.9007263
  53.6062927  56.2237701  11.6958971  68.4640579   2.5796123  60.4118500
  69.0370102   2.1094351  61.0175667  68.2803192   3.4097579  60.8515396
  52.7395172  61.9576645  14.4092340  52.7884331  61.0694847  14.7627516
  52.7507401  62.5236282  15.1811075  60.8636780  65.5068207  47.2745476
  61.2096291  64.6146698  47.2496376  59.9138718  65.3967285  47.2299690
  52.9772415  52.2248268  70.5318069  52.0496674  52.2352142  70.7678757
  53.3996429  51.7411499  71.2416458  28.9753113  29.6217384  13.1540699
  29.3078499  30.4576244  13.4810953  29.0005798  29.7101688  12.2012987
  46.1118927  18.7969608  75.0271530  45.4890518  18.1821365  75.4148254
  46.9212570  18.2937489  74.9380493  36.8349228  62.9560165  31.8953133
  37.3711433  63.6833801  31.5796490  36.4091187  62.6136436  31.1093731
  20.3202896  52.2292023   5.1531954  20.6346989  51.7469254   4.3884807
  20.1666451  53.1169701   4.8299422  27.0365009  57.5934181  79.0539474
  26.1074810  57.6603050  79.2745819  27.0879688  56.8460236  78.4581451
  31.6494331  65.1073532  83.2391434  31.4301739  65.0467453  84.1689224
  31.6220207  66.0447083  83.0472107  80.9821091  12.5221949  88.0854568
  80.1161804  12.3356829  88.4482422  81.0322952  11.9830627  87.2961273
  26.3752060  13.0248613   8.6059599  27.0806160  13.4850025   9.0608225
  26.1738663  12.2779703   9.1697388  74.8903503  32.5861206  28.3252373
  75.2774277  31.9567909  28.9337997  74.6635513  32.0656738  27.5545692
   3.6262829   3.5066378  19.8137360   4.3859463   3.4167404  19.2383556
   3.2875664   2.6159480  19.9041462  52.6422195  67.8183899  10.0642834
  52.6176949  67.1169052  10.7150984  53.0670776  68.5483093  10.5147696
  72.4282684  10.3662786  12.9422369  73.3403091  10.2392578  13.2035542
  72.0173264  10.7810078  13.7007599  31.0875435  57.5463257   8.2900448
  30.7011700  58.2352753   7.7493987  30.5525131  56.7730560   8.1110744
  48.1245804  52.0947990  78.2500153  48.5030975  51.3646317  78.7397232
  47.7935944  52.6889381  78.9235764  54.4236984  55.6519928  36.8565979
  54.8541565  55.9996490  37.6376648  53.8424950  56.3564148  36.5698471
  13.1345539  64.3171463  21.7670612  13.2277670  63.3824730  21.9512844
  14.0315628  64.6275330  21.6435108  34.9503899  60.7538300   5.9050798
  35.7804070  61.1192703   6.2112737  34.2811203  61.2737770   6.3500109
  18.9308128  37.9067688   9.4249811  19.1642227  37.1007347   8.9644785
  19.2720795  37.7839317  10.3108034  22.9767647  22.1582355  78.0570831
  22.6529198  22.3432350  78.9386368  23.8773003  21.8622417  78.1899567
  15.6413345  60.2051277   8.6001053  16.3206100  60.4599838   9.2244987
  15.4502869  61.0069656   8.1134920  25.2842102  41.3724937   4.3290706
  26.2403507  41.4072037   4.3577228  25.0073509  42.2779350   4.4696331
  52.2129478  62.9118919  56.3017998  52.5515747  62.9393272  57.1966820
  51.9730492  61.9954720  56.1644821  81.2562485  49.5806580  28.9824886
  80.6294250  50.2276878  29.3060188  81.9191284  49.5243759  29.6707191
  68.7564697  30.4818993  38.5127563  68.4149475  30.5656452  37.6224861
  69.3888626  31.1957512  38.5948334  25.9214649  65.7834396  78.0100327
  26.2774315  66.6278687  77.7335205  25.0988350  66.0020905  78.4478683
  19.2722778   2.8197293  84.5505295  18.9287682   3.6723046  84.2834167
  18.5195522   2.2308393  84.4972000   4.1382341  26.3027935  61.4269524
   3.7681754  26.4911709  62.2893906   4.2744455  27.1637840  61.0315094
  61.0855293  67.7137375  61.5474052  60.8327904  68.5518494  61.9345932
  62.0368729  67.6806793  61.6478500  51.9091606  57.7028160  46.7557793
  51.9531288  57.0417938  46.0648804  52.7021828  58.2257195  46.6377831
  70.8716812  71.7262955  24.4703751  70.9668121  70.8007431  24.2455711
  70.0230331  71.9756317  24.1045055  29.2039604  45.1227837  57.8598480
  29.8512497  45.8279305  57.8559341  28.8915405  45.0794258  56.9561081
  57.7668953  22.9528866  52.6224442  57.6634903  22.3173943  51.9141426
  57.0485382  22.7592869  53.2246971  78.4339294  13.9516611  45.7491188
  78.6986618  13.0426159  45.6084633  78.3782349  14.0404215  46.7005653
  76.0793457  25.6491890  21.0607491  75.6175613  26.1074734  21.7628593
  76.7670746  26.2572708  20.7896366  61.3680687  29.6342278  63.2322006
  61.8320923  29.2716064  62.4776039  61.6367645  30.5525227  63.2599640
  14.7176800   3.9953170  11.9926901  14.9486437   4.2119575  11.0893879
  13.9027586   3.4986217  11.9190035  15.3588572  33.0611420  70.9626083
  15.9235773  33.7679062  70.6498642  14.5625896  33.5032883  71.2570496
  42.3244286   6.3060188  23.6987228  42.7428055   6.8614240  23.0409107
  42.1961479   6.8822646  24.4521942  52.6893921  58.9092026  14.7540197
  52.5474281  58.1621780  15.3354225  52.4049454  58.6006088  13.8937349
  17.0528946  60.0100174  81.9703979  16.5682468  60.8280411  82.0807800
  16.4987774  59.3460884  82.3807449  35.8705406  27.6264477  86.1214218
  36.8167419  27.6069107  86.2647781  35.6156044  28.5257835  86.3274155
  44.4726448   7.4882412  67.0820084  44.4843559   6.7611365  66.4595871
  45.3962936   7.6877985  67.2346039  40.8966637   0.6379636  42.7301903
  40.2419205   0.7533182  43.4188385  41.0692825  -0.3034774  42.7190971
  74.5182571  53.2471771  81.0062561  75.4572906  53.4323196  81.0192947
  74.4319763  52.4870224  80.4309769  29.5953655   9.8456621   9.5580959
  28.7299099   9.5661888   9.8566113  30.2076092   9.3204165  10.0733700
  51.8145256  47.8827286  84.6645813  52.2616806  48.5541878  84.1493835
  52.4640350  47.1870613  84.7666397  20.6748390  52.2107964  48.2226372
  20.9684238  51.3169899  48.3991280  19.8234806  52.2731628  48.6556816
  10.4584217  11.5625591  67.5605850  10.4307756  11.1418791  66.7012329
  11.0222692  12.3258905  67.4355545  38.7871971  50.3534050  24.8948231
  38.7390442  51.1328468  24.3413029  38.1793442  50.5313797  25.6125050
  34.0961266  36.3572731  67.7582016  33.1928215  36.4277267  68.0669250
  34.1052284  35.5634689  67.2233963  62.9298477   4.5265856  29.6941223
  62.0887642   4.6179523  30.1418495  63.2086601   5.4260130  29.5222893
   0.6806331  47.4067001  65.8431015   0.8343231  46.4681320  65.7349243
   0.4350929  47.5047264  66.7630692  56.4153900  35.1642265  11.6991711
  55.6310692  35.6492233  11.4425497  57.1014519  35.4938927  11.1187649
  15.6347351  49.1451416  80.8768463  15.2523012  49.2384987  81.7493515
  15.1934843  48.3827744  80.5022507  26.5046082  28.8257713  81.6326981
  27.0649738  28.0634995  81.7781754  25.9474640  28.5762520  80.8954239
  78.5382690  15.3694277   2.8344975  78.0059204  16.1397152   3.0332315
  77.9045563  14.6583681   2.7394226  77.3749847  62.1378593  39.1407356
  77.6917953  62.0625305  38.2406311  76.4359818  62.3006706  39.0513077
  48.2151833  39.2009010  10.0557756  48.4574051  39.8438835   9.3893404
  47.5387764  39.6366005  10.5743036  33.8310280  13.4053144  77.6132812
  34.7782249  13.2682114  77.5974274  33.7115746  14.2916813  77.2722321
  80.4301910  53.9182663  50.5802803  80.0744629  53.4262199  51.3202667
  81.2785950  54.2358208  50.8894653  65.2323380  68.9960709  38.6355858
  65.0355911  68.1202850  38.3031502  64.3778305  69.3649368  38.8591805
  74.9921570  55.0717392  32.9325638  74.8819733  54.7189865  32.0495796
  74.3785858  54.5699883  33.4692192  10.7545233  62.3991127  47.4741249
  10.3656454  61.5246162  47.4579353  11.4992533  62.3190689  48.0701141
  38.9887505  63.8219414  85.8944778  38.6650505  63.3421478  85.1320877
  39.9128456  63.5798836  85.9551697  43.3478546  19.2222824  66.9259033
  43.3937607  18.6348610  67.6802673  44.1151390  18.9969711  66.3998413
   9.8159590  63.7578392  71.4457092  10.4642630  63.2410355  70.9673233
  10.2670164  64.5765762  71.6517258  78.6837921  65.2364578  27.5139389
  77.8304062  65.6449738  27.3687553  79.3047485  65.8152237  27.0715904
  46.3923492   9.0539989  57.7844086  45.6032410   9.4895382  58.1066589
  46.0782242   8.4679174  57.0958824  81.8174438   2.4521801  52.8623047
  82.3726730   3.1879442  52.6042252  81.2627487   2.2914205  52.0989571
  73.5158997  15.2735758  59.1548195  73.5595932  16.2097054  59.3497124
  72.6112595  15.1286116  58.8776131  75.6411667  56.4916115  23.5071697
  75.1425247  56.6460533  22.7048359  75.9396896  57.3608322  23.7747002
  18.3228168  52.5983467  69.9944382  19.1817532  52.9138145  70.2753983
  17.7277679  53.3240814  70.1827240  41.1356583  10.7425013  63.3048019
  41.7619019  10.0688419  63.0397758  40.5672455  10.8542004  62.5427933
  30.7618084  13.7691488   7.0481391  31.6697617  13.6034508   7.3019047
  30.5877399  13.1344604   6.3530841  29.4082851  42.0998535  56.9170113
  30.3516579  42.0521927  57.0719566  29.1466789  41.1940842  56.7515564
  27.8341236  65.6232986  12.7978659  27.4277363  66.4228592  12.4635181
  28.5242386  65.9326782  13.3846006  27.4469032  64.5662918  26.9502277
  26.8197861  65.2097931  27.2801552  28.2400475  64.7197266  27.4636574
  41.1913071  32.0357590  14.3733587  41.0879440  31.5660534  15.2009611
  42.1363029  32.0483780  14.2215300  36.4826393  18.9796104  74.8204269
  35.6011963  19.3384304  74.9230652  36.8752480  19.5046368  74.1229782
  65.5342331  29.8952065   9.1061506  65.0313034  29.4246101   9.7708616
  66.0657425  29.2196083   8.6850920  11.2815065  68.5398483  81.9329224
  11.0106945  67.8585358  82.5483246  11.4809942  69.2958298  82.4851227
  48.8326530  49.3726311   7.6088452  49.0810394  48.9023666   6.8129892
  49.4132996  49.0229836   8.2847366   1.3541989   0.7912624  60.8781281
   1.8012058   1.6367766  60.8391075   0.9738793   0.7616952  61.7560310
  43.9369774  22.5584927  15.0721979  43.6500435  21.6926193  14.7820864
  43.9689102  22.4929066  16.0266151   3.9903245  22.7407799  55.0996857
   3.9271836  22.2234821  54.2967873   3.8361108  23.6420822  54.8166580
  64.1603622  41.7732620  58.1941986  64.7485123  42.3481636  58.6838989
  63.9841385  41.0461655  58.7912788  35.0748024  26.8300362  11.6799974
  35.5593338  27.5528450  12.0787592  34.8376923  26.2657871  12.4159546
   6.1480536  59.1511307  62.6013489   6.3153872  58.2280884  62.7916718
   5.1972980  59.2406425  62.6667976  28.4671898  10.7953138  78.4851685
  29.2839832  10.5060625  78.8918762  27.8196659  10.7484379  79.1885452
  74.7385178   5.2669387  11.8765163  74.8784027   4.3201404  11.8919296
  74.5641251   5.4981680  12.7888498  78.9169159  37.1258583  85.7397537
  78.6130600  36.3686295  86.2402649  79.7891464  36.8766670  85.4342270
   5.3109555  24.7436199  31.7730179   4.6089363  25.2751942  31.3977432
   6.0715914  24.9277782  31.2218819  77.1109619  30.5906391  56.3469162
  76.5818710  29.7991829  56.2474518  77.7238159  30.3820057  57.0519753
  78.8127365  42.8207436  44.3497162  78.2487106  42.1161690  44.6685905
  78.8575821  43.4399605  45.0782700  82.8165741  28.0681400  43.3935051
  83.4981384  27.9842129  44.0603333  82.7158356  27.1837902  43.0413589
  81.8313446  43.8045959  38.9775734  81.1241684  43.2698898  39.3384399
  82.6292114  43.4301109  39.3509445  40.1755409  18.1308804  68.1204681
  41.0316887  17.9442444  68.5057068  40.0555801  17.4476109  67.4609299
  22.1126232  38.3467751  81.1425018  21.4147568  39.0018082  81.1546707
  22.0105591  37.9036865  80.3001938  63.6602249   7.2260127  84.7783432
  62.9733315   7.7740388  85.1579208  63.4631195   6.3433948  85.0919800
  68.5921783   8.0366697  80.8137436  67.9497910   8.0942535  81.5210266
  68.4124832   7.1949244  80.3949280  29.5279408   3.5361931   2.0003660
  30.2722626   3.5757813   1.3998260  28.8431320   4.0455084   1.5669303
  59.6407585  69.7018204  63.3722115  60.0229454  69.1324844  64.0400543
  59.4877930  70.5317307  63.8239670  69.7800369  61.7772369  56.5658150
  70.2324142  61.0902596  57.0553474  69.0827332  61.3181343  56.0975990
  48.0173798  13.5146408  16.8970928  48.1866112  14.4472055  16.7632370
  48.6459198  13.2512207  17.5692387  20.7482147  62.8448257  28.4178829
  20.3349342  62.4390678  29.1799793  20.0206013  63.0449371  27.8290157
  44.3713608  71.1866989  59.7207909  44.9655800  70.4903259  59.4411469
  44.9482803  71.9116974  59.9611435  19.1097565  17.8759289  76.6073151
  18.2725601  17.4667950  76.8262787  18.8868904  18.5471191  75.9622803
  74.3499756  63.0130539  49.2756729  73.4062500  63.0201569  49.4355164
  74.5626450  63.9202690  49.0566635  27.4024372   2.3022270  71.5872574
  27.1112785   1.3913590  71.6294174  26.7835674   2.7241566  70.9912643
  30.0904560  24.4371471   6.4972935  30.7407513  24.9103069   7.0163956
  29.4285603  24.1649494   7.1329298  14.8653259  33.2121773   8.4003868
  14.4492121  33.4761658   7.5797820  14.1600790  33.2417641   9.0469027
  20.3882637  55.0544739  38.6240540  21.2951088  54.8499374  38.8521423
  20.3021603  55.9911842  38.8012352  40.3542404  33.6195641  67.6373138
  39.4650993  33.3530121  67.4036331  40.9026222  32.8800278  67.3753967
  48.4489098  13.2414846  77.4688644  48.6161690  13.5239296  76.5697098
  48.8855171  13.8982306  78.0113525  80.6865540  26.4909191  64.5117035
  80.0301514  26.1532230  63.9023476  80.3726883  27.3655567  64.7413330
  48.3798523  71.1965332   1.9629428  48.8925591  70.7417526   2.6311793
  47.7459145  71.7146301   2.4588523  86.4500656  42.0519142  54.9607506
  86.8828659  42.3777237  54.1716003  85.5970993  42.4862823  54.9627953
  50.3250275  40.5398560  65.3237534  49.8318596  39.8902321  64.8227539
  50.7481194  41.0838776  64.6594772  80.4469833   3.7921793  77.1331100
  80.7546692   3.7597237  76.2272873  81.0514832   3.2250779  77.6118622
  47.7145233   7.4301939   2.8358505  47.5709419   7.5411129   3.7756979
  48.5177460   6.9130435   2.7756591  19.4949150  41.6258011  18.4375534
  19.2221661  42.4213333  18.8946838  19.5419617  40.9596786  19.1233349
  45.3491211  53.7628937  48.4890442  44.5900345  53.2720947  48.1741905
  45.5503693  54.3736191  47.7799988  73.7952423  58.1759720  82.6727448
  73.1154327  58.4714851  82.0671387  74.2486649  57.4771194  82.2013092
  78.5116882  30.5231819  28.1732807  79.0377579  29.7516499  28.3835564
  78.8204422  31.1961823  28.7798882   9.1471128  52.6769409  64.5665665
   9.7477922  51.9317055  64.5732574   9.0943518  52.9337807  63.6459808
  26.4062061   5.5779357  44.7084274  27.0750618   5.7538900  44.0466843
  26.8199024   5.8192644  45.5371895  22.0257454  40.5605316  68.9774933
  22.3423977  39.6579361  69.0133286  21.8772068  40.7254562  68.0463867
  66.7610092  34.7946587  31.3069649  67.1354523  34.9220467  32.1786308
  67.1187668  35.5130539  30.7852821  52.3293762  30.5076313  72.5007706
  52.2632523  30.3357735  73.4400940  53.0503273  31.1323071  72.4217453
  35.9808846  70.8940201  10.7224274  36.4564285  70.5446396  11.4760981
  36.6146774  71.4587402  10.2801199  35.4867706   5.7609754  14.9904547
  35.9299927   5.3961644  14.2244930  35.1655731   4.9962053  15.4681482
  17.6953392   1.9779788  50.4288712  18.0890560   1.1133527  50.3120804
  17.3457050   1.9635798  51.3198128  40.5978775  57.3984909  88.9960861
  41.1923409  58.1442108  88.9139328  39.7237625  57.7779007  88.9055252
  19.1636982  57.5557747  38.4334335  19.0274868  57.4557076  37.4912758
  19.3934116  58.4782104  38.5455856   7.5346699  23.1911869  57.0138588
   7.0314512  23.5772247  56.2969398   8.4469557  23.2672291  56.7342453
  18.4432030  68.9553375  76.7106018  19.2097149  68.7222290  77.2343903
  18.8030643  69.4074020  75.9474792  63.2367096  14.6121740  69.5473938
  63.8226013  15.1238613  70.1051941  63.6813622  14.5782976  68.7004166
  74.0999527   5.7152190  81.0115509  73.1984558   5.6529317  81.3272324
  74.4381104   6.5175128  81.4092941  18.6486988  33.4849701  69.1096725
  19.3594933  33.5094070  69.7502975  19.0342808  33.8435631  68.3103180
  63.4908333  36.2130547  19.7909794  62.5947952  36.3101578  19.4686127
  63.5330353  36.7852135  20.5571938  52.8999672  31.0200443  79.1945267
  52.2878113  30.3008423  79.3502350  53.5272141  30.9609451  79.9151459
  71.2035141   0.2865804  16.9481678  70.3980103   0.6183301  16.5515137
  71.3943710   0.9035960  17.6546383  77.9527283   0.6296438  35.5083466
  78.0504532   0.7383378  34.5623741  78.6726608   0.0505655  35.7585373
  38.7819901  57.4937782  20.7892323  38.8845596  56.9644165  21.5801086
  39.5252991  58.0966263  20.8064575  84.7995682  29.3984451  63.3273964
  84.2541656  28.8303165  62.7833405  85.6852646  29.2804413  62.9841194
  33.8708458  42.7790413   8.7683506  34.6130257  42.7409325   9.3716354
  33.6293068  41.8635674   8.6276493  68.0277863  48.5212822  17.6998196
  67.2267914  48.6572456  17.1937027  68.5454178  49.3115997  17.5459003
  37.1441574  45.3386688  46.1209946  37.9740562  45.0029678  45.7821732
  37.3980217  45.9655190  46.7983742  52.9886322  43.5034218  25.9306278
  53.3799782  43.6477776  25.0690956  52.5206070  42.6728516  25.8449688
  40.7167778  56.0730705  77.0491943  41.3201637  56.2875366  76.3377533
  39.9414024  55.7249756  76.6089020  75.1747665  62.1332512  72.9110947
  74.9325790  63.0154495  72.6294937  74.7122421  62.0110435  73.7401657
  37.9478416  16.4893227  62.3994675  38.2117348  16.8028564  63.2645035
  37.0783463  16.8656979  62.2632713  33.4771194  44.0617371  87.1357803
  33.6068611  43.8789444  86.2051926  33.8479881  44.9350510  87.2623062
   0.3644354  57.2922935  78.9928513  -0.0042114  58.1752701  79.0189972
   1.3107961  57.4290581  78.9489365  61.0338478  45.5808449  49.8256073
  60.8302078  46.5143204  49.7673950  61.9253120  45.5513840  50.1729622
  69.2942505  10.3568382  41.2856407  69.6241379   9.8064995  40.5753365
  70.0380859  10.4513788  41.8806190  12.2754040  51.5969734  53.6403694
  12.4928207  51.6058693  52.7082329  12.0607548  50.6831207  53.8275337
  36.6927338   3.2358904  69.1382904  36.1284714   2.8680503  68.4581985
  36.1952858   3.1243663  69.9484406  18.2132816   9.2386570  79.1158905
  18.8601551   8.5357170  79.0553894  18.2663307   9.6863041  78.2714844
  49.5161629  35.8946075   5.5804071  50.1277199  35.3307686   6.0540257
  49.6149521  36.7534828   5.9912663  39.2784195  42.3522911  67.5535812
  39.5759468  41.6591415  68.1428604  38.3242836  42.3372917  67.6286316
  10.1319580  44.4026527  88.5560303   9.2877722  44.6365089  88.9418945
  10.2958860  45.0861626  87.9062805  18.3050098  66.4871445  15.2945948
  17.6264210  66.8183365  15.8828611  17.9358463  66.5953598  14.4181013
  63.4136162  34.4430161  34.2319336  64.1566925  34.0887909  33.7434692
  62.9911346  35.0466156  33.6208649  39.9690552  66.4737320  59.9296188
  39.7762222  67.4078979  60.0095520  40.6548271  66.4268723  59.2634735
  55.2780647   9.4991140  12.0616055  55.1640472   9.9401989  12.9034348
  55.7516098   8.6950188  12.2747202  84.5601654  42.0942612  22.8383389
  85.2574921  42.6402512  22.4751987  84.8428116  41.1967201  22.6629429
  47.0111275  67.7019272  37.1036491  46.1388245  67.3718567  37.3189888
  46.8517151  68.4125443  36.4824829  20.8404274  60.1365433  14.4059181
  20.0396595  59.8093338  13.9961176  20.7735081  61.0888214  14.3357716
  49.6319008  48.3197098  25.9701061  50.1346283  47.8530006  26.6376972
  48.8279381  47.8089790  25.8750591  60.0282135  34.9240074  59.5869064
  60.0107651  34.8640594  58.6317444  60.9583664  34.9766350  59.8066330
  13.0279999  60.8967781  30.3319225  13.2414160  61.7800217  30.0309830
  12.0734529  60.8920631  30.4029770  85.7891159  68.9691391  65.4299240
  86.1950150  68.1050262  65.4991226  86.5079422  69.5838776  65.5769958
  85.7552414  31.0678272   4.0607824  85.6487732  30.3351765   3.4540544
  86.5531235  30.8615742   4.5476913   3.0783918  57.6000900  79.3087158
   3.5975623  56.9150124  79.7298584   3.5660913  57.8156509  78.5137863
  48.0390625  71.2564468   8.1136026  48.7815781  71.7001953   8.5234728
  48.1272430  70.3424835   8.3840151  54.3255043  21.3706989  13.4968672
  53.3745804  21.4258823  13.5913420  54.6052933  20.8051643  14.2166739
  16.1124687  56.1414490  26.2029247  15.3677959  56.5738792  25.7849541
  15.8462114  56.0355339  27.1162262  10.8152962  47.5373230  13.9429188
  10.1745796  47.3985710  14.6403866  11.4795761  48.1027603  14.3369312
  62.0374908  20.6692085  33.0201073  61.9360695  20.6392422  32.0687675
  62.6368332  21.3994675  33.1741943  79.0163269  13.3574543  69.5210648
  79.8509903  12.9017744  69.6302414  79.2357941  14.2846050  69.6130219
   9.6314993   6.3439536  69.8861389   9.7516937   5.8002586  69.1075592
   9.5186129   5.7172623  70.6007996  11.8269701  43.6517105  10.8656206
  12.5532990  44.2478676  10.6832132  11.0842209  44.2275848  11.0470600
   6.6366696  37.2213631  41.7004471   7.4235263  37.6888542  41.4201965
   6.2610269  36.8773842  40.8900146  85.1145401  30.8653240  21.4188118
  84.8754196  30.8664398  22.3456612  85.4029770  29.9689407  21.2469501
  25.9295635  50.5592804  22.0079651  26.3232594  50.2473602  21.1931400
  25.3097839  49.8721771  22.2528973  23.2675591  27.1095104  82.1435165
  22.3852367  27.4386959  82.3149109  23.1301689  26.2375355  81.7733612
  24.1343651  12.4104481  48.7872391  24.4889793  11.7222710  48.2243042
  23.9258900  11.9646044  49.6082077  50.9958305   3.5110681  31.5736675
  51.7778854   4.0356488  31.4020882  50.7232552   3.1982529  30.7110653
  84.7642822  71.6213837  47.3559456  85.3893280  71.4617844  46.6487846
  85.3094025  71.7654114  48.1294632  51.9783859  65.6280136  11.4690533
  52.7108612  65.5626297  12.0817842  51.3493652  64.9756393  11.7772245
  87.0649948  63.7603226   4.4534836  86.1368713  63.8436432   4.6723027
  87.2464447  64.5119247   3.8892150  85.3681107  45.4602013  30.8397179
  84.5416031  45.9417763  30.8745232  85.5160217  45.1728706  31.7407150
  66.7197189  10.8303881  16.9090939  66.9342041  10.0692911  17.4484978
  67.2914886  10.7515659  16.1454887  13.3579931  28.5169392  11.6247129
  12.6780481  27.8573704  11.7621021  13.9299603  28.1360912  10.9583502
  67.1755371  22.5170555  42.7887688  66.6680145  22.5712662  43.5985298
  68.0844269  22.4446220  43.0801506  17.4544010  69.1158295  62.6880951
  17.1648693  69.4502106  61.8392181  17.5912056  68.1796722  62.5427475
  19.9189339  35.3433838  12.3005505  20.8344250  35.0844154  12.4056473
  19.4387112  34.5161705  12.2639809  20.1913071  34.2600479  76.7224197
  20.9515591  34.2632332  76.1408310  19.5419521  34.7990723  76.2707291
  65.8487549  24.2522507  49.6158409  66.5032043  24.0089550  48.9610634
  65.3359985  24.9433537  49.1966820  71.8045044  65.5509644  11.9249811
  71.4157944  65.5751877  12.7993660  72.5252304  64.9255981  12.0005121
  10.7345905  67.1185303  84.2667465  10.5729599  67.6839828  85.0219803
  11.5357132  66.6444321  84.4896011  46.4116707  63.0642662  66.8915253
  46.9125519  63.0865822  66.0761337  47.0577469  62.8472481  67.5636292
  82.1810684  61.4350204  79.6379395  82.1664963  62.3888245  79.7171936
  82.8595810  61.2591896  78.9860687  68.1225891  15.2989521  19.7409191
  69.0028839  15.6684504  19.8100872  68.2644424  14.3901138  19.4761105
  75.1714554  58.5180588  50.4882126  74.3434525  58.9066505  50.7704163
  74.9301224  57.9387054  49.7654839  75.1809692  66.1586456  48.4931602
  75.3065338  66.3932190  49.4126396  75.2672195  66.9866943  48.0207977
  53.8190346  24.5316944  81.6047974  54.4140244  24.4098873  80.8649445
  53.8083725  25.4777031  81.7503510  19.0519562  60.5772934  79.3036346
  19.9104805  60.3459930  78.9491348  18.5880604  59.7427597  79.3713913
  53.9103699  49.0622826  34.0222931  53.2320328  49.5343971  34.5051994
  54.7259827  49.5008926  34.2644234  43.4786110  29.5293388  86.2109375
  43.7341042  30.0050049  85.4205627  42.5484810  29.7275257  86.3196106
  27.2799263   5.4366732  26.2068672  27.1700916   5.3549914  27.1542301
  26.4338703   5.1742663  25.8441525  17.2364120  26.5616245  83.1115494
  17.4064999  27.3793087  82.6439056  17.7458115  26.6367664  83.9184570
  23.1464462   4.0102768  79.0013046  23.8136463   4.6914349  79.0855713
  22.7473927   3.9571483  79.8697357  16.7496986   4.7911363  59.3811111
  16.7478943   3.8629155  59.1473732  16.6020527   5.2470646  58.5525208
  87.0308075  55.6768646  15.8983021  86.9524536  56.5904007  15.6234550
  86.1890564  55.4769173  16.3078232   6.8215146  53.1814651  87.5214081
   6.8865190  53.9820480  87.0007553   7.7083225  52.8211937  87.5184860
  57.8468933  42.4465446   4.1862292  57.5940475  42.9094734   3.3874831
  58.7999916  42.3771172   4.1313119  64.3923187  51.4811783   1.3549676
  63.6457405  51.6207428   0.7724070  64.7670593  52.3534470   1.4772203
  21.8237381  67.7022247  26.6204643  20.9751511  67.9256439  27.0028496
  21.7172871  67.8733215  25.6847153  64.1377106   4.9004812  18.9501629
  63.5475883   4.8926063  18.1965561  65.0048447   5.0510221  18.5737877
  56.3274117   3.0616035  38.4946823  57.0999489   2.4977322  38.5329666
  56.4630280   3.6011019  37.7157211  56.2522430   8.6558905  50.9823151
  55.9685593   9.5628948  51.0967560  56.1687050   8.4955978  50.0423355
  47.0483055  22.0284710  12.1454830  46.6981888  21.1377563  12.1621571
  47.9892540  21.9185638  12.2824821  27.3386669  31.9217205  63.9433136
  26.8394451  32.5409317  64.4758377  27.3875751  32.3330383  63.0803795
  50.1765289  29.4843693  47.8097000  49.4456940  28.9221458  47.5527611
  50.0519333  30.2861595  47.3019180  65.6406937  48.3118172  65.7192764
  66.4391098  48.7975006  65.9263382  64.9880447  48.6516914  66.3314514
  54.7363319  14.0659323  86.5060043  54.7375908  15.0054092  86.6893463
  54.6328316  14.0073900  85.5562210  69.0156250  65.7969055   8.9601536
  69.7412872  65.5293884   8.3961658  69.0429306  66.7536392   8.9479790
  20.7220001   9.4788151   0.7206352  19.7968693   9.4316635   0.4795076
  21.0675316  10.2063875   0.2034520  54.2876282   1.9246294  46.4460831
  54.8049240   1.6805396  47.2135811  53.7194748   1.1701849  46.2903671
  40.4441528  48.7639008  81.9776840  40.8297348  48.8592300  82.8485870
  40.8454552  47.9702759  81.6236420  60.1862679   7.9300904   0.6090090
  60.7152519   7.7634635   1.3891656  60.2028313   8.8817129   0.5071622
  49.9762497   3.1902924  85.6407776  49.5346870   2.4126124  85.2995071
  50.7612114   2.8507552  86.0706482  24.5758209   9.2448444  15.5957327
  24.8768444   9.4156981  14.7033062  24.9808502   9.9347248  16.1213245
  83.4230804  62.6455269  48.0117340  83.3017120  61.7972870  48.4383430
  83.6058350  62.4297371  47.0972595  72.6800308  67.5336304  27.5351620
  73.3097916  67.6719208  28.2426319  71.9829025  67.0125198  27.9335175
  59.1748848  33.3304214  23.4011402  59.8519745  33.7546234  23.9282417
  58.4886475  33.1049042  24.0291939  64.4556122  59.6880417  88.1052551
  64.3366394  60.5394936  88.5260925  64.6406403  59.8971672  87.1896896
  68.4981613  37.1694641  67.4115601  67.6391602  36.7620354  67.5226517
  68.5058670  37.8882523  68.0436325  14.9499950  62.0240898  21.9766312
  15.0434303  61.5492210  22.8024654  15.7773695  62.4948044  21.8760777
  58.3039017  10.2371445  33.3589821  57.8978920  11.1039677  33.3614426
  58.2651558   9.9571075  32.4444809  81.7836914  64.5170135   0.1335088
  82.4991837  64.8578110  -0.4032962  81.3505020  65.2976379   0.4787849
  55.4486923  68.7091370  73.2935638  55.8280029  67.8305817  73.3158646
  54.5977631  68.5919876  72.8711624  82.5135956   6.0939069  45.7310944
  82.1830673   5.4622898  45.0923157  83.2992630   6.4581461  45.3233070
  62.5125771   1.7953429  12.2578869  62.7276802   1.1770447  12.9562216
  63.2105217   1.6805346  11.6129618   9.4807262   3.4985628  54.5722733
   9.9799318   2.8360493  54.0946732   9.6304064   3.2922702  55.4949150
  67.4954834  50.6320763  44.1493263  68.0454559  51.3291855  43.7918282
  68.1080017  50.0517769  44.6013298  34.2034225   1.6156797  41.1529503
  34.4350853   2.4492867  40.7434845  33.2519798   1.5611103  41.0634537
  84.6752701  56.5578651  61.7349091  85.3193588  57.2613525  61.6543999
  84.5840607  56.2137871  60.8463593   9.5054531  61.6773949  65.1714325
   8.9820948  62.3644753  65.5840454  10.4123020  61.9336967  65.3392563
  18.5231533  23.7557259   8.1457253  18.5094643  24.1654301   9.0107031
  19.2617321  23.1478291   8.1803007  77.4295731  29.5359344  70.8351212
  77.7722473  28.6887856  71.1199799  78.1872482  30.1204662  70.8572006
  44.4740067  53.3877563  16.9417572  43.8468552  54.0020523  16.5602436
  43.9389267  52.6499825  17.2343426  58.2429695  49.9619331  21.3230724
  57.3960114  50.2451973  20.9786034  58.0636635  49.1162605  21.7340641
  72.0968704  21.7235317  27.0215282  71.2897263  21.5984478  26.5224228
  72.3689346  22.6181068  26.8167095  49.2435570  59.3407402   5.0880046
  49.0619431  60.1925926   5.4849901  48.5460930  59.2234993   4.4430017
  77.3668060  48.2398796  85.9809189  77.5151672  48.8442612  86.7082062
  76.7245026  47.6144905  86.3164291  12.3975735  70.2638779   8.1234913
  11.9374628  70.7921677   7.4712348  11.7021570  69.9039841   8.6740427
  73.4838409  62.4386024  52.2379608  73.6124878  63.3414345  51.9471359
  74.2867355  62.2231102  52.7124634  70.4597702  22.1789455   3.3338683
  70.2257843  21.4601746   2.7466271  69.6476746  22.6739883   3.4419231
  78.9738464   9.9302664  78.6698074  79.6593246  10.5526495  78.9126740
  79.3451462   9.4388952  77.9370575  12.5439901   5.7619944  81.3540802
  11.7444706   6.2220759  81.0984879  12.4605665   4.8964419  80.9539642
  16.8455105  50.7791176  60.4430199  16.0227013  50.5886993  60.8935318
  17.3469810  51.3000717  61.0702057  55.7466393  71.1373596  16.1860256
  56.4403191  71.3305130  16.8166847  54.9615822  71.5328140  16.5648823
  50.9829979   2.5819664  54.5070648  51.0761414   2.7892160  53.5772247
  50.7080345   1.6652267  54.5217514  41.1749763   4.3105197  44.8901711
  40.4002533   4.7889118  44.5949135  41.6160622   4.0471244  44.0825195
  42.3606377  31.6326523   0.6819634  42.9550972  30.8872929   0.7673397
  42.3798637  32.0539932   1.5412278  21.0373611  15.6062317  25.0351372
  20.7349739  16.4290619  25.4195137  21.4607449  15.8655005  24.2167492
  17.5451374  50.2915573  11.3178120  17.3901501  51.1634064  11.6812544
  17.6344929  49.7250214  12.0841579  76.8255310  62.1916695  30.9239292
  76.4989471  62.2447968  30.0257339  76.0530624  61.9784279  31.4474277
  55.1144409  62.9475822  79.2251587  54.6592598  62.8065872  78.3950043
  55.8835373  62.3798561  79.1760483  21.5822048   4.7439399  58.0824509
  21.7172527   5.6459846  57.7920914  22.2121449   4.6242385  58.7931404
  10.3188353  20.4098167  86.1705551  10.0126114  20.5655270  85.2771301
  10.9846458  19.7280884  86.0801392  76.3012543   3.2934051  72.6259995
  76.4111633   2.8675113  73.4761581  76.3966599   4.2275105  72.8119431
  45.8325272  64.6287537  70.0458450  46.6338158  64.6419830  69.5223999
  45.5308876  63.7215271  69.9991531   9.9654970  70.0066910  47.7752762
  10.7091780  70.4341202  47.3504524  10.0530500  69.0832291  47.5390816
  34.4559555  64.6504059  66.7991333  33.5163002  64.7802277  66.6709747
  34.5517159  63.7070847  66.9303207  86.2547073  30.4718132  52.5838280
  85.4218979  30.9347610  52.4925156  86.9096069  31.1670876  52.6465721
   4.3899693  67.7400436   8.7541914   4.9574976  67.4438400   8.0425701
   4.1418271  68.6310272   8.5075970  79.0057297  13.6035652   5.5067906
  78.3133163  14.1069002   5.9351001  79.8093872  14.0836105   5.7065954
  85.5364838  46.3447533  75.5544281  86.4339371  46.3988914  75.8828812
  85.6327667  46.2772179  74.6044846  20.8737621  47.9735680  77.4223709
  20.6229362  48.0869179  76.5056000  21.7976284  47.7253990  77.3889999
  29.7667522  68.9321976  83.8929825  29.1751175  68.3224335  84.3338699
  30.3824635  68.3704376  83.4222870  19.2717800  61.1807823  55.3379021
  18.6271420  60.8666344  54.7038765  19.5729065  62.0157585  54.9796143
  53.7266197   4.9455132  88.7538376  53.0421257   5.5176358  88.4068832
  54.2989006   5.5305429  89.2502899  74.7769623  26.7905712  45.6479836
  75.4221268  26.3185654  46.1744843  74.9487457  26.5088291  44.7494583
  16.2673168  49.3418121  36.8081322  16.9955158  48.7784882  37.0700912
  15.5681219  48.7335587  36.5685806  44.9509087  59.5909195  74.4360657
  44.4223671  59.6979713  75.2268982  45.3781052  60.4391670  74.3168488
  57.1108208  66.3134384  45.4999084  57.0173569  67.1583939  45.0599785
  56.2119064  66.0187378  45.6459885  17.7953625  39.7431374   0.7446225
  17.5153484  39.7016449  -0.1697641  18.6282215  39.2716637   0.7616940
  77.3125992  41.3041763  76.7381744  77.2590561  41.2785950  75.7828140
  77.4280396  40.3896561  76.9961700  24.9513149   1.5052705  28.7484360
  25.0098934   1.4767287  27.7934570  24.3264885   0.8150724  28.9708061
  74.2971954   3.1490130  47.8022461  74.5324020   4.0431929  48.0499420
  74.6760712   2.6022923  48.4905701  24.2934952  36.6906319  88.5731049
  25.0986061  37.0505028  88.2009277  23.9440784  36.1239777  87.8853226
  26.3483486  43.0056190  52.8216743  27.1855698  43.3103790  52.4717979
  25.7193527  43.1765366  52.1206856  40.6637764  34.5132523   8.7679186
  40.9633789  34.1859741   9.6160688  40.7089272  35.4659195   8.8492718
  35.2313652   8.2709141  69.2572479  35.2610970   9.1669178  68.9217987
  35.2638206   7.7209220  68.4745026   7.9031053  16.6810055  27.4642696
   7.4243441  16.7193451  26.6362896   7.3357134  16.1749325  28.0458088
  36.5171242  26.8850460   2.0047605  36.1188698  27.4481506   1.3410312
  37.3219986  26.5660133   1.5965602  82.5064163  24.6442738  30.8545609
  82.5348969  23.8582077  30.3091049  82.7134933  24.3321838  31.7354412
  51.3862305  57.9140968  18.2198753  51.3854637  57.2282104  18.8875523
  50.8224144  57.5731049  17.5255642  18.9581223  65.5747070  67.4091644
  19.0230904  64.6246109  67.5057602  18.5785294  65.7016525  66.5396652
  63.9276810  25.7062874  67.9450226  63.1007462  25.2866306  67.7077408
  64.4998169  25.5500011  67.1937103  83.7627640  44.1397743  73.3038635
  83.1910629  44.8846283  73.1178894  83.3412018  43.3994560  72.8674622
  66.6091232  57.1774826  38.4323082  66.4900360  58.0674858  38.1007385
  66.9756851  57.2954102  39.3086433  80.3947906   7.8706174  55.2427177
  80.6573868   7.1603160  54.6572723  79.8331070   7.4494419  55.8933754
  58.4979897  42.4379883  17.4903507  57.6214066  42.3967476  17.8726215
  58.5941849  41.6088982  17.0217495  77.1479111   1.2099739  24.0360317
  76.5873413   1.2976446  23.2651215  77.9823227   1.5967203  23.7706566
  31.8288422  40.6278877  67.9334183  32.7212334  40.9394531  67.7824326
  31.6514587  40.8437691  68.8489227  25.4615459  54.0273895   8.0587816
  26.2308350  53.6872215   7.6019316  25.7764893  54.2307701   8.9395075
  75.3278656  20.4817448  86.2468109  74.4424820  20.1352615  86.1360550
  75.4439697  21.0821266  85.5104065  39.5236969  51.1833153  42.2316818
  39.8983650  50.4482155  41.7464142  39.0123863  51.6642036  41.5808792
  55.3535385  34.1075478  81.3764038  55.6829872  34.5709419  80.6063690
  54.5272980  34.5442390  81.5834351  15.9886141  70.1985321  38.6031189
  16.2684460  71.0024414  38.1653328  16.8027802  69.7296753  38.7862511
   6.9421377  41.7690811  42.6162949   6.5510764  42.6168785  42.8273468
   6.2072530  41.2345581  42.3155289   2.9072230   3.7204595  80.1994400
   3.2035241   3.8913705  79.3054428   2.0423274   4.1277876  80.2471008
  72.7517776  29.9375458  82.1925201  71.7992630  29.9347591  82.0979919
  73.0809479  29.7946568  81.3051300  82.3277817  65.7366562  70.2081985
  81.9042206  65.7323151  69.3498154  82.1846313  66.6224823  70.5414352
  77.8855438   6.0909514  27.1281300  77.0845032   6.3293967  26.6615372
  77.7776642   5.1614528  27.3296852  84.6379395   6.6451592  38.1823807
  85.5453873   6.6889958  38.4837990  84.4295807   7.5414271  37.9187126
  86.2034683  55.2813721  80.6371994  86.7341766  55.8594131  80.0890656
  85.3033447  55.5719719  80.4904022  36.7816658   9.0395756  71.8181915
  36.7394829   8.3250170  72.4536896  36.5094795   8.6412334  70.9914703
  17.2402210  23.8383350  55.7508698  17.0602474  23.4787998  56.6195297
  16.6642857  23.3476753  55.1645393  13.6237555  54.4823952  59.1881256
  13.1759577  55.3276253  59.2241325  12.9530668  53.8453407  59.4342422
  82.6602478  40.2651520  86.8807220  83.3381500  40.6408081  87.4424744
  82.4940109  39.3989029  87.2524872  16.2462254  51.6370735  35.4309502
  16.2367802  50.7723923  35.8414040  15.4568892  52.0670471  35.7600441
  65.3918076  42.5612488  13.8344793  65.3557358  42.2966309  14.7536688
  65.9499054  41.9045601  13.4179192  16.0537415  48.3798676   2.8956084
  16.2779236  48.5720901   3.8061163  16.4155521  47.5076523   2.7388680
   2.3046162  48.7295532  26.6663189   1.8465754  49.5506592  26.4868355
   1.6613437  48.1926651  27.1291218  68.5972214  50.7480659  14.5388241
  67.7596588  50.5520020  14.9586754  68.4326477  51.5466194  14.0373669
  39.6218605  47.6127739  28.3438797  40.2547417  47.1832428  28.9193745
  40.0912476  48.3704376  27.9948120  13.8550186  54.3600464  85.6854248
  13.3676825  53.8980064  86.3675156  13.4100962  54.1239128  84.8714676
  10.9124069   0.7671068  74.6733780  10.1808033   1.3009387  74.9832382
  11.6368217   1.3855292  74.5784607  20.3279762   2.8544104  53.2946625
  20.6746101   2.1485341  52.7489395  21.0610466   3.4616930  53.3949013
  19.8404217  70.0011902  80.3917847  19.8560638  69.3991394  81.1357727
  20.7567024  70.0765610  80.1253586  85.6427460  12.1019993  77.0214844
  85.7308197  11.8685799  76.0973663  86.5240784  11.9973507  77.3799973
   4.6633062  58.1342354  27.0950470   4.6227617  58.8261490  27.7552319
   5.5819879  58.1123505  26.8271351   2.5066690  59.0790138   0.9303750
   2.5974040  58.5497704   1.7227770   2.1276689  58.4817238   0.2855215
  11.3804865  48.9034500  53.6691475  10.6365461  48.5393867  53.1893082
  11.8648558  48.1374512  53.9771461  77.8913879  46.1326714  39.7363586
  77.8715210  46.6795158  40.5217209  77.2157745  46.5038528  39.1688995
  84.2294159  62.2339020   0.1230011  83.9220047  62.1324577   1.0238022
  85.1481247  62.4879227   0.2106179  83.1735229   5.2677522   9.6073456
  83.6894531   4.5241766   9.2956734  82.4299698   4.8702235  10.0604839
  17.5757351  18.3272152  17.6179199  17.4169369  19.2670288  17.7060337
  17.6425076  18.0101128  18.5185986  66.4648819   9.8336506  40.2080536
  67.2265396  10.2332973  40.6280441  65.7852325  10.5060425  40.2549133
   7.4794717  43.0718193  69.3305054   7.8273611  42.3964577  68.7481918
   6.7216344  43.4236221  68.8634415  34.5915604  56.2634392  21.0862846
  34.3094673  56.3426437  20.1750317  34.9073944  57.1373291  21.3160572
  82.6461487   7.6151018   8.1556511  82.9224854   8.3590488   8.6908264
  82.6949005   6.8636961   8.7466202  33.5641365  67.7627487  69.9777908
  33.8696480  66.8556290  69.9733429  33.1900101  67.8851929  70.8503036
   3.5858364  48.1551895  57.8190384   3.0396855  48.3142624  57.0492020
   4.3606038  47.7104340  57.4752922  38.8866158  47.4688454  15.1303930
  39.3659401  47.7636909  14.3560905  39.5383949  46.9997749  15.6513405
  36.5617523   5.9878316  86.2061386  35.9078522   5.8425026  85.5223770
  36.7084579   5.1212673  86.5853119  68.0150146  47.0823555  43.5577698
  67.0870972  47.3126450  43.5112114  68.0641556  46.4251671  44.2519760
  59.3980942  39.9832573  12.5619049  59.3820686  40.7269173  11.9594593
  59.4921455  39.2177467  11.9950018  60.5993805  52.0158920  28.0793324
  59.9584465  51.7270851  27.4296989  60.1785393  51.8473587  28.9223747
  55.7141457  20.6630402  72.8187637  55.0078011  20.1854420  72.3837814
  55.3311348  21.5134449  73.0340500   0.1633341  36.2926140  60.2674599
   0.8294688  35.6861229  60.5909843  -0.6470532  36.0047264  60.6877289
   0.4483392  51.0029831  83.2674942  -0.3789142  50.7019577  83.6433487
   0.2129952  51.3247986  82.3972778  14.5173321  38.3020782   4.2242785
  15.0419607  38.9672852   3.7787437  14.2509956  37.7013321   3.5282907
  11.2724209   7.6321201  19.9002647  10.7595901   7.9704313  20.6342831
  11.5922298   8.4143915  19.4508152  31.7002316  67.6802673  32.2647057
  30.8345795  67.9340515  32.5848122  32.2095566  68.4904938  32.2834778
   6.1087260  56.8824921  23.3332806   6.4456916  56.0300140  23.6089077
   5.2050023  56.8961067  23.6484470  74.4043427  21.2614307  41.2551537
  74.4835587  21.8966713  40.5435181  74.9563370  20.5279369  40.9840050
  60.9029808  41.7924767  49.5882683  60.2836876  42.4911423  49.7993889
  60.4670753  41.2847748  48.9038277  12.5401106  15.3130884  79.3760147
  12.8552208  14.6592760  80.0000839  11.7742567  15.6997843  79.8004761
  61.4174080  47.4668083  53.0217133  61.3870468  46.5102005  53.0072556
  61.9214439  47.6785965  53.8074150  10.6412926  13.7648458  72.5282745
  10.3243637  14.6680365  72.5341797   9.8528795  13.2351322  72.4097900
  69.2317200  62.0442924  52.4486847  69.3191986  62.0568581  51.4955750
  69.6707153  61.2377586  52.7188873  74.0178528  36.1517143  61.8923492
  73.5831451  35.9876595  62.7292175  74.9389191  35.9500656  62.0573158
  59.9480515   2.9247987  80.8242264  60.3242416   2.0446389  80.8187180
  59.6445198   3.0499158  81.7233582   3.8451676  59.1867409  14.6325445
   4.6444178  58.6614723  14.5935154   3.4236910  59.0448647  13.7849236
  64.3236694  38.0652351  81.2353973  65.2295609  38.3536606  81.1240387
  63.8513680  38.8552322  81.4982071  24.3251038   6.8612309  69.6269302
  24.2535515   6.6426406  68.6977692  25.1804104   7.2831569  69.7085419
   5.0986743  54.9404984  60.2782593   5.2471957  55.3924103  61.1088905
   5.0820713  54.0120163  60.5103683  73.4283142  16.5411720  16.3749352
  72.6416092  16.1446342  16.0006561  73.8818130  16.9270020  15.6254683
  41.8088837  61.5758553  81.5307770  41.4294891  62.4365578  81.3533401
  41.3687096  61.2797127  82.3275070  43.0394974  48.3756981   6.4081326
  43.7615700  47.8906975   6.8076553  43.1029358  48.1738510   5.4746089
  54.0127602   5.8370085  29.4185467  53.2051773   6.0477600  28.9499035
  54.3517342   5.0599303  28.9741611  46.3468857  12.5581436  58.0337982
  45.6986237  13.0704079  58.5170937  46.7267380  11.9729776  58.6891785
  21.0350494  63.6412582  53.6633911  21.6600933  64.0954895  54.2283897
  21.5392170  63.4149055  52.8818474  48.9732895  28.7814522  85.1604919
  49.3279343  28.2576523  85.8788910  48.1609917  28.3368301  84.9181824
  58.3856773  50.9429054  26.8172970  57.5148430  50.7215157  26.4873428
  58.9494324  50.9129791  26.0443058  16.8971481  54.3379288   4.7991490
  16.6603432  53.6331482   5.4020076  17.8051815  54.1529961   4.5593414
  83.1757660  23.6880932  57.8327217  83.1464615  24.3760948  57.1678696
  82.8302765  22.9127102  57.3903999  63.3556099  30.3762970  15.9524784
  64.2907944  30.1833935  16.0191994  62.9240074  29.5642033  16.2179146
  60.1028328  18.9031277  86.1434174  60.2505646  18.7952213  87.0829773
  60.5240860  19.7354126  85.9287567  44.4915886  22.7580891  83.4233093
  44.1307602  22.1267910  82.8008194  43.7332840  23.2599754  83.7221680
  62.0136719  47.8706474  63.8059692  61.8910027  47.0801888  63.2802773
  61.1548615  48.0349464  64.1954346  65.9508820  44.1774254  43.8947372
  66.6166458  44.1369820  44.5812950  66.3915176  44.6017570  43.1585197
  72.8643875  36.8281136  16.7829037  72.4213104  36.2581902  17.4114742
  72.1574402  37.3224297  16.3680401  75.8295975   8.1773567   7.5077176
  76.1585388   7.9644914   8.3810549  76.5990372   8.4893970   7.0314541
  77.0262222  22.2605953  36.5336761  76.3712845  22.3846321  37.2206268
  77.3712616  23.1383877  36.3704071  22.9436989  42.6570892  55.4077682
  22.0999908  43.0295067  55.6640816  22.7654362  42.2053337  54.5829239
  52.0202255  48.4062538  24.3162575  52.2351151  49.3105278  24.0874672
  51.1312981  48.4530067  24.6681843  42.3877335   3.1198471  60.0240974
  42.0823669   2.2711225  60.3444862  43.2868576   2.9585173  59.7381248
   3.8764026  48.8851318  44.7283058   3.6266127  48.9027023  43.8044395
   3.8405261  49.8011932  45.0035782  38.5912094   3.9407425  84.1467972
  38.9645691   4.8209486  84.1923218  37.8887749   4.0116634  83.5004272
  52.5624390  43.6182442  87.3543091  52.5272827  42.7288628  87.0021820
  52.3146057  44.1773529  86.6179657  28.4605141  38.9889412   8.4291878
  28.8258915  39.3919563   9.2167854  27.6481628  39.4692650   8.2691746
  14.5076971  44.3069801  65.0458145  15.0822744  43.5763206  64.8172760
  15.1051340  45.0197067  65.2723541  55.7131042   3.9797676  33.4555511
  55.7839928   3.5920711  32.5832558  56.4507561   4.5874920  33.5082130
  68.8649979  27.1422501  25.5058022  68.4736633  26.9746876  24.6484737
  68.1310196  27.4196644  26.0540237  53.5511627  69.7411652  55.3398514
  54.3457489  69.7780914  55.8722992  53.3036728  68.8165131  55.3427353
  30.2736225  29.8037720  71.2282791  31.0190697  29.8889313  70.6339035
  29.5255833  30.1189289  70.7209854  21.8448334  65.6659927  87.0899658
  21.9835453  65.2451096  86.2415237  20.9369869  65.9680786  87.0619049
  13.6641073  19.7262115  88.0867767  14.0054588  19.1833515  88.7974167
  13.2823734  20.4853687  88.5274506  74.0540695  69.2871780  16.4394302
  73.4484558  68.5840988  16.6742706  73.8252869  69.5088196  15.5367870
   5.2139792  11.9368706  41.6186142   4.5590014  12.6285410  41.5246620
   4.9358835  11.2584782  41.0032463  11.5428391  58.5429077  12.0227566
  11.0194302  58.6935387  11.2356186  11.9100008  57.6671753  11.9022865
  30.6978836  52.2999420   1.8546977  31.3181114  52.7565689   2.4230642
  30.8912392  52.6282234   0.9765883  40.3377113  28.7808895  76.6500702
  40.6596603  29.2318726  75.8695602  40.0277405  27.9348240  76.3270874
  34.0302162  29.7926922   2.6705058  33.9199677  29.3961964   3.5347216
  34.6503525  30.5078907   2.8124623  76.7461243  25.8478222   0.5659029
  75.8509445  25.5355244   0.6976370  76.7811661  26.0912933  -0.3591518
  46.3641624   5.7611575  59.0309143  47.2513237   5.9799442  58.7457619
  46.0617142   6.5426497  59.4935417   8.2235518   1.4689320  66.4486313
   8.8863344   1.5038683  65.7589035   8.4291210   0.6725173  66.9382172
  21.9088116  67.0961685   1.5866654  22.6611996  66.7643738   1.0967120
  21.1495705  66.7091980   1.1507312  82.5019684  35.2321167  29.6056499
  82.0521164  35.6187668  28.8544025  83.4275742  35.4243011  29.4554825
  27.5734749  56.7489357  16.4827881  27.7366848  56.5354958  17.4015026
  26.9558201  57.4795761  16.5127163  73.7789917  21.8159161  14.4408875
  74.2602615  21.2765179  15.0683146  74.3736801  22.5387802  14.2407789
   0.5069129  23.2662754  17.8524570   0.8099768  24.1737175  17.8219204
   0.7863771  22.9491978  18.7112904  39.0798187   6.7035251  24.1221409
  39.4499474   6.1953635  23.4003334  39.4789658   7.5691595  24.0350208
  22.5658207   3.5223873   8.7526655  21.6621723   3.2155008   8.6787043
  22.8756313   3.5750833   7.8485246  74.7609940  48.0228157  36.4207039
  74.6854706  47.0914612  36.6283226  75.3360138  48.3739166  37.1006355
  57.8634987   6.0025792  80.1251221  57.8281860   5.8270402  81.0654221
  57.0658989   5.6040287  79.7769470  62.8563461  68.7945557  87.6025925
  62.1342430  69.4206314  87.5493774  62.7588577  68.2495499  86.8217621
  41.7685051  44.0795822  43.9625397  41.4232712  43.2443771  44.2779427
  41.7931786  43.9843216  43.0104103  77.1045456  26.7742710  24.5163727
  76.7851257  26.0007534  24.9809971  76.3979492  26.9987850  23.9109459
  84.4282303  38.3465233  74.2667313  85.1741104  38.9296150  74.4077988
  84.4486847  38.1539688  73.3293228  79.3635025  68.5483551  55.1714096
  79.6676941  67.7617950  55.6242104  79.7683640  68.4979324  54.3055115
  51.6631432  60.4340973  85.6939011  52.3603630  60.9823456  85.3339844
  52.1208191  59.6871376  86.0796661  20.8577328   2.2918108  71.4313965
  21.7942543   2.1329005  71.3134689  20.8052921   3.1963153  71.7401886
  23.8558941  43.9701347  82.8349762  24.0849533  44.8700256  83.0672760
  24.4179115  43.7652054  82.0877380  21.1829205  22.3411789  80.4384308
  20.4116783  21.9905281  80.8839264  21.9247417  21.9561863  80.9050293
   2.0229542  25.7475700   2.6668613   1.2072396  26.0822792   2.2942870
   2.0481417  26.1098347   3.5525036  38.9034615   0.7726637  25.2971954
  39.4728622   0.2651687  24.7188683  38.4389610   1.3706009  24.7115803
  77.5647736  66.3134918  69.0083694  77.6494980  65.5647430  69.5986557
  78.4664230  66.5790405  68.8274002  32.5290184  39.5813179  88.7705383
  31.6345463  39.2408714  88.7548752  32.5832634  40.1476212  88.0007401
  43.7897301  52.4958763  86.8528976  43.2600822  53.2460861  86.5829086
  44.5853539  52.8832970  87.2177505  31.1560898  67.8369446  68.2313538
  31.4363937  67.0292664  67.8008652  31.7747154  67.9509430  68.9528427
  69.7103348   4.3620944  84.3659286  70.4650421   4.2486954  84.9436722
  69.9318161   3.8605077  83.5813370   4.7841949  55.7768822  67.1121521
   5.5875840  55.3314896  66.8430405   4.0843768  55.2968330  66.6693954
  70.1307144  44.2048759  29.0563526  69.2993393  43.7352715  29.1236115
  70.0463791  44.7282372  28.2593517  81.3085785  38.2870140  38.0276184
  81.6448593  37.7352333  38.7337952  80.9454575  37.6691360  37.3931007
  19.6378345  64.6632538  41.1091232  19.8491306  65.5526810  40.8253975
  19.5249615  64.7346649  42.0569611  63.7263489  54.8409805  36.6453056
  64.1272888  53.9780121  36.5415459  62.7939186  54.6923370  36.4881172
  60.5481262  30.5577793  38.4143982  61.3487167  30.9593811  38.7520409
  60.8502350  29.9584332  37.7319412   9.5581818   4.0853643  33.5431671
  10.5112000   3.9990573  33.5663795   9.2350483   3.2847822  33.9565506
  67.4867477  17.4998894  17.3786831  66.9693832  16.6958027  17.3339252
  67.1331177  17.9705334  18.1334476  12.2447958  46.2719498  25.3252125
  12.1845474  46.1367722  26.2709026  12.9315109  45.6690292  25.0403557
  24.1315842   1.2997532  59.1719894  23.7928486   1.3422091  58.2777405
  23.5962887   1.9248538  59.6608047  19.1059341  39.6743622  12.4513941
  19.5447445  40.0556335  11.6909275  18.2925549  39.3109245  12.1013088
  10.0556555  47.2069778  75.7670364  10.6973181  46.5102081  75.6291504
   9.8191690  47.4928436  74.8846588  70.6012268  59.7661209  27.3980198
  70.6157150  59.1389084  28.1209488  69.6774521  59.8311958  27.1558685
   9.8777294  65.4293442  55.3001060  10.0389442  66.3711014  55.2424316
   8.9240551  65.3483429  55.2868423  64.4788742   4.2684369  56.6845894
  64.4195099   3.9403603  55.7873306  63.5711021   4.4320517  56.9403419
  73.4262390  50.9067001  67.3529358  73.0685654  50.3047905  66.7002411
  72.8922882  50.7585258  68.1334305  18.2358322   5.8331423  14.2371960
  19.0096416   6.2490611  14.6172781  18.5806980   5.2830572  13.5338440
  36.2252541   1.6097884  31.3543243  36.6652718   0.7622631  31.2886047
  35.3442230   1.3989140  31.6634312  37.9411774  10.4431658  84.0190964
  36.9874115  10.5158024  83.9831924  38.1472054   9.7072525  83.4427109
  13.5114546  49.8396568   2.4159067  12.9303732  49.0790596   2.4242380
  14.3247967  49.5240135   2.8097026  33.4708900   8.9292793  42.8140488
  34.1336174   8.5067215  43.3603706  32.6366119   8.6625948  43.2001724
  52.7737923  39.1463089  26.6456852  52.4843102  38.2781105  26.9261475
  53.0011635  39.5972366  27.4588261  49.2731514  41.2139702  37.6184006
  49.6441917  40.8047409  38.4001274  48.7781219  40.5135612  37.1934280
  75.0627823  43.3726540  48.3847694  74.8735733  42.7210350  49.0599174
  74.3263779  43.9826584  48.4275703  38.5101242  43.5116348   4.2414718
  38.7211113  43.0094147   3.4543934  38.0210266  44.2684937   3.9187057
  28.4698124  24.8746414   3.0695674  29.0101357  24.7413483   3.8483582
  28.7555351  25.7193031   2.7215192  30.3066673  62.0187454  83.5979156
  30.2409611  62.1822090  82.6570663  29.4029198  61.8782806  83.8803024
  84.6902618  51.0700531  26.7281494  84.2243652  51.2534027  25.9123363
  84.7175064  50.1145859  26.7788754  21.3222160   1.1945254  41.3690224
  21.8051968   1.0681512  40.5523262  21.3115635   0.3288728  41.7773895
  84.5002823  16.7714958  17.9852200  84.8980560  17.3262234  18.6562557
  84.6164932  15.8793983  18.3121567  23.0631142  70.2108994  83.0481415
  23.6059093  69.9545441  83.7937164  23.6251831  70.7863388  82.5293121
  42.3483582  17.8214340   8.7199345  42.0347137  17.6549091   7.8310428
  41.8993111  18.6238098   8.9859819  82.8808975  16.6097794   3.2948923
  82.5174561  15.7953653   2.9472210  83.2067642  16.3749542   4.1637402
  60.3841019   3.8764446  33.5585251  60.4221191   4.6036239  34.1798134
  59.5871124   3.4015434  33.7941284  32.0510178  30.8116684  84.8812637
  31.6094208  30.0031185  85.1410141  32.3202019  30.6572971  83.9757614
   1.0950544  60.9865723  48.9162445   0.5167505  61.6774216  49.2395439
   1.7585602  60.8904190  49.5994301  84.9834671  54.4404716  13.1075516
  84.9518814  55.3084373  13.5098858  84.1254044  54.0590477  13.2932158
  42.5445442  68.5402527  37.6543617  42.6839333  69.4807510  37.5436096
  43.4087944  68.1947021  37.8777351   4.2514381  62.0157280  15.1566553
   3.5970829  62.3536530  15.7680950   4.0609183  61.0797005  15.0951252
  42.5192261  67.6273270  10.7356882  42.9916382  68.4442596  10.8959665
  42.2364922  67.6892014   9.8232937  45.1232109  46.5425148  39.4698830
  45.8082237  46.1984825  40.0431480  44.9756203  45.8470535  38.8289604
  55.0707054  62.9873123  25.6739159  54.9137726  63.4147263  26.5158901
  56.0220566  62.8926430  25.6270046  72.6628647  71.4976807  57.4106789
  72.3796616  70.6015396  57.2291565  72.1259613  71.7726364  58.1538925
  18.2771492  56.1091423   7.0432520  18.6330986  56.6805725   6.3628116
  18.3972492  55.2238808   6.6995697  35.0602036   0.6492335  26.2576962
  35.8106155   1.2425352  26.2909946  34.4747581   1.0397094  25.6088409
  64.1917343  46.5620689  82.7184601  65.0729446  46.8317451  82.9772415
  63.7320061  46.4201164  83.5459442  28.9717426  35.1463585   4.0363684
  28.5357018  34.5972099   4.6879330  29.6878681  35.5634918   4.5153208
  24.8232155   3.6119697  57.2943687  24.9943943   3.1462913  56.4757881
  23.8878956   3.8132343  57.2643509  33.1388359  29.3018837  87.9225159
  32.5884972  29.4953327  87.1636124  32.5345993  29.3099976  88.6648560
  57.8607674  31.9611855  34.1629105  58.0168648  31.9729118  35.1072235
  57.5629845  31.0699749  33.9804230  44.3870735  41.9066010  34.7663651
  44.6852379  41.9476395  33.8577118  43.5020981  42.2707176  34.7447243
  81.9392166  14.2427015  76.4237823  82.8331757  14.5799046  76.3657761
  81.4420395  14.9511967  76.8325348  52.5213470  51.0943985  23.6228085
  52.9058075  51.4763260  24.4118290  51.7006798  51.5718002  23.5010395
  70.0359116  40.9056320   5.2874112  69.8805161  41.7094612   4.7914791
  70.3437042  41.2072487   6.1421189   5.6896076   8.8735085  64.9322281
   5.2322059   8.7754698  65.7673340   6.5032039   9.3252401  65.1563492
  82.4674606  26.4347057  82.9538193  83.1161575  25.8668575  83.3697128
  82.2055283  27.0444412  83.6436310  12.1504612  52.9619789  41.3393631
  12.5815783  53.7264023  41.7215004  12.8553362  52.4816895  40.9049644
  57.6070786  49.9906921  88.6314697  58.0536499  50.8082695  88.8514023
  58.3104591  49.3963661  88.3701935  34.5653419  42.2888222  11.8898973
  35.2411156  42.7058144  11.3554029  34.8013115  41.3611679  11.8934460
  66.2965698  29.8729610  24.9857979  66.4251938  29.6547585  24.0627174
  66.0065765  29.0538921  25.3873711   1.3743834  58.7365532  15.7099285
   0.9229183  59.3371582  15.1169004   2.2942593  58.7904091  15.4507771
  19.5799046  63.3883553  64.0189209  19.3459301  62.6370773  64.5639572
  18.7744865  63.9023399  63.9610138  67.4289093  38.8612328  33.5032997
  66.7973785  38.2843170  33.9329071  67.7520523  38.3515930  32.7602768
  60.3465576  25.8760757  34.2404709  59.7723770  26.6219215  34.4144363
  60.7149277  26.0541153  33.3751183  72.9306107  68.4157791  84.3223343
  72.0499191  68.2727890  83.9756775  73.3047333  67.5377579  84.3953857
  33.6435127  48.9784279  68.0722580  33.2977104  48.2807159  68.6289062
  34.2124023  49.4864731  68.6506042   7.6431217  13.2281952  19.6773891
   8.5239439  13.2353554  20.0520000   7.2456040  12.4257307  20.0154152
  24.3607483   3.9844573  83.3813248  23.9545021   3.2336562  83.8143311
  24.5114231   3.6902108  82.4830246  61.7679901  48.7302132  23.0226650
  62.1427917  49.2595940  22.3187389  61.1280823  48.1685791  22.5852680
  30.9132862  59.6650925  55.6307602  30.0136280  59.9733467  55.7395134
  31.4548149  60.4031143  55.9105873   0.5775179  26.1241531  60.1872597
   1.2737887  25.4775963  60.0714912  -0.0724573  25.6811295  60.7326889
  22.5678463  34.2925873  75.0397415  23.0648174  33.5089569  75.2746353
  22.5380077  34.2794762  74.0830994  62.9997330  51.0014420  18.2260666
  62.4172668  50.9269562  18.9819870  62.4904480  51.4886093  17.5783577
  24.3524036  34.4928780  62.8669662  23.7737427  34.7259598  62.1409798
  25.1886501  34.2858696  62.4497490  34.7786903  68.6860886  46.2923584
  34.2518120  69.3527527  45.8516922  34.2369118  68.4001846  47.0278625
  81.6407623  45.8666992   2.4688723  80.9056015  45.2783051   2.6407962
  81.2362366  46.7250786   2.3432894  36.1040001  62.7063255  68.3402176
  36.3522224  61.9315262  67.8359299  36.9367142  63.1128960  68.5800552
  22.8749199  44.4170570  62.2096138  23.7145920  44.6735344  61.8282967
  23.1086483  43.9541016  63.0141449  49.4521027  48.1229553  69.6848602
  48.5898781  48.3553429  70.0295334  49.4231300  47.1710014  69.5890579
  56.7255020  61.6715965   4.4099345  57.5363426  61.3157654   4.0464091
  56.1651154  60.9064865   4.5395751  31.9503994  40.8289375  14.3993521
  31.4180927  40.9805489  15.1803102  32.8537712  40.9000015  14.7077370
  56.7084198  13.3164186  76.8197021  56.3338356  13.5263920  75.9642334
  56.3101006  12.4788723  77.0565338   3.7202330  44.0002899  83.4530716
   4.4693203  43.5278473  83.8162460   3.9044073  44.9209137  83.6395416
  72.7428207  48.2909737  28.0794678  73.4618530  47.7322464  27.7844448
  71.9838028  47.9874763  27.5814514  23.4573402  11.2724380  12.3565359
  24.2323341  10.7363148  12.5244217  23.2724171  11.1415215  11.4265375
  28.8713379  15.5904255  78.5633774  29.7010345  15.1132011  78.5731049
  28.2039452  14.9126959  78.6706161  49.6008644  32.4967003  26.0526352
  49.1617889  31.7252903  26.4109268  50.4834213  32.1929550  25.8403435
  53.0887222  61.0728722   3.2550416  53.4946136  60.4383392   3.8456790
  53.4550247  60.8677711   2.3948157  10.7113161  52.9707680  37.2283859
  10.4428740  53.8487473  37.4991684  10.3674459  52.3940964  37.9106178
   4.7714820  53.1742973  27.9463997   4.4580836  53.7445145  28.6484432
   5.1383991  52.4154434  28.3999920  45.3135300  39.8531876  68.5420837
  44.7104225  39.4568748  69.1709137  45.2635689  39.2863846  67.7723618
  45.2202110  67.3872147  63.8228035  45.9961395  67.6199188  63.3128929
  44.8158951  68.2270889  64.0404510  46.3807373  68.6271667  67.9776688
  45.7524605  69.0764313  67.4122772  46.2338676  67.6968079  67.8070908
  64.8198547  69.3868790  51.9642143  64.3769913  69.3843994  52.8128014
  64.1119003  69.3119125  51.3243599   1.6387166  21.4783707  33.7770348
   1.6960768  20.9637756  34.5821037   2.2949100  21.0908718  33.1978226
   2.3381777  45.3874435  73.9296799   2.0769923  45.4196625  73.0093613
   1.9599603  46.1784019  74.3138199   4.3178754  69.5850983  51.2236252
   4.5717430  70.4376297  51.5771408   3.8421969  69.7914658  50.4190292
  35.5173378  40.7850533  64.1254883  36.4639931  40.8885841  64.0287704
  35.4035378  39.8788795  64.4120712  12.0305843  49.8390045  39.9706650
  12.5784340  50.5297852  39.5979538  12.5129881  49.0307350  39.7968330
  35.1922035  25.4768124  79.0992432  36.1122627  25.4607162  78.8356857
  34.7662544  26.0343266  78.4481049   4.9370809  22.6417675   1.5719438
   4.9302535  22.4350510   2.5065308   4.0162954  22.7813053   1.3507744
  31.3959675  22.5861378  82.6859131  31.8145409  23.2483349  83.2359314
  31.6159115  22.8443565  81.7908249   3.4575343  19.5396252  14.0694370
   4.0508943  19.7870770  13.3602657   4.0321307  19.3827744  14.8187494
  60.9316444  44.8402939  35.6473541  61.3473396  45.6905022  35.7907982
  61.4718933  44.2232246  36.1408958  79.7488861  36.3502579   4.7158198
  79.3944244  36.8038483   3.9510684  79.0795898  35.7047424   4.9429483
  81.1595078  13.1107512  83.0591583  80.5734863  12.6255264  83.6399918
  81.6646881  13.6744490  83.6450500  11.6899271  15.3961267  14.7940769
  11.3356247  15.1505442  13.9394484  12.0340424  16.2800541  14.6656733
  31.2873192   3.1520553  40.6421204  31.7272129   3.4115868  39.8325691
  30.5287628   3.7330403  40.6993866  14.1825438   8.4262667  87.2165680
  14.4908781   9.2552280  87.5826035  14.5791798   8.3864403  86.3463211
  54.9173126  46.9528923  66.3872528  55.4897461  46.1857338  66.3827209
  55.2200623  47.4732399  67.1314392  12.2489433  65.4791489  56.4955521
  11.9132557  65.9868088  57.2343559  11.4903812  64.9902344  56.1765251
  68.7775040   5.1010718   3.5849893  68.5625763   5.9771905   3.9050782
  68.6269226   4.5278435   4.3366323  23.2955208  61.8609238  29.3444366
  22.5484772  62.4398308  29.1927013  24.0570545  62.4401321  29.3159046
   6.7585721  25.6876469  79.2188187   6.4798007  26.2457409  79.9448013
   7.3980660  25.0907707  79.6074295  25.1620903  15.0173616  14.1106653
  24.9769039  14.0785856  14.0854225  24.3969994  15.4234524  13.7032862
  50.8464622  43.9132004  81.8729095  49.9437447  44.2286072  81.9158630
  50.8370399  43.0923271  82.3651657   2.7998397  23.9656487  34.7895737
   2.4202757  24.6370583  34.2226753   2.1171510  23.2985096  34.8609467
  66.2668457  44.6248055  12.1356049  65.3511581  44.8832588  12.0309591
  66.2680359  44.0527077  12.9030237  83.0134964  62.6332893  35.2419014
  82.8227234  62.9849434  34.3723145  83.3532562  63.3810959  35.7334137
  41.4937439  24.2860832  74.8916245  40.8892899  23.5619698  75.0544968
  41.6604042  24.2517014  73.9496689  29.8401585  39.9477310  30.3483276
  30.7387199  39.6792908  30.5400524  29.9266701  40.8250961  29.9755230
  68.9881668  28.1541290  30.9511299  68.4148941  28.3221455  30.2032261
  68.9579544  28.9627342  31.4624767  86.0423050  71.7670135   9.2988148
  85.6270599  71.2117462   8.6389055  86.8911209  71.3546371   9.4590912
  37.9943008  58.2159882  88.2355270  37.3348961  58.0485764  87.5621872
  37.8471603  59.1258392  88.4938889  44.6029015  58.7636871  35.0177422
  45.4526558  59.1605949  34.8263931  44.4141464  59.0247345  35.9191055
  28.9975071  44.6899033  21.5256081  28.8320103  43.8286629  21.1420593
  28.5608768  45.3032494  20.9345112  72.2046585   1.1581728  12.1072273
  72.1381836   1.8826200  11.4851437  71.6544876   1.4239355  12.8440523
   2.9494832  42.5871277  56.6345406   3.7879748  42.2660789  56.9663391
   2.3376319  41.8686104  56.7945557  64.6992874  53.2516975  25.1813889
  65.1499481  53.0212860  25.9938221  64.9276886  52.5487671  24.5731487
  69.9345779  48.5829163  27.1996555  69.4890442  49.2675819  27.6986237
  70.3168182  49.0419044  26.4516869  80.2433014  26.2092705   6.0215759
  80.2471466  25.3382607   5.6246376  79.6555710  26.1275997   6.7726650
  33.4868279  64.4797974  60.5296822  32.9061546  64.1755142  61.2271500
  34.3687592  64.3459854  60.8768463  56.8874207   4.4604406  73.3955078
  57.5441513   3.9836063  73.9030228  56.6904221   3.8840430  72.6571350
  62.6654243  36.3141403  79.3437119  62.9820557  37.0955887  79.7968292
  61.7827454  36.1786003  79.6883087   7.6499453  66.7177582  38.6851234
   7.1712689  66.7955170  39.5103836   8.3884983  67.3193817  38.7790146
  58.1483078  10.7067680  11.8820620  58.9027405  11.0386496  12.3687992
  57.6358910  11.4877090  11.6728010  15.5062561  29.5565166  60.0937424
  14.9097767  29.3084660  60.8000832  15.3716831  30.4980850  59.9861832
  76.3848724  51.4510498   2.1577406  75.4934311  51.3091621   2.4762378
  76.5012283  52.4007111   2.1866586  77.3338547  44.6836700  26.8371010
  77.2679520  45.5481339  26.4314022  77.1237946  44.0714836  26.1318817
  32.9385796  47.9198608  86.5878754  32.7132492  48.7333984  87.0391083
  33.5238495  47.4644623  87.1931000   1.4735489  57.3678093  53.1210938
   1.9346514  58.1394577  53.4499969   2.0535226  56.6353607  53.3293762
  21.3398361  66.2418900  79.9695435  22.2176361  66.3913040  80.3207932
  20.9889469  65.5254364  80.4984970  12.1587696  60.2221527  86.8652496
  11.4068823  59.8766518  87.3464203  12.9186068  59.9453201  87.3773422
  70.0220795  56.8447914  -0.0941508  69.7743454  57.0470619   0.8080372
  70.0291443  55.8883591  -0.1318943  30.9398251  51.7883034  78.3536758
  30.9168053  50.8473434  78.5277405  31.4629459  52.1513557  79.0683517
  17.2892628  20.8109417   9.6727428  16.5154572  20.4205914  10.0790472
  16.9696484  21.6234093   9.2803459  63.4679108  53.4133644  71.0906906
  64.1316986  52.7258568  71.0363922  63.9186096  54.2051659  70.7971802
  48.8845406   5.8695726   7.8513598  49.8266182   5.8331642   7.6858234
  48.5823517   4.9717727   7.7139988  29.7631378  62.3419418  48.9672089
  28.9177475  62.5602379  48.5749168  29.6130772  62.4055939  49.9104271
  86.6951141  17.8731823  39.3652954  86.0819092  17.9489212  38.6342163
  87.4072418  17.3313351  39.0254402  64.1371460  33.6955719   9.7961149
  64.8755264  33.1708565  10.1054773  64.4531097  34.5984001   9.8322306
  39.8357773  15.8115015  86.5258636  39.8569145  16.2879620  87.3557892
  39.8257217  14.8886271  86.7797012  40.3435745  50.8313065  59.0064392
  41.0934639  51.2945366  58.6331940  40.1626740  51.2902031  59.8267593
  70.2857590  33.6277313  30.1304989  69.9190979  32.8084106  29.7980747
  70.1354904  33.5915298  31.0751362  41.3241081  34.4360085  72.2584610
  40.4871445  34.3515091  71.8017502  41.7631378  33.5983315  72.1108627
  41.1638451  -0.2216418  23.9764309  41.4928513   0.1267991  23.1478310
  41.7159729   0.1859159  24.6437283  53.1354103  56.7159538  41.3257446
  52.2338562  56.8813286  41.6015816  53.1217613  56.8385010  40.3765221
  50.5721817  57.6194572  42.0711899  50.1518478  58.3130417  42.5796127
  50.3214493  56.8102837  42.5168381  53.9123383  55.6990433  86.6142654
  53.8891792  55.1507263  85.8300171  53.2223129  55.3444099  87.1749191
  68.7908783  50.5717697  86.5573273  69.3232193  50.0906982  87.1908951
  69.3936157  51.2076530  86.1718597  69.4205093  33.2201920  76.3445282
  69.6961517  32.4546013  76.8486328  69.4095840  33.9349022  76.9811554
   2.8268378  20.1676846  10.7631302   3.1510444  19.5312634  10.1258774
   1.9960936  19.8012733  11.0661793  65.2820129  48.6891556  24.7658119
  65.9549637  49.3389282  24.9687099  65.1131287  48.8032684  23.8305645
  36.5140839  37.7851524  63.5769958  35.6038055  37.6906242  63.8575096
  36.7112617  36.9656448  63.1233940  59.3915443  62.9760780  72.1374512
  58.4556580  62.8169556  72.2600327  59.5450172  62.7992172  71.2093353
  56.2147408  48.6481972  68.6976166  56.5121765  48.2858086  69.5321426
  55.2636452  48.5417786  68.7156601  48.4353561  24.1230240  80.9586487
  48.5941963  24.9766178  81.3616104  47.9887733  24.3256149  80.1366043
  34.3766975  61.0010986  61.3329887  34.5883408  61.9341965  61.3608208
  34.8884277  60.6612282  60.5989227  26.6218910  51.3775978  44.5783882
  27.0279579  51.8678093  43.8635216  27.0667210  51.6902504  45.3661728
  31.3069019  26.0857258   8.1933708  32.1982460  26.1611423   8.5340328
  31.0557423  26.9840851   7.9786592  59.6056862  50.7216263  13.5960283
  59.4286041  50.9367828  14.5117702  59.1635971  49.8841019  13.4569616
  42.1002884  47.9346924  55.5491676  42.7236366  47.9699936  56.2747192
  42.6154671  48.1745148  54.7789040   5.9387197  63.1838722  16.8105164
   5.8032093  62.7363205  17.6457195   5.3496194  62.7383232  16.2016850
  61.3294029  36.9004669   3.1770389  61.7391319  36.7209435   2.3307962
  60.8990402  37.7474022   3.0599148  50.0601463  21.5589504   4.2851610
  50.3553619  22.3571262   3.8469882  49.2718048  21.8235435   4.7592282
  47.8779793  41.6789551  54.0880470  48.1236229  42.5706520  53.8415451
  47.4007187  41.7809563  54.9114838   9.1168880  31.2159424  60.4677773
   8.7183828  30.7637920  59.7241440   8.4097452  31.7492619  60.8307533
   8.5981369  65.4747391  86.3365402   9.4358816  65.7559280  85.9686432
   8.5354023  65.9386597  87.1714478  21.0238991  43.4041901  78.4196548
  20.5541363  44.2002220  78.6684265  21.4925194  43.6426964  77.6198196
  57.6689949   3.1749582  49.4648705  57.0992813   3.9163849  49.2600632
  58.5500488   3.4848325  49.2552147  25.3526859  63.4921112  28.5362015
  25.7504997  64.0134811  27.8389568  25.1473236  64.1269379  29.2225380
  60.7372551  55.8479195  12.8854561  59.9026222  55.5505066  12.5232840
  60.7295570  56.7964668  12.7572756  20.3344631  43.1652489  55.1285706
  19.5338669  42.6563644  55.0008278  20.2136536  43.9426842  54.5833817
  64.9978104  47.9464798  13.4573393  64.5564575  47.2428780  13.9331331
  64.3293610  48.2912598  12.8652821  45.0890160   5.5724545   6.5704632
  44.4269409   5.9850483   6.0157995  45.8485069   5.4656153   5.9977555
  48.8839684   3.9896636  14.0670576  48.0512962   3.5205977  14.0135536
  48.6545219   4.8440361  14.4326162  71.5374985  28.2056866  33.7064781
  71.7074585  29.1115913  33.4482498  72.4026489  27.7967396  33.7290764
  30.2279720  52.2469292  87.4592438  30.2545662  52.9878731  88.0646591
  29.7113037  51.5829887  87.9158249  48.7560120  31.4434986  85.6589508
  48.8672447  30.5021839  85.5255966  48.0100670  31.6771717  85.1065140
   3.7501445  66.3670349  63.4533691   4.1793780  67.2202530  63.3899994
   4.4329171  65.7376099  63.2212677  75.3209991  59.9516869  16.7290230
  75.5886307  59.2251053  16.1662769  76.1225815  60.4567146  16.8655777
  41.8097229  13.7634163   7.3762574  41.0374908  14.1096897   7.8234534
  41.5755806  12.8613873   7.1577311  20.1199951  38.4309998   0.3559212
  20.2235737  38.5741768  -0.5848251  21.0126705  38.3098564   0.6794722
  44.9210396  29.7508030  38.0836487  45.8648720  29.8905258  38.1603966
  44.6854820  30.1588383  37.2504311  27.6771488  61.3032036  10.4302759
  28.2695141  61.9651947  10.7867928  28.1085682  60.4696503  10.6181583
  13.3660631  30.6040783  65.4762039  13.0349598  30.2915554  64.6342239
  13.7824707  29.8371239  65.8694153  17.9816685  44.7221222  72.0893173
  18.4467716  45.5469589  72.2291565  17.4856415  44.5869827  72.8967361
  76.1062393  31.8384228   7.0429344  76.6461945  31.1492252   6.6560411
  75.6538773  32.2347107   6.2982473  67.8266296  22.7313347  23.9559975
  67.0800476  22.7897110  24.5521870  67.4523697  22.4149609  23.1337624
  39.5073166  27.9682369  63.4659157  39.4042587  28.5480175  62.7112846
  40.0474091  27.2473507  63.1421051   0.4974708   5.5913033  81.1201553
  -0.0067342   5.6206150  80.3070374  -0.0113846   6.1178560  81.7366257
  81.3460464  57.5618286   7.1919131  81.8056030  58.3692436   6.9614367
  81.5864487  56.9439735   6.5014834  47.9764290  45.9726028  23.5277233
  47.1065941  45.5748329  23.5652142  48.5089951  45.3390388  23.0468884
  58.5849075  40.2382202  54.5657539  58.8120728  40.5206909  53.6798401
  57.6370468  40.3599586  54.6203041  64.4942093   5.1946568   0.0188474
  64.4156952   4.3339729   0.4302972  65.4136810   5.4333482   0.1364004
  60.7512398  37.6135406  15.3832598  60.6031342  38.4140091  15.8867922
  61.5852737  37.7618065  14.9375715  52.4505119  38.6283607  51.6403122
  51.7205086  38.0194016  51.5285339  52.1709137  39.2103004  52.3469963
  13.5019999  44.0745850  17.1772442  12.7384548  44.5586319  17.4917736
  13.5333042  43.2923965  17.7280922   3.3209541  15.8834591  10.2263956
   2.7914433  15.1081419  10.4127636   3.4770679  16.2787075  11.0840893
  55.0423393  59.9819794  27.3806267  54.1767769  60.2383194  27.6989460
  55.6219444  60.1128426  28.1310692   5.6417737  67.3220596  83.9679184
   6.2536993  67.1748276  83.2467346   5.3761282  66.4435654  84.2397614
  22.3428059  55.7564201  24.1461372  21.6859093  56.4515724  24.1846523
  21.9345055  55.0159378  24.5946999   9.6281729  65.7610855  62.8222008
  10.1956034  66.5135269  62.9897652  10.1843071  65.1424637  62.3486443
  25.6410255   1.3827041  25.9746819  26.3239861   1.8647667  26.4409599
  26.0969238   0.6349940  25.5882645  44.2207413  27.1307182  69.0657959
  45.0032616  27.6114883  69.3355179  44.1956825  27.2286549  68.1139450
  80.1010818  29.2552299  71.3255692  80.3339233  30.0919418  70.9231644
  80.6077881  29.2306061  72.1372833  27.1774883  49.7804756  25.0459118
  26.6677494  50.0589371  25.8067398  26.5963802  49.1844215  24.5734062
  11.5479469   7.5340414  62.1765480  11.6002798   8.2137041  61.5045700
  12.2969065   7.7039337  62.7478867  78.0000153   9.5792370  46.4093018
  78.2015228   9.4586763  45.4813499  77.4798126  10.3821926  46.4390755
  19.8642502  14.7368813  14.0840311  20.2506275  14.5503845  13.2283659
  19.0803833  15.2494087  13.8862982  65.2381058   6.9630952  33.5612144
  65.7319489   6.6219058  34.3068275  65.0763245   6.1971555  33.0104027
  30.1879578   3.2315147  25.6781235  29.2741680   3.5152583  25.7047329
  30.2605782   2.7337711  24.8637466  83.7712250  22.2731209   7.6746707
  83.1899414  21.5129509   7.6526465  84.0009460  22.3722782   8.5985889
  21.9166756  70.6691818  42.7449417  22.7747955  70.6611710  43.1689682
  21.3001118  70.4653854  43.4481850   3.5653892  38.0282669  19.3554649
   3.8003953  38.4930687  20.1585598   4.1697769  37.2867508  19.3222980
   9.9553204   6.1370444  58.1947250   9.3031445   6.5242176  58.7786751
  10.4736462   6.8809280  57.8877907   7.2921853  42.0954475  17.1908894
   6.9562879  41.8617096  16.3255749   6.9042492  41.4492683  17.7809677
  23.9448605  66.6114807  36.3683624  23.2904396  66.0311203  35.9795876
  24.1326199  67.2534714  35.6836548  17.3372574  24.7263489  15.2770729
  17.7245560  24.1886158  14.5863676  16.3928547  24.6338768  15.1514368
  45.0682144  27.2407532  61.1726189  45.4891663  28.0708103  61.3963051
  45.6748924  26.5715332  61.4893417  51.2597084  38.4517784  37.0191383
  50.5824966  37.7827835  37.1194611  51.0900536  39.0724792  37.7277832
  24.0742664   3.6896224  74.4845352  23.1521702   3.4570043  74.5934372
  24.1150227   4.1119113  73.6264877   0.8662151  54.3850708  56.2009888
   0.4334196  54.3850441  55.3472214   0.4019515  53.7166557  56.7048874
  70.0120392  43.9193153  13.9146986  70.5560837  43.1601334  14.1241941
  69.2439346  43.8263817  14.4782724  71.5543442  29.1228790   4.2803135
  71.4527054  28.8079929   3.3821225  72.4452133  28.8706589   4.5231714
  60.9684563  44.4765167   0.3729960  61.8279839  44.4578438  -0.0478365
  60.8893051  43.6205750   0.7940977  77.6363983  42.9994888   8.8913765
  77.5151596  43.9483871   8.8578930  77.5789413  42.7833824   9.8220901
  54.3062897  18.4651375  75.8095474  55.0487862  18.9899158  75.5103149
  54.6988487  17.7847080  76.3564911  65.8527222  19.9561539  23.6719246
  66.2235794  19.3347473  24.2984619  66.5100784  20.0187168  22.9789581
  69.1379623  34.2836456  47.7685165  68.7447205  33.9692383  46.9544220
  69.5409775  35.1192398  47.5327492  75.3959351  28.4175816  41.7949638
  74.4917755  28.5329266  42.0872231  75.5234070  27.4690380  41.7792397
  53.7340317   3.5244324  35.3765602  54.2271919   3.6905222  34.5731697
  54.1641426   2.7646084  35.7688675  83.0112534  60.3113441  49.0504379
  83.3815231  59.5320053  49.4648781  82.0775528  60.1176567  48.9672279
   7.2376585   0.9506906   6.2446690   6.9429898   1.8165332   6.5270138
   6.4611044   0.3964169   6.3219748  14.4500160  50.3553276  67.3999863
  15.1074696  50.1706238  68.0707092  13.8292665  50.9443703  67.8288498
  84.1612167  13.9369287  79.2736664  85.1172714  13.9030895  79.2413788
  83.9565811  14.8698349  79.3372574  82.7445297  23.2854195  77.4658356
  83.4839630  23.7465057  77.8618927  82.1952286  23.9804764  77.1033401
  18.4404049  70.9312286  46.5204468  19.2439365  71.3487244  46.8307114
  18.4899559  70.0365524  46.8571014  31.1870880  64.2163086  73.7039261
  32.1421204  64.1711197  73.6581039  30.9660053  63.7819405  74.5277481
  54.8306694   8.7529392   6.8586907  54.4110603   9.5869293   6.6474528
  55.2432327   8.9011431   7.7096057  51.0851135  33.2038879  56.5858269
  50.4483566  33.2560463  55.8730507  51.6301613  32.4485626  56.3652840
  60.9168625  -0.2133854  18.8314133  61.3602448   0.6298468  18.7386551
  60.9052315  -0.3753845  19.7747345  23.6275024   0.8216136  87.9932861
  24.1028728  -0.0085743  88.0255890  24.2701931   1.4532115  87.6703873
  66.2948456   7.6989713   2.2716069  66.2092438   8.3956156   1.6207682
  66.1548996   6.8911419   1.7775832  38.4333649  40.2715378  10.9103765
  39.0835533  39.5737495  10.8292704  38.8983421  40.9819832  11.3522949
  10.4553146  28.1406174  17.2154770  10.4997845  28.9222260  16.6647110
   9.7827797  27.5966835  16.8055210  49.5368652   5.3061099  36.0173378
  49.5921211   4.5911870  36.6514206  49.6179428   4.8774085  35.1653557
  60.1659737  41.0124779  73.3060608  59.3339577  41.4258652  73.5364838
  60.0011787  40.0741997  73.3993759   5.6596231  44.8116722  31.6508961
   6.4897470  44.8275795  31.1745834   5.8116679  44.2067909  32.3770027
   4.1662884   5.8953857  37.5475807   4.1040430   5.2406535  38.2430534
   4.7571025   6.5618691  37.8982544  64.4777679  29.4440804  81.2499313
  64.6344986  29.9071369  80.4269791  63.8367233  28.7692051  81.0266876
  72.9746780  32.5346184  -0.0458702  73.1519012  32.3759384   0.8812997
  72.0678940  32.8404007  -0.0674783  13.4529047  56.9289474  47.0957108
  14.3041420  57.1407967  46.7126350  13.1539326  57.7509804  47.4844398
  14.9216003  70.3761902  12.1816196  15.7809095  70.7081757  11.9216099
  14.9215040  70.4341660  13.1370621  18.1046886  54.3011513  52.2077789
  17.3138905  54.1842041  52.7342720  18.8209572  54.0570335  52.7939529
  49.5296631  17.7868595   2.2120037  50.4661140  17.6278515   2.0936656
  49.1439857  16.9128342   2.2717397  54.4307098   8.3069096  26.4648495
  54.9984741   8.3513412  27.2342014  54.6219711   7.4538860  26.0749760
  58.9439774  21.2365780   5.8297691  59.1300850  21.9646053   5.2368340
  58.0964584  20.9006977   5.5380020  81.2083359   8.5299997  46.9408379
  81.1725159   7.5899186  46.7642136  81.8831558   8.8596573  46.3473930
  47.2814407  38.2875977  19.4844971  46.7974052  38.4275894  18.6706524
  48.2019539  38.3156166  19.2235413  58.3771172  38.8215828  19.2770672
  57.4937859  39.1594238  19.4247971  58.3347664  37.9082985  19.5605278
  44.2425232  57.3823700  79.7279510  43.7949295  56.7531967  80.2936630
  44.5214615  56.8675003  78.9707565  67.8995438  12.2709799  12.5644693
  68.2829361  12.5032806  11.7187281  67.9773407  11.3179884  12.6090527
  65.9530029   1.4820273  87.2244492  66.1288834   0.8512685  86.5262833
  66.7650681   1.9822501  87.3054733  65.3227692  62.3977509  41.1969070
  65.5631332  62.8295135  42.0166855  64.4712982  61.9991798  41.3768196
  51.9537888  44.9386978   0.7073578  51.6599960  45.7726784   0.3407622
  52.4210358  44.5125465  -0.0111876  83.1997375  50.6450577   7.0702167
  83.0996857  50.4440918   6.1397138  84.1138535  50.4368668   7.2632775
   1.2747442  32.3682060  52.6102638   1.3105005  32.8285294  51.7717781
   2.1882432  32.3085594  52.8898926  63.7661667  17.2119293  79.4860382
  62.8867683  16.9465523  79.7552261  64.2166138  17.4148064  80.3059006
  67.6134338  38.2335739  59.3288193  67.7392273  38.8010406  58.5682983
  68.0460968  38.6957932  60.0467262  73.6931458  12.7453289  11.7329092
  74.0282211  12.6832132  10.8384285  73.2273026  11.9207745  11.8719702
  12.1259823  48.7937126   6.2124252  12.5962925  48.1546059   5.6770926
  12.8095570  49.2282448   6.7224660   1.3739201   1.5028691  41.1783180
   2.2820342   1.3464170  41.4373207   1.4093056   1.5979215  40.2265053
  81.1079941   2.1248960  58.0307274  80.9138641   2.0666995  57.0952263
  81.9091873   1.6129653  58.1413803  71.9903412  12.9433231  39.6482544
  71.0958099  12.8237848  39.3292732  72.2351913  13.8199158  39.3518295
  30.3237095  51.6489830  41.4994774  30.7783890  52.4468155  41.7695808
  30.8713245  51.2850533  40.8038406  35.4412651  61.8865700  48.6068878
  35.4172783  62.0369987  47.6618843  34.9936180  62.6451416  48.9816055
  73.7552490  37.5372772  42.9210358  74.1684723  37.6848259  42.0703239
  74.2285843  36.7921944  43.2912178  83.9614182   9.4947996  45.9231148
  83.3719788   9.9910889  46.4909973  84.8299408   9.8516598  46.1090240
  28.6576481   5.3988461  69.6846771  27.8648472   4.9105124  69.4627991
  28.7069817   5.3543644  70.6395721  54.3749428  69.6089478  76.1104279
  53.8670845  68.9374695  75.6549835  54.9760551  69.9462204  75.4462433
  50.6955338  70.8050613  29.3165493  50.1747513  71.2696915  28.6614647
  51.4323769  70.4433212  28.8241711  36.3478737  66.7486343  48.7303772
  37.0381393  67.3956528  48.8757286  36.8170700  65.9306488  48.5661163
  56.3567238  10.9801798  61.1673546  55.5578003  11.3515177  61.5416069
  56.1352425  10.0662346  60.9888000  59.9106941   7.8074403  18.3749771
  59.0967484   8.2173977  18.6676540  60.5826569   8.1703978  18.9520054
  66.7546310  41.3812141  25.2424717  66.2689133  41.7322922  24.4961166
  66.1956863  41.5616455  25.9982834  19.7683887  46.6626587  40.1384773
  19.5387058  46.3532600  39.2622643  19.6929836  47.6152992  40.0835114
  45.7462425  59.6010094  50.3406525  46.1067581  58.7526245  50.5985374
  44.9352570  59.6793327  50.8430481  11.1557980  33.6922188  39.9670258
  10.2024555  33.7594223  39.9135971  11.3798618  34.1174507  40.7947998
  52.9707031  39.2389450  23.6593628  52.7934494  39.2176590  24.5997677
  52.7044411  38.3746376  23.3458214   4.1380796  54.3229141  87.1004944
   3.2993767  54.1633110  86.6676712   4.3673282  53.4819565  87.4960556
   0.4024784  65.9545364  74.2238007  -0.3434633  66.4755020  73.9264755
   0.0497292  65.0713577  74.3323898  45.4075546  37.8532410  14.1305037
  45.4907036  36.9024429  14.2033195  45.7847061  38.1896057  14.9434271
  81.0391998  21.8011436   4.8064551  81.3134232  21.5102386   5.6761713
  81.8281784  21.7276154   4.2694883  43.4113998  57.0509796   0.6518484
  43.0311623  57.8759193   0.3499791  43.6539726  57.2181435   1.5625879
  36.7549477  31.1491089  69.2005539  36.2468987  31.5265942  69.9186249
  37.6206627  30.9908161  69.5770035  40.4091759  12.4866695  82.1682587
  40.2349396  12.1928425  81.2740860  40.9971275  11.8226480  82.5282822
  76.2362518  50.1180878  67.5534973  75.9646606  49.2162361  67.7241898
  75.4206161  50.6190262  67.5593414  76.0242157  39.0242157  68.3995667
  75.5782089  38.4570770  67.7705460  75.9940948  38.5381660  69.2236328
  72.0803452  55.4280281  22.7035675  71.1236877  55.4459877  22.7302513
  72.3367844  56.3500481  22.6847630  50.3875389  66.0223083  52.8046951
  49.9677200  66.3913651  52.0276604  50.8707886  65.2633133  52.4781609
  16.9421711  66.7583466  12.8673954  16.0347462  66.8088531  12.5669651
  17.4004021  66.2922516  12.1680984  76.8469849  20.8512993  76.4591293
  76.2002640  21.5491333  76.5640488  77.1703033  20.6891518  77.3453598
  32.8389511   3.4777200  58.7558479  32.2329979   3.6116047  59.4846344
  32.2788048   3.4530804  57.9800529   8.5971174  21.6997910  12.4399395
   9.1319208  22.1801891  13.0719471   8.3485041  20.8968563  12.8978901
  69.9252930  30.6525822  17.5799866  70.7372818  30.5839844  18.0821819
  69.3334198  30.0249577  17.9947243  81.1763153  69.3767090  18.7187767
  80.2747574  69.4783783  18.4136677  81.1508789  68.6086044  19.2893925
  24.0470829  15.0039749  80.4375763  24.4046173  15.8534660  80.1791840
  23.5215244  15.1918278  81.2152176   0.6460775  17.2726707  81.9316101
   0.3057291  16.3886852  82.0693207   0.8786606  17.2978764  81.0034409
  44.6692352  65.0274353  13.1876421  45.1507301  65.8204041  13.4234114
  44.1715889  64.8064270  13.9748755  16.0308208  24.4668751  27.2951374
  16.3476181  23.7132645  26.7971992  15.7984209  25.1136322  26.6288567
  55.7593765  26.6845341  89.0350723  55.1587372  26.6407242  89.7790756
  55.4248352  27.4036655  88.4991913  66.3474503  61.4892197  67.0303650
  67.2822189  61.3064880  67.1255264  66.0278473  61.5765762  67.9283981
  63.8324852  68.0147552  73.9805908  63.9959488  68.6089325  73.2481537
  63.0090637  68.3224487  74.3594437  66.9360275  16.8851738  21.7656555
  66.3587494  17.5405636  21.3739281  67.2847290  16.3967857  21.0199242
  71.5811386  19.2572308   2.4880075  72.1850510  19.6755505   1.8743858
  71.7523117  18.3204231   2.3914499  65.2000961  27.5809002  14.2756014
  64.6987686  27.0569992  14.9004488  64.6800690  27.5580482  13.4723091
  49.7260933  18.9173946  21.0163879  49.1274109  19.3329506  21.6369724
  49.8118668  19.5518837  20.3048401  60.3708496  15.5219946  64.1993637
  60.5136528  15.8483706  63.3109245  61.0862122  15.8996058  64.7111130
  66.2704391  65.7849045  73.4934540  65.4901428  66.0097656  72.9866867
  66.9941711  66.1785965  73.0061646  11.2565384  68.3086472  41.5853462
  10.7389774  67.5349655  41.8084717  11.9220695  67.9847183  40.9784126
  18.7567692  45.4193115  49.9596901  19.1529007  46.2490234  50.2259293
  17.8228188  45.6139336  49.8816605  32.7833557  53.0244942  89.0411606
  32.7843819  53.5151253  89.8630600  33.3478127  53.5323677  88.4583435
  74.7097473  53.3363304  89.0329590  75.1626282  53.8916931  89.6675415
  75.4120636  52.9402695  88.5170822  67.7364655  52.3267593  35.2495689
  67.0893784  51.6523018  35.0431290  68.5607529  51.9804726  34.9077148
  61.2021751  63.4393311   1.1816440  62.0159492  63.1649895   1.6044238
  60.6429291  63.7277260   1.9029632   0.4786364  69.7374573  49.3836670
   0.7603086  69.3523788  50.2134895  -0.2302959  70.3337250  49.6247292
   3.9982686  10.3922338  69.4176407   3.9303339  11.1280565  70.0260696
   4.5876484   9.7757664  69.8521881  12.2150612  15.4496078  57.8621407
  11.3164387  15.4302521  58.1912842  12.2951183  14.6531153  57.3373337
  16.0152340  40.4513054  68.4974289  15.8867197  41.3789482  68.2994461
  16.3960342  40.4443436  69.3755951  29.2754116   6.9172049   3.9327619
  29.1511574   6.4440413   3.1100173  29.5736618   6.2494965   4.5503736
  72.8872910  63.6380539  22.5973091  72.9740829  64.3777847  23.1985512
  72.4291534  63.9988365  21.8382454  30.3881779  44.9316597  74.3883209
  29.4573765  45.0293274  74.1875687  30.8073063  44.8238029  73.5345459
   6.8149743  13.7400265  83.7795258   6.3299851  14.3357420  84.3506088
   6.1834741  13.4863405  83.1064072  64.9333038  19.4474030  66.6691055
  64.1980362  19.2008076  66.1080246  64.5511780  20.0366726  67.3194733
  25.6020012  53.6043625   1.5274558  26.5158596  53.3870544   1.3434062
  25.6053734  53.9034424   2.4367259  78.7116318  22.2652531  14.7269917
  78.2678299  21.6663589  14.1264954  79.6348724  22.0185013  14.6725407
   2.5585747  36.6368103  82.1989517   2.0667846  37.4411736  82.3644028
   3.2682886  36.9056931  81.6156540  83.0185394  22.2402115  18.7724819
  82.3610687  22.9357052  18.7884960  83.0613022  21.9301758  19.6770706
  73.0885391   1.8528225  77.5044708  73.9025650   1.9253161  78.0028152
  72.5164642   2.5211761  77.8816605  67.1744385  11.7499094  37.8068924
  66.7548676  10.8931570  37.7283936  68.0105820  11.6497135  37.3518486
  21.3153954  36.5719757  69.5944748  22.0982437  36.8536606  69.1211548
  20.9252014  35.9010811  69.0342178  10.3457203  46.1617813  39.4238968
   9.9449596  45.4805336  39.9638290   9.6915751  46.8599739  39.3946800
  25.8246918  47.9933968  64.2522812  24.9682045  47.5661125  64.2617493
  25.9536934  48.2511330  63.3395042  85.8728104  51.8973465  64.5471802
  86.6916733  51.4016800  64.5428696  86.1326599  52.7910995  64.3237686
  12.3281775   4.0822802  73.5416718  11.7989779   4.4602661  74.2440262
  13.2164412   4.3925943  73.7175217  39.0886002  69.3705902  40.8266983
  39.4474258  68.8287125  40.1239586  38.1554146  69.4378967  40.6245499
  57.3560066   4.9773951  21.8123817  56.8643837   5.7736583  21.6111279
  58.0170021   4.9231348  21.1221848  27.9092083  70.1286621  81.6984634
  28.7969112  69.9978256  82.0317688  27.6247272  69.2563095  81.4258652
  41.2649040   1.4910283   4.6976662  41.8541832   2.1805611   4.3918433
  40.4081573   1.7355275   4.3477550  37.6803284  33.5342255  73.0585098
  37.9319458  32.7031784  73.4613495  38.0913315  33.5155907  72.1942368
   4.8211408  14.9009237  24.5383720   4.7894626  14.9436836  23.5826530
   5.5432510  15.4808178  24.7802658  83.0498123  25.4582348  36.6156960
  83.0066757  25.1064663  37.5048676  82.1602249  25.7617741  36.4347839
  18.1223125  13.2827463  73.1673279  18.9478359  13.3213615  72.6843643
  18.0149670  14.1625137  73.5288773  54.1883278  16.1025124  22.7466583
  53.6705627  15.4631109  22.2574577  54.0544090  15.8670940  23.6647415
  42.2430115  37.8592033  79.6303711  42.4698334  38.5039444  80.3005142
  43.0630035  37.3976936  79.4547424  31.5212784   7.4384794   7.6072993
  31.7552376   8.3650475   7.5528460  31.4415207   7.1576152   6.6957150
  82.3214264  38.1014442  68.6870651  82.6617889  37.2767525  68.3402634
  82.9254532  38.7671051  68.3580093  70.9256897  20.9554157  49.0385513
  71.1149368  20.5919075  48.1735153  70.7312469  21.8779850  48.8733559
  72.8201447  56.4913483  29.8667049  73.5139313  57.0887566  29.5874233
  72.0696945  57.0598640  30.0394554  76.0525131  55.2111473  71.1600418
  76.7053452  55.7490921  71.6079941  76.5657043  54.5560989  70.6869888
  81.6240768  36.8093452  10.9823771  81.8689270  35.9078827  10.7734594
  81.2244263  37.1414185  10.1784906   8.6999969  50.0308228  50.3622932
   9.4798527  50.5431519  50.1488075   8.1747780  50.6120262  50.9123688
  33.6739082  64.4747772  49.1266365  33.8670692  65.2695541  49.6238708
  33.6129532  64.7695923  48.2180099  58.3573074  36.5283470  55.9069138
  59.1195412  36.8207588  55.4071922  57.9942589  37.3308983  56.2815361
  85.1704941  45.8282814  53.9913483  85.5548172  46.3733444  54.6779594
  84.9591141  46.4424286  53.2882271  83.8997040  11.1266880  26.8633022
  84.5990143  10.8976059  26.2511635  83.2683563  10.4115868  26.7841816
  28.0493240  39.5907478  57.2412453  28.2436943  38.9660530  57.9399643
  27.1926174  39.9497185  57.4723892  83.0486984  66.0546417  52.2732964
  83.0414124  65.1457443  51.9731369  83.7488403  66.4680710  51.7682152
  55.9390488  51.1672630  63.4459343  54.9902878  51.0825996  63.3515167
  56.2678452  50.2712173  63.3736382  20.7156620  35.0871964  28.5287914
  20.9494534  35.4689178  27.6827049  20.6218014  35.8394470  29.1132069
  62.8966637  66.1002197  68.1651230  63.5239296  66.6145859  67.6569977
  62.3351097  66.7527237  68.5836105  10.0782385   1.7542405  10.8454542
   9.5598240   1.3680202  10.1395426   9.7204695   1.3674450  11.6445932
  69.5887909  55.0946693   3.9939134  69.5238724  54.2435913   3.5606868
  69.1574326  54.9668732   4.8387985  13.5649166  41.3575821  10.5947275
  13.0049772  42.1265602  10.4880857  13.5727224  40.9453316   9.7308865
  42.7640686  30.6181526  83.6288223  43.3353233  31.3177719  83.3119125
  41.9265175  30.7771759  83.1935654  21.0975170  65.2849274  58.6267662
  20.8117771  65.9622345  58.0137024  21.9998150  65.0947189  58.3700333
  86.5198364  10.9546862  39.1373634  86.7929535  10.3310061  39.8101654
  86.7939072  11.8071642  39.4755898  65.1883469  40.1649055  22.9542503
  64.9587173  40.4382858  22.0661259  64.9155731  40.8964043  23.5080872
  45.2237167  18.7783909  69.1207428  45.6918488  19.3321152  68.4958649
  45.7648773  18.7975864  69.9100571   4.7870331  13.8469391  19.4767418
   5.6930175  14.1557713  19.4699402   4.8559537  12.8997679  19.3569546
  16.2887154  48.0392189  63.1683960  16.2862854  48.9822922  63.0045662
  17.1552029  47.8619423  63.5344582   2.3266680   9.4582949  12.5733671
   1.7709041   9.5630035  13.3456326   3.2195473   9.4640675  12.9182806
  84.6219559  14.0985498  61.3993454  84.2252884  14.8263493  60.9206009
  85.5620422  14.2762718  61.3694916  72.5943680  36.4911995  68.5933762
  73.3116226  35.9381561  68.9030762  72.5153961  37.1755028  69.2580032
   6.5000610  22.6805477  28.5807877   7.2946992  23.0461731  28.9695034
   6.7801223  22.3538647  27.7257576  55.1130943   1.2889602  36.3445473
  55.4369316   0.3883447  36.3286057  55.5454140   1.6855822  37.1008720
  85.8797684  62.6330757  49.7190895  86.0281143  63.5757141  49.6438408
  85.0906830  62.4727287  49.2015343   3.6846089  18.7491245  47.7122650
   3.5496600  17.8015041  47.7180786   3.9212127  18.9629002  48.6147919
  28.0908051  49.4108620  79.2848434  28.1258297  48.7209435  79.9474258
  28.8759537  49.2739105  78.7547302  33.6557655  16.4366589  79.6249924
  32.8540077  16.1351280  80.0521774  33.8226547  17.2973881  80.0090790
  30.6672020  53.9636230  61.7111588  30.4386024  54.3425217  60.8623886
  29.8620338  53.5404129  62.0092010  33.2875328  61.7320862  80.3355103
  33.6769409  61.7885513  79.4629211  32.9412498  62.6090736  80.5004654
  38.4326401  10.0156536  18.2216663  37.6584053   9.4613791  18.1238232
  38.8133850  10.0523272  17.3442154  66.6144333  57.7061310  24.3726597
  66.7565842  56.7663574  24.4859982  65.8568115  57.9019661  24.9239178
  75.6796265  68.1257324  21.6796951  75.7201920  67.3952637  21.0624466
  76.4957504  68.0653534  22.1762085  75.8121796  17.1565208  51.6861153
  75.6513138  17.9884453  52.1313744  75.3476257  16.5079899  52.2151070
  77.6987839  52.4038353  88.0882263  78.3410492  53.0019226  87.7061005
  77.5704117  52.7279282  88.9796906  66.1488342   7.9211702  88.3998718
  65.5792542   8.2781553  87.7184219  66.7076263   7.2941141  87.9407578
  28.0275860   7.8651676  17.2348213  28.0572052   8.7549953  16.8833084
  28.0159492   7.3021455  16.4608040  33.3187408  69.1116943  55.1944542
  33.0195732  69.6378403  54.4528999  33.7990723  69.7281189  55.7472038
  37.6745720  35.2324562  76.1901398  37.9864044  35.8447342  76.8565598
  37.5752754  35.7664528  75.4019699  42.8853302   9.7437725  19.9699383
  42.5247765   9.3311033  19.1851215  42.6982803  10.6758099  19.8579121
  49.0358047  31.2414532  77.5190964  49.3666954  32.1382637  77.5688324
  48.1538467  31.3312473  77.1580963  71.0361023   4.1150742  18.0703983
  71.6250992   4.5426154  18.6921062  70.2447510   4.6534801  18.0810986
  64.5995255  70.6019058  28.9523792  64.2484512  71.4716492  28.7612534
  65.4433289  70.7710114  29.3714676  84.3750687   7.2408395  43.9970360
  83.7843704   7.8985448  43.6299858  85.0654678   7.1461082  43.3408318
  84.7028809  40.8625908  34.9329071  84.0915909  40.3130951  34.4423866
  85.5672073  40.6032333  34.6136971  58.8255844  12.4641075  58.5838280
  59.1995010  11.7693195  58.0419006  59.0101280  12.1921721  59.4828453
  26.5449905  18.1265125  47.4162216  26.4070511  18.5628281  48.2569542
  26.6979885  17.2096043  47.6444778  44.4435883  49.0713272  38.7592278
  44.4374466  48.9983215  37.8048363  44.5002022  48.1671524  39.0682487
  64.2920685  33.5046997  30.4018021  64.4294510  33.5528069  29.4557362
  65.1693039  33.3843575  30.7654018  83.8812485  33.7120171  54.2213287
  83.3390808  33.5400848  53.4514389  83.2572556  33.9625244  54.9025879
  64.9426727   1.6312907  40.7335434  65.5561447   1.7350128  40.0061340
  65.5005264   1.5116050  41.5021210  66.6579819  21.3887749  47.9039688
  66.4576416  21.0443707  48.7743034  67.3885345  21.9905338  48.0468407
  74.0699615  65.8902969  45.3955116  74.5033646  65.0452118  45.2762566
  73.6497345  65.8250504  46.2530632  39.4167557  13.0985451  76.4398651
  39.5177422  13.8746710  76.9909210  40.1770821  13.1168861  75.8586578
  59.1470604  30.2500095   4.5283866  58.3740845  30.7241116   4.8349228
  58.8795242  29.8718300   3.6907499  86.8578796  69.9075928  34.6603889
  86.6968231  70.8115616  34.3899498  86.0728455  69.6603165  35.1490669
  71.8482437  52.8807602  73.1632309  72.5581360  53.4498177  72.8658142
  72.1461868  52.5488472  74.0101624  83.0200882  52.3908730  41.0317993
  83.3312378  52.8130760  40.2310715  82.3804550  53.0045128  41.3931160
  25.2862835  53.5836258  13.4952450  24.4923687  53.9835091  13.8502407
  25.9817295  53.8620224  14.0911322   4.0790405  21.4015083  46.7487411
   4.1946039  20.4911270  47.0209236   4.0928106  21.8994560  47.5661087
  14.4007607   1.0738045  33.2498779  15.0284615   1.7197419  33.5738983
  13.9400702   1.5222796  32.5407486  13.4319878  21.6891365  23.7263012
  13.2080126  22.2446690  22.9796734  13.1470003  22.1893368  24.4910316
  12.7950048   4.9972548  44.3460732  11.8451672   4.9271436  44.4415932
  13.0419636   5.7153816  44.9287720  32.7689438  44.3048706  42.2834702
  33.1199722  44.1472321  41.4070206  32.2851067  43.5064697  42.4948654
  68.7580414  19.9635830   2.1981542  68.8667450  19.9312687   1.2476953
  69.5840454  19.6267548   2.5452821  56.9270096  32.5040359   5.2971640
  57.2211151  33.3282166   5.6850624  56.9260483  32.6699028   4.3544445
  16.3149796  22.8960838  77.0192108  17.1246433  22.3943558  77.1137848
  16.0834045  22.8050900  76.0949097  48.6685753  45.9776726  82.2550888
  47.8624306  45.5067482  82.4662552  48.5618362  46.2368240  81.3398438
  18.8078251  26.7015324   5.2447228  18.6587486  26.4524612   4.3325977
  18.3535156  26.0301075   5.7536654  85.5354843  55.8859253  21.9251671
  84.8505783  56.4585953  21.5799351  86.3449249  56.3833275  21.8084679
  71.1563110  45.2516556  80.1627350  70.5106964  45.4439278  79.4827042
  71.0906830  44.3058815  80.2947693  34.9145889   0.9034802  45.9966736
  34.3870583   1.0238048  45.2070770  34.4068184   0.2950750  46.5335579
  81.9569702  10.8722048  64.2174988  82.1193466  11.7232275  63.8105240
  81.2877045  10.4668417  63.6661377  72.0406799  68.1377640  69.6080627
  71.8809433  68.8800049  69.0251465  72.4957962  68.5172119  70.3598099
  71.6160812  40.8121300  17.5547180  71.6258392  41.1550827  16.6611195
  70.9588776  40.1164207  17.5370941  47.6913567  10.0461378  80.6498413
  47.4741554   9.3649530  81.2862701  46.8635597  10.5006104  80.4935303
   8.0350742  15.6840487  66.7377625   7.5202866  16.2851009  66.1992798
   7.9343743  14.8334913  66.3103943  77.2383957  27.7350006  37.1210213
  77.2583389  28.4010525  37.8081970  77.5338898  28.1934776  36.3344345
  56.3440742  69.3756485  47.0818520  55.5396767  69.0437317  46.6831017
  56.7545929  68.6036224  47.4713097   1.0773892  69.2732773  46.8750801
   0.4130793  69.8217239  46.4577904   0.9097733  69.3658142  47.8129387
  45.1520348  58.4034309  39.2337074  45.8022614  57.9021950  39.7258453
  44.3127098  58.0163422  39.4825592  31.7765770  52.9466782  80.4106979
  31.6342411  52.3733521  81.1638718  32.3555603  53.6344604  80.7392731
  35.3589325  41.1452484   4.9264998  35.5067635  42.0830612   5.0484762
  35.9082527  40.7278900   5.5900445   4.7707009  59.5005226  53.1735077
   5.1697078  60.2986526  53.5199318   4.3971076  59.0670052  53.9407921
  69.2137909  51.7188377  47.2025871  69.3092804  52.2575951  46.4171867
  69.0740814  50.8324203  46.8694534  47.7103119  52.8252258  59.6287613
  47.3091545  52.0657768  60.0513039  48.4865303  53.0110626  60.1571388
  80.2881317   4.9619670  73.5138245  80.7665939   4.2658486  73.9640732
  79.3685074   4.7902579  73.7164078  49.1140556   3.3332353  58.1010323
  49.2837257   3.1832726  59.0310631  49.1250877   4.2856507  58.0060844
   4.0121841   0.7997579  51.9606285   3.0708358   0.9477165  51.8700562
   4.3877950   1.6779920  52.0227013  69.4856110  18.2332859   0.1917695
  70.2364655  17.7365742   0.5169265  69.8505249  18.8034821  -0.4849458
  71.0233154  66.6643066  52.6539459  71.9791183  66.6424713  52.6070633
  70.7631149  65.7432632  52.6682472   1.6048770  42.6972046   5.7637286
   1.9701654  42.4312286   4.9198971   2.3692679  42.9086151   6.2996817
  26.0307331   3.4249387  19.4279442  26.5088882   2.7938077  18.8901043
  25.4484901   2.8885474  19.9660053  22.4195671   2.9449105  12.9957056
  22.0292988   2.2129459  13.4733572  22.3398800   3.6895967  13.5917969
  21.8182564  64.5305481  20.0438480  21.7528782  64.4771652  19.0903759
  21.1420078  63.9335823  20.3640881  80.3089371   0.3927880  80.8791962
  80.9137573   0.1841549  80.1672287  80.4288788  -0.3163027  81.5108871
  46.2391510  57.2018661  85.4485397  45.4581223  57.7472954  85.3550644
  46.2226295  56.9143181  86.3613815  42.0270195   8.5172215  34.6621399
  42.2788658   9.4400682  34.6961899  41.0836945   8.5202389  34.8245010
  47.9412460  40.2743835  49.6767578  48.7644157  39.9978294  49.2740936
  47.6371498  40.9972801  49.1279602  21.2790470  18.8731880  88.0287552
  21.2625122  17.9281330  88.1798553  20.6473217  19.0140820  87.3235626
  52.2886772  30.6991673  84.5829163  52.4590187  31.6144657  84.3605576
  53.0823174  30.2359104  84.3150253  59.9103470  26.6073704  53.0970650
  60.0254440  25.9767132  53.8078804  59.3007965  26.1808262  52.4947853
  67.6294785  39.2126617   7.6320405  67.8840561  39.1491737   6.7115006
  67.0499573  38.4638863   7.7724667  45.2227249  13.2280140  83.9985809
  44.6189003  12.6321468  84.4419403  45.6112442  13.7444448  84.7046890
  72.0744095  67.0226059  47.4577522  72.7547073  67.2829666  48.0787544
  71.7002029  67.8488998  47.1520767  18.9280815  60.9891129  29.2844734
  18.9989777  60.1707153  28.7931213  18.1184330  61.3894081  28.9675121
  36.3876801  59.3254471  52.0974350  36.6739998  58.4815140  51.7481079
  36.7766190  59.9725952  51.5090866  53.1248016  48.7229843  69.0564880
  52.7097054  49.1952744  69.7781982  52.9750175  49.2767868  68.2902679
  34.9279251  65.6891251  16.9068375  34.1034584  65.3601379  17.2649689
  35.4105301  66.0071487  17.6698475  86.4642181  48.3087349  35.4075279
  86.6036835  47.6898727  36.1243172  86.4313965  49.1652603  35.8335762
  59.3187828  47.8190613  74.2336502  60.0351105  47.3231659  73.8371658
  58.5449944  47.2722206  74.0978241  14.2163887  51.8076210  71.7842407
  15.0719318  52.1130180  72.0859146  14.0101080  51.0689812  72.3570328
  72.4006042  20.4964809   7.5957108  72.5699387  21.3672676   7.2361426
  72.0640640  20.6622696   8.4763288  14.9245863  23.5972919  16.3748283
  15.0776749  24.3529301  16.9421082  15.2176905  22.8466721  16.8914413
   4.5409913  27.5695457   6.2545719   3.9179862  26.9738560   5.8383398
   5.3627768  27.4220428   5.7864447  23.7688293   8.0457106   8.2930241
  23.4115696   8.2332077   9.1610336  23.7931709   7.0900078   8.2453604
  77.2573929  28.1969604  29.2346687  78.0839920  27.8049583  29.5162754
  77.1914215  27.9754066  28.3058033  67.7349396  67.2102585  19.0813313
  67.6231613  66.2653656  19.1857777  68.6632538  67.3203278  18.8755436
  31.9939499  27.0165405  82.8356934  31.1522598  27.1361427  82.3958206
  32.5236320  27.7590370  82.5452271  78.2144394  58.4722290  23.9723034
  79.0507202  58.8270531  24.2739010  77.5838318  59.1735916  24.1355782
  34.6508904   1.8356820  75.5057220  34.6703606   1.0191320  76.0048218
  35.4747696   1.8382512  75.0184402   8.8591433  26.4395027  19.3710155
   9.0559950  25.6541862  18.8603706   7.9036789  26.4560452  19.4262104
  12.5118046  64.2263184  70.2557068  12.9848509  64.9918365  69.9294586
  13.1543360  63.7562904  70.7871780  19.3840752  35.2509918  79.8180389
  19.0515518  35.8581390  79.1569595  19.4301548  34.4078255  79.3672791
  61.6331940  68.3265915  69.3086243  61.1958389  68.9807129  68.7635803
  61.6268158  68.7045822  70.1880112  73.0957108  71.1343918  60.5708122
  73.5524216  71.9496918  60.7779961  73.7219849  70.6357117  60.0460892
  53.9424553  27.4338417  82.4695663  54.8142128  27.7726250  82.6732712
  53.4631233  27.4936581  83.2959442  21.1615219  17.6441135  10.9561357
  21.6635361  18.2979069  10.4695501  20.2624111  17.9721146  10.9403896
  44.0281219  40.5824432  72.6740875  43.9569702  40.5150604  73.6262589
  44.9562111  40.4347763  72.4922180  47.2507896  35.6432037  76.3479385
  46.4939728  35.7018814  75.7648239  47.0246429  34.9468689  76.9645462
  82.7994919  55.0885696  87.4578323  82.8871765  55.3818665  88.3647614
  83.6378174  54.6716118  87.2588348  60.8731003  58.2009315  72.0121994
  60.3609085  58.7260742  71.3972931  60.2587852  57.5405617  72.3327713
  41.1247444   2.4767053  19.9064636  41.9095573   3.0238447  19.9371738
  41.2415543   1.8500569  20.6205368   6.8576360  59.0826454  17.2169399
   7.0521903  58.2415390  17.6303654   6.0922761  59.4103355  17.6892490
  70.7270050  22.8500938  71.1267929  70.7054520  23.7938614  70.9684601
  70.1034241  22.4873829  70.4976501  85.2662659   2.7720029  51.0741882
  84.3535919   3.0456996  51.1655540  85.7568817   3.3891921  51.6169624
  48.4618912  62.3114624  47.9317818  48.9897766  62.9184685  48.4505424
  47.6784134  62.1626892  48.4611778   9.2230606  48.9459801  73.4977036
  10.0595007  48.8606491  73.0401917   8.6092634  49.2354507  72.8226547
   2.8464618  17.5400257  41.1473694   2.9554555  17.8762798  42.0369148
   3.6089528  16.9782677  41.0085640  51.7445335  37.7384415  47.6039772
  52.0321198  37.0748787  48.2310371  52.4443779  37.7709045  46.9517517
  75.8977585  31.9365654  46.5999908  75.9268646  31.1247635  46.0936699
  76.7867050  32.0388374  46.9399185  64.4847183  35.0044594  13.1678867
  64.3860321  34.8057976  14.0990286  64.2345963  34.1949730  12.7224579
  81.1474152   5.4623795  26.8024330  80.7521439   4.6939735  26.3906765
  81.9663773   5.5952611  26.3250675  56.0415955  66.5982285  56.4524117
  55.6260338  65.7543640  56.2751122  56.9799500  66.4223709  56.3831558
  44.1354485  69.9347839  18.1890430  43.8367805  69.5061111  18.9910831
  43.3300476  70.2012711  17.7457085  77.2639465  61.4839439  83.6253738
  76.3087997  61.5091820  83.5679626  77.4629593  60.5940819  83.9165344
  18.3360672   7.8350239   7.3021498  17.7468491   7.6704292   8.0383301
  18.1450024   7.1324801   6.6807337  64.3519897  38.9259872  85.4186859
  64.0069809  39.6446381  85.9485321  65.2851028  39.1201591  85.3302155
  64.2017670  44.8637772  77.4181061  63.3783264  44.3762169  77.3967743
  64.3210983  45.0921173  78.3399811  46.8787537  67.6905823  72.9995728
  46.5234108  68.1511688  72.2394257  46.6068764  68.2201614  73.7491531
   1.6916509  69.5248489  66.2368698   1.8227105  70.2152176  65.5869217
   1.8292303  69.9591751  67.0786896  69.3844070  39.8504791  64.6261063
  69.2695999  40.7643051  64.3653946  69.4229507  39.8772049  65.5821609
  43.2110291  55.1441612  81.6745224  43.7663918  54.4809647  81.2646713
  43.7437057  55.4947701  82.3883591   5.4483919  36.7600174  77.8146210
   4.8459282  37.3592339  77.3739319   6.0002508  37.3278198  78.3524704
  83.4666290  37.7064667  47.6251678  83.6048660  38.6333466  47.8201332
  82.7255096  37.4538345  48.1757698  40.9406166  57.0236282  79.5107040
  41.6208687  56.5687408  80.0072632  40.7515869  56.4415398  78.7747192
  18.8861866  51.0632629  58.7956963  19.3101826  51.8879547  59.0330620
  18.3779659  50.8235245  59.5705948  84.4727707  46.4580727  42.7597923
  84.2021255  47.0303116  43.4777908  83.8068619  45.7708397  42.7371902
  71.9850922  12.3507051  65.3589630  72.1907883  11.7668562  66.0890579
  72.8146362  12.4519997  64.8922424  38.4630775  44.2378349  54.6719360
  39.2267609  43.6613579  54.6455498  38.6154213  44.8695145  53.9690857
  67.2176361  41.1268578  67.1282654  66.4780655  41.2949104  67.7122421
  67.3459778  41.9521790  66.6607208  72.5717010  10.9168253  15.9552994
  71.6994247  11.3109837  15.9585581  73.1228256  11.5510359  16.4138489
  56.7192993  28.8000946  78.0059128  57.4161148  28.9151421  77.3598099
  57.0476418  29.2357578  78.7924347  35.9506264  68.5907364  79.3568192
  36.5665588  69.0519943  78.7875214  35.9000092  67.7081833  78.9897156
  35.7146149  12.9336214  73.0807953  35.3125801  12.3980227  72.3968811
  36.4288101  12.3935442  73.4191284  81.5268555  58.7045021   4.3607583
  81.3815536  57.8718185   4.8099308  80.7376251  59.2150612   4.5415297
  66.5751495  19.6327515  63.6767159  66.9126511  19.4302368  64.5492477
  65.6708069  19.9077702  63.8275986  21.0748215  28.3315849  63.8652916
  20.3910236  28.7237568  64.4083023  21.1564999  27.4358864  64.1928329
  33.3582878   8.6886539  78.7712631  33.2715187   7.8473864  79.2195587
  32.8032188   9.2857313  79.2728882  39.3274498  31.2378216  12.0074234
  38.5332947  30.9934998  12.4826679  39.9245720  31.5540543  12.6854143
  36.1109314  22.7818985  81.3900528  35.4070091  23.4280586  81.4466171
  35.8775826  22.1162395  82.0371017   4.4029512  37.3687706   3.9068484
   5.2065492  37.8498840   3.7093854   3.7254694  38.0433083   3.9542820
  53.3171387  51.2232437  63.2405281  52.4521332  50.8661575  63.0393219
  53.6468391  51.5403748  62.3997192  19.3418751  70.5300369  66.6285477
  20.2790928  70.5170593  66.8226776  19.2738781  71.0191422  65.8085556
   7.4331799  54.7574425  24.1473713   8.2847233  54.8787575  24.5673561
   6.8450532  54.5172043  24.8633480  44.4884453  52.8323021  39.9156532
  44.4247284  52.0311089  40.4355240  45.4002991  53.1075172  40.0105705
  68.4310379   9.6042395  12.0485840  68.1010895   8.7174931  11.9035110
  68.8408127   9.8461838  11.2180548  35.7095375  51.0396919  68.0115433
  36.3444748  50.3270226  67.9395294  36.1980782  51.7555847  68.4178162
  59.0173721  12.1828938   3.8505149  58.7774925  12.0072393   4.7603693
  58.3536110  12.8000641   3.5426912  82.9222412  22.5761757  35.6859245
  82.5786057  22.6670895  36.5746765  82.6133957  21.7176876  35.3963661
  84.7605667  14.9832611  39.9131851  84.2276764  14.1915197  39.8396492
  84.2049255  15.6793718  39.5625877  53.7170258   6.2952929  18.9716282
  53.2566948   5.5012116  19.2432251  53.0424461   6.8333468  18.5572968
  62.2452774  48.8826752  50.7022781  61.5214005  48.5261421  50.1873779
  62.0559044  48.6125221  51.6008263  37.4055290  41.6621857  79.3648453
  37.8871422  41.2087440  78.6729813  37.3394814  41.0197105  80.0713120
  16.2856579  46.8649368  40.8562698  16.5623608  45.9637489  41.0221863
  15.3328447  46.8431511  40.9451714   4.5293741  18.7127495  38.2225571
   3.7673147  19.1312847  37.8221512   5.1800947  18.6789913  37.5213776
  83.8894424  63.0277977  20.8984680  84.0570679  62.2675781  21.4554234
  84.7049484  63.5282936  20.9245529  71.2477722  43.3414574  56.6014709
  71.6755066  43.6447487  55.8006630  71.9608688  42.9934387  57.1368332
  64.5595245  14.5862589  88.7901306  65.0746231  14.3840303  88.0091019
  63.6973076  14.2104921  88.6123199   1.5742651  53.9918900   8.9362144
   2.2412913  53.4164619   9.3106375   1.8714201  54.8756599   9.1527414
  16.8506012  69.5217133   2.2652996  16.5977840  68.7831802   2.8192713
  17.4975014  69.9998398   2.7840958  20.2477951  53.7767830  59.8929291
  20.3409576  54.2918549  59.0915222  20.6166496  54.3328018  60.5792389
  47.7369080  56.1901932  64.9563522  47.2407188  57.0086899  64.9657898
  47.1938515  55.5867271  64.4492493  13.5381069  53.2723808  15.4276657
  13.2562008  53.0907745  16.3242035  13.2577848  54.1732788  15.2662954
  10.2940903  16.2922020  26.3720016   9.4223642  16.2309246  26.7626057
  10.7322359  15.4831400  26.6359673  25.6735516  66.3388290  71.7468185
  25.1862488  66.6914520  71.0022202  26.4869556  66.0080795  71.3657455
   0.5730293  51.7958603  35.3522034   0.3347586  51.3250275  36.1508102
   1.1716170  51.2049370  34.8953285  37.4282036  47.8741684  39.4972191
  37.4087486  48.7879944  39.7814369  37.9193306  47.8892365  38.6757584
  16.0338936   2.2176461  58.2538643  16.8023720   2.0440998  57.7102127
  15.8745594   1.3932806  58.7135010  78.7347031  71.4598541  48.0979881
  79.2018127  70.7720642  48.5723190  79.1347809  71.4652023  47.2284203
  51.3959732  66.0498886  63.5569153  52.1249619  65.5089493  63.8605423
  50.8091164  66.1061172  64.3110199  81.3527222   1.9533204  40.1297264
  81.6899109   2.7332823  39.6890488  81.9994736   1.7638332  40.8094635
   6.6670628  62.3695717  67.0632172   7.1891217  62.1995583  67.8472977
   7.2809958  62.7728996  66.4495087  34.2886543  44.9396935  60.4103241
  35.1134567  45.2188187  60.0127983  33.6640434  44.9311218  59.6850510
  55.4055634  50.2270775  87.1472168  56.1802635  49.9480553  87.6352921
  55.2629204  51.1329002  87.4217529  50.9489288  30.3790340  36.4796295
  50.3493271  29.7283249  36.1145439  51.3471603  29.9420490  37.2324142
  13.1139908  19.7078037  65.6528625  13.4552193  20.3936405  66.2268219
  12.2955675  20.0672417  65.3104935  39.4538193  47.9712524  54.9941559
  40.2977715  47.7449265  55.3849983  38.9046593  48.2202415  55.7375641
  10.9031305  18.5954800  52.4945984  11.6415701  18.8933544  51.9633675
  10.4444962  17.9674606  51.9364967   3.4669607  40.9907188  39.0876045
   2.8123949  40.8976898  38.3954163   3.3837597  40.1898041  39.6051407
  11.1740370  11.3477736  19.3948917  11.6761255  11.5200872  18.5983696
  11.0094118  12.2144270  19.7664318  48.1936111  54.5791588  25.6567059
  47.7867012  53.8132210  25.2517376  48.3050079  54.3336868  26.5751648
  58.5720711  10.9857616  88.8280945  57.6518631  10.8621407  89.0608292
  59.0497894  10.8106556  89.6388626  86.6468201  22.9432487  88.9444504
  85.9586487  23.4644871  88.5309753  86.3376999  22.8055420  89.8398361
  22.7109299   3.7179017  53.8929596  22.7893505   3.2677498  54.7340584
  23.6148663   3.8767831  53.6211395  20.7574100  52.3054466  66.9352264
  21.2392864  52.0626144  67.7258301  20.4540977  53.1974754  67.1040955
  72.9378204  47.8316917  52.6895218  72.5181503  48.5543289  52.2227211
  73.1630325  47.2025299  52.0041962  61.5146332  44.0378380  30.3952541
  60.9341850  44.7794342  30.5665550  61.7188873  43.6882172  31.2625923
  43.3869362  45.1231346  70.9161530  44.1546249  44.6603394  71.2518692
  42.8255577  44.4321861  70.5644760  70.3490067  35.7440834   3.6498497
  70.6736145  34.8572197   3.8058398  69.4070206  35.6348801   3.5195386
  29.2423153  63.0570259  57.3338127  29.2773933  62.5452156  56.5256958
  30.1388035  63.3681030  57.4594040  62.8917007  53.2983131  84.8716812
  63.1336403  54.2237701  84.9067535  63.6035881  52.8472786  85.3255615
  66.8935165  12.6435394  76.5725708  67.3873444  13.2851019  77.0832214
  67.3379440  11.8121395  76.7383728  65.8292007   3.7043755  77.2975464
  66.3857422   4.4468527  77.5325241  66.4380112   2.9739201  77.1879578
  59.2609520  56.2492561  63.9725037  59.7503319  56.4656296  63.1788254
  59.9035606  56.3240471  64.6779785  21.5628147  10.6350060  80.5275116
  21.4506626  11.0627241  79.6785660  21.9444218   9.7826071  80.3176956
  84.6867371   0.7790433  22.2447872  84.3860931  -0.1088743  22.0512638
  85.6404953   0.7064496  22.2808590  37.4148712  49.2722359   8.1277943
  37.9967690  49.4579048   7.3908029  36.5343285  49.4076576   7.7777472
  17.1600170  46.4396935  87.7667618  17.3471432  46.2834206  86.8411331
  18.0151825  46.3964767  88.1946182  78.2297974  27.8046532  45.0229034
  77.4937515  27.2360649  44.7966728  79.0017929  27.3328381  44.7104225
  15.9066410  53.8645020  45.2640533  16.4620342  53.2852554  45.7858238
  15.5290432  53.2946854  44.5940094  42.1343193   0.3040071  60.9684296
  42.8109016  -0.0176340  60.3726006  41.3129272  -0.0087711  60.5893326
  19.2272778  46.0503960  47.0452271  19.9753456  45.5578537  47.3829079
  19.5750847  46.5276375  46.2918968  22.3089886  15.3119860  42.6007195
  23.1247139  14.8751631  42.8456955  21.8651104  14.6866579  42.0278625
  79.9905777  38.1788673  13.0220184  80.6079788  37.5522614  12.6446428
  79.3332520  38.3087616  12.3384361  63.2869263  54.4608841  81.1286011
  63.8277473  54.0220833  81.7852631  63.2831573  53.8616753  80.3821640
  18.7631836  62.2006493  50.4600716  18.3603630  61.6481285  49.7902298
  18.5837383  61.7475967  51.2839470  55.5574341   8.2339144  60.2396889
  55.5186081   7.5071378  59.6179810  56.2784233   8.0080919  60.8274078
  62.7177925  15.6823969   6.6628337  62.5574417  14.7562475   6.8438478
  63.6302109  15.7157869   6.3754077  63.1010971  60.3152504  74.7347870
  63.4423561  59.4950409  74.3783722  62.3578186  60.0501099  75.2765121
  41.9152412  47.5836906   1.1068306  41.6386757  46.7692299   1.5268316
  42.8673592  47.5924606   1.2049402  70.8602295  18.6810398  50.7106285
  71.3275528  18.9006691  51.5166054  70.6134949  19.5277309  50.3385162
  42.6911240   5.4858756  75.0343246  43.0766945   4.7094903  74.6283722
  43.1610527   6.2206922  74.6400604  74.1089096  14.2950306  32.0069237
  73.6822815  13.6172628  31.4826641  73.3860779  14.7953243  32.3856735
  26.8205776   7.3182273  72.4681778  27.1198711   6.4353714  72.6854782
  25.8771248   7.2975316  72.6284866  67.5094299  34.8999977  40.1734962
  68.1902237  35.5097008  39.8888702  66.7871552  35.4617081  40.4546204
  52.9259567  10.4766541  48.9668388  53.7212372  10.9366169  49.2355194
  52.2394524  10.8374815  49.5278625  42.4446220  57.2772522  63.4969978
  42.5720291  56.4145966  63.1022606  42.1383896  57.0915947  64.3846817
  58.7864609  51.9407387  66.9123993  58.7077408  51.4775352  67.7463455
  57.8903160  51.9884911  66.5794144  68.2633286   7.2233396  65.2364273
  67.6415787   7.4850993  65.9155045  69.1173401   7.2581372  65.6673279
  45.3907585  58.0734940  23.2472935  45.5536880  57.1609917  23.0084877
  45.5996895  58.1178551  24.1803589  23.7350292  33.0588531   5.6002531
  23.7822208  33.7923889   6.2133861  23.9939785  32.2966995   6.1182265
  16.3401775  50.2213135  65.4420624  16.8687534  50.8093987  65.9814987
  15.4954147  50.1796379  65.8902512  70.8299637   9.3368874  80.9482880
  70.0846329   8.7374487  80.9110413  70.5682220  10.0054617  81.5813217
  81.8545456  40.5310898  36.4625244  81.1604614  39.9783211  36.1034584
  82.3813400  39.9370689  36.9971848  26.9319611  45.5326004  25.4055862
  27.2662220  45.7995224  26.2618885  27.4808292  44.7894211  25.1552620
  20.2685146  16.4141750   5.0283971  20.9463482  16.9822578   4.6622605
  20.1464405  15.7312241   4.3689208  12.0922327  63.7612343  80.4239349
  12.2229109  64.6526031  80.1004944  12.6640778  63.2219734  79.8776550
   3.7028582  66.8897629  54.0224648   3.6925373  67.6984177  54.5345268
   4.3993039  67.0223846  53.3793449  56.7470245  40.7382698  85.0349579
  56.5374603  39.8465347  84.7572479  56.1322403  40.9183464  85.7461853
  56.5699196   2.7160511  41.2386513  56.9206123   3.5464697  41.5606041
  56.4143753   2.8671191  40.3063354  76.9682922  20.6486683  20.6633949
  76.6996307  20.0553150  21.3648109  76.7221222  21.5185013  20.9780712
  29.8914528  39.5616798  60.5937805  29.4118977  38.9804192  60.0035324
  29.8677731  39.1158447  61.4404831  83.4829712  16.4642906  79.2829666
  83.7470245  17.2766228  78.8509674  82.5972900  16.6391525  79.6011124
  47.8061256  53.8968430  36.6986694  47.4963493  53.4730911  35.8982277
  47.0479889  54.3847847  37.0201797   6.1630726   2.2213490  38.8528366
   5.7811642   2.9843469  39.2866707   7.1061487   2.3845043  38.8676376
   5.7788811  31.7572269  73.6595154   5.1748500  32.3819733  73.2581863
   5.5597291  30.9181290  73.2543945  27.0658131  51.0255165  31.3000889
  26.9587708  50.3750458  30.6060734  27.5376644  50.5620575  31.9920349
  51.1615677  71.2967758  68.4154053  51.7134666  70.6145172  68.0330963
  51.1982765  71.1343079  69.3580017   6.0364766  13.3902578  37.0054817
   6.1410899  12.4636745  36.7893066   6.0196424  13.8336573  36.1573372
  70.2162323  56.3230629  55.0381889  70.7276001  55.5328865  55.2124405
  70.1942749  56.3884583  54.0834808  66.5593414  34.2215195  43.6550522
  66.5859070  35.0904770  44.0555992  65.6607285  34.1313591  43.3378754
  61.2091370  16.7794781  71.8874054  61.1227684  17.6461926  72.2843628
  61.9343224  16.3707905  72.3599625   4.2440958  32.5348320  68.0110168
   4.1191587  32.0447083  68.8236694   5.1620522  32.8052063  68.0330963
  81.5199280   6.8482018   1.1149101  80.8329086   7.1007800   0.4981119
  81.5768967   7.5840154   1.7244718  47.4958725   2.5619440  71.7639465
  46.5589981   2.3751676  71.7038574  47.8792114   1.7555702  72.1089783
  19.2359295  52.8217888  77.0513153  19.8463345  52.4489899  76.4151917
  19.7700691  53.4203568  77.5734711   1.9418142  14.7410564  24.5373077
   2.6973886  15.0812492  25.0164833   1.9861778  15.1713409  23.6834221
  49.2531166  32.8371124  88.8799057  48.9746017  33.4466667  89.5633545
  48.4605598  32.6711922  88.3694611  82.8428955  25.6023331  71.4565659
  82.0782471  25.9674206  71.0112915  83.3284531  26.3674278  71.7649307
  58.7129059  21.2573643  14.2172031  58.1375275  21.5426731  13.5074339
  58.4328880  21.7720680  14.9741058   1.2790030  66.2293015  62.7800255
   2.2082937  66.2239380  63.0094223   1.2631365  66.4559860  61.8501892
  72.1772156  49.2297707  10.8644953  71.6639175  49.4057961  11.6530180
  72.0788651  50.0199699  10.3333225  22.6143513  28.0892086  29.0050793
  22.5637856  29.0274258  28.8222542  22.8464890  27.6936436  28.1649189
  31.2894421  67.6143951  81.7431183  31.0424786  67.0023804  81.0498123
  31.8982201  68.2209320  81.3215256  83.1610336  50.0484428  69.7682114
  82.2816696  50.3519478  69.5427322  83.3703308  49.4000168  69.0959244
  84.0922928  49.7943268  57.3572655  83.2115479  49.4358940  57.2474632
  84.2101746  49.8538666  58.3053131  14.9296846  50.9039459  63.0203857
  14.4860096  51.7365913  62.8588753  15.3359451  51.0118866  63.8803444
  60.5233879  33.9913483   5.9558887  60.9731865  33.3920441   5.3602805
  61.0271416  33.9444199   6.7684546  74.0128326  19.5398045  37.8034401
  74.5448380  19.1849556  38.5156860  74.6167908  19.6068859  37.0638657
  57.1693344  61.5237923  61.0780258  56.5838776  60.7861099  61.2491989
  57.3761024  61.8717499  61.9454384  30.8488998   3.9485788  17.1498585
  30.3095188   3.4007287  16.5796299  31.0346718   3.3948326  17.9082012
  50.1871033  25.1043262   9.0066748  50.3291512  24.1737862   8.8330326
  49.8591080  25.1329136   9.9054699  51.8838005  71.0943069   6.5854588
  52.1665497  71.7030792   7.2678638  51.6150398  70.3086929   7.0617065
  27.6706905   2.6687582  85.3171005  26.9395485   3.2558713  85.5093536
  28.4490414   3.2190430  85.4042053  62.1185417  38.0545464  65.7330246
  62.1826286  38.6212082  66.5018005  61.7843857  38.6258812  65.0415421
  55.1242867  33.1427307  85.1413651  55.0814018  33.5470428  86.0079269
  54.3687668  33.4983940  84.6734695  70.0049515  55.2834625  62.7526627
  70.5247498  55.9492149  63.2030106  69.3255692  55.0433159  63.3827438
  70.4766617  61.0770378  19.4482021  69.6358109  61.3034286  19.0507736
  70.2877426  61.0051346  20.3838139  57.7712593  35.2212410   5.1730638
  57.6837997  35.7612495   5.9585385  58.6843719  34.9341774   5.1802149
   5.3390589  29.5795288  14.2123089   5.2430100  29.9778271  13.3472281
   4.8864231  30.1803608  14.8042154  31.4547176  36.7083282  78.0894623
  31.7444935  36.7178535  79.0016937  31.4788895  37.6267548  77.8208771
  54.5952530  51.9786568  31.7509823  54.4088287  51.8136711  32.6752434
  55.1614494  51.2531891  31.4876366   5.6686392  61.9368134  25.4604321
   4.8588972  61.7117958  25.9185982   5.7571497  62.8822784  25.5808182
   0.8084752  52.1108093  45.8218994   0.9862478  51.1839485  45.9817772
   1.6680620  52.4922485  45.6434402  43.7706718  11.6346273  64.6528091
  43.7199516  11.2620916  65.5330811  42.9900055  11.3048239  64.2078094
  16.4780540  50.9670868  24.9027290  17.0487080  51.3032227  25.5938129
  16.9973087  50.2876053  24.4727154  73.7804260   8.1474390  38.4617500
  73.6345749   8.9864655  38.0247192  73.0649490   7.5902448  38.1553879
  68.0276337  30.4682369  34.0173836  68.4807816  31.1183643  34.5542488
  67.8905640  29.7255211  34.6054497  59.8958740  13.9336319  10.4507475
  59.0832024  13.4420795  10.5697813  60.1256371  13.7975798   9.5315466
  12.1142302  52.3278656   2.9129059  12.5029535  51.4582291   2.8187728
  12.8457575  52.8911362   3.1655424  51.4613457  69.7518158  52.4815140
  51.9661865  69.2001953  53.0790787  51.0660591  70.4165955  53.0454712
  27.6786575  50.5966187  16.6574154  27.7395630  49.7889214  16.1473713
  28.5638180  50.9603386  16.6366272  58.0738068  57.6163445  20.5663586
  58.2100945  56.7676849  20.9875927  58.0005150  57.4119873  19.6341019
  22.2382298  15.7714586  82.5286560  22.6037674  16.5379333  82.9703903
  21.7424374  16.1323662  81.7936935  64.6343918  53.3075867  48.0177155
  63.8582916  53.6833267  47.6021233  65.1726532  53.0017471  47.2876701
  78.4218826  64.8072662  20.2469292  79.0179596  64.0702438  20.1137962
  77.8881226  64.5508041  20.9989643  50.2073364  58.1059227  30.8839340
  49.8682899  57.3640022  30.3831024  49.8958702  58.8771095  30.4101276
  68.8936539  56.1533127  76.0589676  69.2551651  56.0160561  75.1833496
  67.9945374  56.4429054  75.9041824  14.0701027  55.6719933   7.9355788
  14.7784519  56.2954979   7.7752161  14.0066366  55.6217041   8.8893480
  64.2330933   2.5135314   2.4511750  64.3205261   3.2360437   3.0729172
  63.3815231   2.6551282   2.0376430  68.5128326  39.9415283  38.6856995
  69.1577377  40.2660484  39.3142090  68.9712296  39.2507324  38.2072601
   3.9023857  36.3049850  48.7381210   4.0145998  37.1592255  49.1551476
   4.0726161  36.4672127  47.8102531  70.0412369  54.0035248  88.3350983
  70.2785034  53.2394142  88.8605270  70.2705231  53.7583466  87.4386826
  15.5224333  32.5161629  60.5283051  15.1623449  32.8642807  59.7125931
  14.7877378  32.5346718  61.1415825  77.8629684  68.4854736  74.8575668
  78.6472321  68.2247772  75.3404846  77.4405365  69.1350632  75.4195328
  24.5466671  69.5088654  15.6662540  24.7502117  69.8336716  14.7891569
  25.0730076  68.7143631  15.7555637   4.4429393  10.8448505  73.5499725
   4.8791728  10.0888615  73.1570129   5.1586852  11.4110956  73.8386002
  80.4789200  67.4529495  10.4632072  80.8952408  68.1058121   9.9004641
  81.1635361  66.8034821  10.6236191  69.8978348  26.9734478  75.6053619
  70.1012115  26.0508671  75.7593536  69.7290268  27.0277309  74.6647263
  23.7417278  15.1340818   8.6812191  23.9159222  14.8064871   7.7988534
  22.8296928  15.4233255   8.6536064  60.9736748  20.3287506  55.5002365
  60.3268814  20.9914055  55.2577858  60.6246185  19.5117455  55.1440125
  71.2646637  48.2561989  48.7621040  70.9138489  47.4236946  48.4457283
  72.1351852  48.3143845  48.3683510   4.7006640  59.0509987  87.8176117
   4.7648015  58.4276390  88.5411758   5.5898318  59.1033974  87.4670868
  19.2996407  49.0861320  17.1064701  20.0923462  48.7333221  16.7022781
  19.1431618  48.5191841  17.8616657  80.8486404  24.9312572   1.0704106
  80.0661163  24.4742889   1.3787310  80.9122086  24.6990356   0.1439851
   9.2473707  13.4163008   8.4203672   8.9979811  14.0014257   9.1356754
   9.3976021  12.5710335   8.8436708  26.4440842  29.6999912  84.3315048
  27.3514423  29.6227455  84.0366058  25.9233418  29.5864735  83.5364151
  12.6936665  68.4516220  37.5832024  12.6264420  68.6102600  36.6416359
  12.7387638  67.4988174  37.6629448  15.1358376  23.0490112  79.5730591
  15.3238344  23.0746689  78.6348495  15.5877409  22.2655964  79.8865433
  51.4820900  37.1593475  40.0221596  50.6370201  36.9469147  40.4183464
  51.5339165  38.1141396  40.0659866   9.6530476  40.4482307  80.7230072
  10.2256536  40.8856621  81.3530960  10.2524023  40.0190735  80.1124115
  64.2328873  48.4903412  17.4815998  64.5002441  48.1001472  18.3137665
  63.6346741  49.1954689  17.7289200  27.8680496  63.4661026  86.5549622
  28.1274319  63.7065315  85.6654968  27.4857140  64.2653503  86.9172592
  30.7129421  59.3359871  17.6532516  30.8351116  58.4724960  18.0478344
  30.1335182  59.1788368  16.9077301  12.0850687   4.0769691  48.8786736
  11.3711948   4.4311996  48.3484497  12.3151083   4.7882304  49.4765205
  51.7962723  17.8623047  71.3412552  52.3924599  18.5703297  71.0973358
  52.2642899  17.3789768  72.0221252   0.5538386  70.5292892  68.9827576
   0.1851189  69.7981415  69.4784470  -0.2091325  71.0083847  68.6593857
  41.8701897  64.9364395  83.5552750  41.4125366  64.4772491  82.8510513
  42.2593651  64.2389069  84.0827484   0.8596889  50.5127029   3.6950169
   0.3739055  49.8271332   4.1535354   1.6112624  50.6923637   4.2598996
  17.3655376  28.6772881  81.2647476  16.4510117  28.9449062  81.3555908
  17.8675423  29.4301682  81.5768280  35.2259140  63.9258614  84.8315582
  35.2299004  63.4906120  85.6840668  34.4024734  64.4136353  84.8155136
  36.6229477  31.8721008  83.1407166  35.9166069  32.3489227  82.7048721
  36.2539444  31.0069046  83.3182144  49.2983704   1.8732126  74.4794235
  49.3245392   2.2486560  73.5993118  48.5186539   1.3179862  74.4798737
  52.8886414  38.4574280  55.2553368  52.3094597  37.7193451  55.0655594
  52.5900879  39.1529770  54.6694107  35.3556671  25.1862717  84.8723145
  35.2935028  26.0463333  85.2878418  36.2241974  25.1768188  84.4700775
  39.8777390   3.2738550  75.7029343  40.5240936   2.6305485  75.4120483
  39.7623596   3.0925407  76.6356964  11.5329685  42.2130203  84.3955078
  11.3200226  42.3404732  83.4710464  11.9635620  43.0270691  84.6565475
  75.8937759  33.0859070  50.0813141  75.2149582  32.9614220  50.7445946
  75.9555817  32.2387962  49.6399307  66.7129669   2.7505219  67.5486145
  67.2197647   3.4199898  67.0890503  65.9538422   3.2200506  67.8943176
  56.2612343  52.5593910  79.5919724  56.6523018  53.2823181  80.0825653
  55.3240089  52.7538071  79.5852661  27.6267109  42.0352097  60.2346039
  28.4801540  42.4601212  60.1490822  27.4284458  41.7166367  59.3540192
  10.3001900  55.5129890  41.3486404  10.5547523  56.4350014  41.3850403
  10.8934870  55.0763969  41.9598808  79.7441101  23.7496910  82.8701630
  78.9915161  23.7608852  82.2788010  79.6804733  22.9087429  83.3229141
  50.7026901  20.9929333  23.1150093  49.9947319  20.6062756  23.6302967
  51.3828011  20.3195591  23.0992241  41.3530998  67.8425751  75.8292465
  40.5382767  68.1788177  75.4561005  41.2565842  66.8908081  75.7967529
  72.3084183  31.9792423  60.2929497  71.8508072  32.8192101  60.3286858
  72.8263550  31.9542408  61.0975304  71.3479996  62.6142082  49.0206642
  71.3855133  63.5638885  49.1343842  70.5105743  62.3594971  49.4080582
  82.4552078  51.8591232  21.7960072  82.2875366  51.1372070  22.4017754
  82.8112640  52.5562477  22.3468895  55.9772072  50.8635902  51.2130547
  55.7486343  50.6499863  52.1176910  55.6672554  50.1143074  50.7043915
  33.8922501  18.5042515   2.8167527  33.7676506  18.6534386   3.7540092
  33.0907249  18.8366833   2.4126735  16.0910454   9.2597046  64.9561768
  16.1216736   9.6555033  65.8271790  16.6077385   8.4582062  65.0390091
  25.2876587   8.1131649  26.3287468  25.5042572   9.0267420  26.1424847
  25.4340363   8.0194235  27.2700310  81.0423508   9.0599670  22.0417919
  81.3789673   8.5373240  21.3139439  81.4551163   8.6826344  22.8186264
  50.2448730  21.5639496  18.7942696  50.0309410  22.4547958  18.5170383
  50.3135757  21.0690231  17.9778385  62.7845268  65.0300827  59.4703941
  61.8566360  64.8529205  59.6248894  63.1276855  64.2124634  59.1098747
  44.7952347  69.9360657  83.8920364  43.8761673  69.6721802  83.9357758
  44.7965965  70.7057800  83.3230286  59.3754234  33.5868797   9.3331861
  59.0032921  32.7325287   9.1144800  60.2499771  33.5738411   8.9443197
  50.0482025  27.1077213  61.1436844  50.6362076  27.6476250  60.6154938
  50.5682030  26.8667870  61.9103508  67.6598129  27.6907272  64.6209412
  68.6082535  27.5745544  64.5643997  67.3599472  26.9557571  65.1558533
  49.0791512  13.2379360  59.1147804  48.7423401  13.5082636  58.2605476
  49.0156136  12.2828875  59.1059799  73.4592209  10.7878695   4.8670850
  73.5505676  11.5100698   5.4886270  72.8327942  10.1938314   5.2805357
  39.7929993  46.5423241  64.8480759  39.1202202  46.3429985  64.1970291
  40.6063042  46.5889549  64.3454971  50.4339561  33.9635010  44.4411430
  50.9250107  34.6744690  44.0292892  50.5879440  34.0779190  45.3789215
   2.0122628  32.1085358   3.1581485   2.2256739  31.1757698   3.1833067
   1.4590552  32.2484818   3.9266596  17.4573479  44.8979683  77.7097549
  17.7717724  44.0736084  77.3385391  16.8651905  44.6332359  78.4136734
   9.6145697  70.3277283  52.8884201   9.6786060  70.2059250  51.9411659
   9.9929686  69.5302124  53.2585754  69.5786972  43.3020287  64.3173676
  70.1448364  44.0657310  64.4290848  69.7752380  42.9850998  63.4357986
  13.1479092  66.4289932  85.7076187  13.5018530  65.6552658  85.2691040
  13.8636551  66.7379303  86.2630463  69.7500458  21.3948402  83.7112579
  70.3270187  21.2270069  84.4563522  69.1043625  22.0182381  84.0439835
  22.5826416  23.9803238  70.4701538  22.5587978  24.7218456  71.0749741
  21.7706261  24.0540276  69.9687195  12.1507902   9.5404100  44.3609390
  11.5789223  10.1974115  43.9640121  11.5512218   8.9202509  44.7758522
   1.1828306  11.8060436  23.5376930   2.0316944  12.2446117  23.5953121
   0.6253518  12.4243727  23.0653381  11.7469311   5.5101299  60.2730637
  11.5407276   6.1280122  60.9744453  11.0050287   5.5741892  59.6716423
  71.3394089  69.8769989  36.1462250  71.5881882  70.7095337  36.5477600
  71.8899078  69.8135529  35.3657417  33.0929489  45.4321671  34.5513382
  32.3359451  45.9792175  34.3417854  33.5241356  45.2871399  33.7091522
  69.9060593   7.1604748  75.3014603  70.4235840   6.6249075  75.9027634
  70.3191528   8.0233650  75.3332062  79.9482269  36.6590385   8.6267271
  80.4611282  36.5488777   7.8260860  79.4498596  35.8456383   8.7057266
  37.9879990  34.7369995   7.8879080  37.6272926  34.0961990   8.5006866
  38.9257011  34.7503242   8.0796747  27.4027576  19.0287552   6.3409629
  27.1451740  18.4741879   7.0773988  27.0958767  18.5567245   5.5668550
  58.4410553   0.6922624  33.8684769  58.3919907  -0.1923575  34.2307892
  58.4129562   0.5646147  32.9202423   8.5876188  49.2973289   3.4664679
   8.0374241  50.0157700   3.1544404   8.7884846  48.7903748   2.6797760
  84.8985214  43.7917862   1.0790361  84.8118210  42.9033127   0.7335949
  85.5874405  43.7255096   1.7402676  30.1014519  41.5594711  17.5628872
  29.5640278  40.9405098  18.0571442  30.9780636  41.4666214  17.9359341
  60.4133682  11.9663296  13.2494392  60.8350067  12.6595631  12.7416191
  59.5950203  12.3574333  13.5553379  59.9272728  57.2273674  43.5036621
  60.0426292  56.2792587  43.5670280  59.7986679  57.5139580  44.4078522
  26.5689125  66.6414642   8.2856417  26.0857716  66.6090546   7.4599552
  27.2854652  67.2541122   8.1199684  78.8955460  43.6845512  61.0152283
  79.4411316  43.3513031  60.3028297  77.9994736  43.6041718  60.6883888
  29.5117760   4.6825581  86.8692627  29.0055008   5.4690289  86.6658401
  30.1183491   4.5914516  86.1344147  78.4549255  11.4817514  88.3304520
  78.1835709  11.1995821  87.4569626  78.0259781  10.8663082  88.9249802
   1.0066036  70.6536636  88.1190186   0.2464108  70.6002350  88.6982269
   0.7561335  71.2945099  87.4535751  11.6362753  18.2471237  43.8178329
  10.7214975  18.1516705  44.0829773  11.6144075  18.8903294  43.1092834
  50.2483368  23.0451183  31.1773434  50.9428711  22.8174820  31.7954350
  50.7077827  23.2297459  30.3581619   3.2377048  44.2325172  47.8644142
   3.2104988  45.1483917  47.5875320   2.3182826  43.9828987  47.9570732
  30.8754368   5.6817098  78.0293579  31.1015167   6.2492461  77.2924576
  29.9295979   5.5558391  77.9533539  57.8375740  66.4722900   4.4569430
  57.7510834  65.7858047   3.7955122  58.3784790  67.1417389   4.0380225
  59.0667877  33.2648239  15.4490814  58.8102379  34.1557388  15.6871595
  59.9936943  33.2121391  15.6820946  52.4097824  32.7951088  35.4997482
  52.6577759  32.8877335  36.4196129  51.8754768  32.0013161  35.4744911
  47.6374855   1.9396404  63.8268738  48.5598488   1.7643408  64.0132751
  47.1735115   1.6357474  64.6070099  81.0817413  19.4904499  80.6335754
  81.6614685  19.6471100  81.3789673  80.3029480  20.0142422  80.8216248
  67.1589127  62.4005356  14.8554611  67.1280899  61.4564018  15.0100250
  68.0002289  62.5450020  14.4223976  64.1940765   7.1798506  55.2031975
  63.7351151   6.4589100  54.7721138  65.1221771   6.9768658  55.0863686
  60.4075394  65.5699081  43.7151527  60.7771683  66.3953323  44.0286522
  59.4689407  65.7414780  43.6387749  21.8669529  36.8283348  78.8978195
  21.8373375  37.2429008  78.0355606  21.0456963  36.3402405  78.9572449
  56.8643456  10.5269241  78.8538132  57.5361633  10.1313229  78.2984848
  56.2385559  10.9082012  78.2379837  27.0556068   9.4408436  52.7505989
  26.2387638   9.1172485  52.3707504  26.8049698  10.2419243  53.2106895
  72.0944290  39.7991562  66.5046158  72.5841064  39.9068451  67.3199997
  71.6223907  40.6249962  66.3978577  55.7307777  13.6966171  47.7406311
  55.4493599  14.1683941  46.9567566  56.4609756  13.1534166  47.4440269
  15.8615608  46.0173378  31.4507847  15.0444231  45.5730782  31.6769447
  15.8418903  46.8282661  31.9589596  40.1539993  52.5230522  44.8632126
  39.2888336  52.4985390  44.4544106  40.7457657  52.1831398  44.1920166
  16.5968361  40.0690613  65.6874161  17.1989841  39.5018501  65.2058334
  16.9143124  40.0438881  66.5900803  -0.0658190  23.0061913  26.5785103
   0.5540257  23.4619026  26.0089912  -0.4401795  23.6964264  27.1259251
  72.6408539  12.6267815  45.2328529  72.7907639  12.3314476  46.1309280
  72.0116348  11.9996872  44.8763809  55.6353340  33.3422356  70.7883224
  56.0782318  33.0608788  69.9877548  55.9572372  34.2307472  70.9405136
  26.1605301  54.8171043  67.4485092  25.9528255  54.2451553  66.7096176
  27.1041126  54.9629707  67.3806381  25.7498779  45.3024216  43.4653854
  25.4708519  46.0468864  42.9323311  25.0885448  44.6298866  43.3023834
  31.2035751   4.5285101  89.1311188  32.0225563   4.0489426  89.0065613
  30.8469009   4.6267447  88.2482986  47.7917938  11.7240801  50.8694000
  47.1993027  12.4479551  50.6664505  48.0205879  11.3554239  50.0161819
  60.9393158   7.9175749  30.5457001  60.1810226   7.4891052  30.1486664
  60.7776489   8.8529415  30.4224720  12.5552101   6.8233733  23.7688942
  12.0114870   7.2786212  24.4118156  12.8821249   7.5178599  23.1970158
   4.6318378  11.2113819  35.2187309   4.8553290  10.6739492  34.4588280
   5.2987609  10.9942751  35.8701210  74.4597015  27.0411873  22.8371410
  73.7651062  26.4166546  23.0462589  74.4068298  27.6991825  23.5303078
  44.2751389  45.9151802  15.7332277  43.3643456  45.7932205  16.0012074
  44.6606293  45.0408783  15.7900047  19.5380001  64.4443741  26.2217083
  19.3116589  65.2980194  25.8525333  19.7269650  63.8964577  25.4599228
  50.0360489  40.1651726  59.3880806  50.5339661  40.4124260  60.1672974
  49.5545311  39.3806267  59.6504974  58.0003777  44.7719345  83.7185211
  58.2386436  43.9601364  83.2708054  57.5887909  45.3075638  83.0403366
  62.3140564  27.2800274  80.9843521  62.1016121  26.3469620  81.0065155
  61.4940071  27.7065392  80.7356873  39.7838211   7.6396961  38.1890526
  40.5595665   7.4333329  38.7104607  39.3156166   6.8079562  38.1167603
  16.7086010   6.4387984  82.3032990  16.1371555   7.2065425  82.3191376
  16.3280449   5.8707466  81.6334305   2.8574638  54.6756096  65.5851288
   2.8395293  53.7208061  65.6504364   2.0531571  54.8987846  65.1166000
  31.1095142  37.8051605   2.9536917  31.7947617  38.3982468   3.2617714
  31.5468197  36.9580536   2.8676229   6.7374535   2.7545624  12.8973789
   7.1950297   3.4229009  12.3873005   6.0834703   2.3997006  12.2952070
  36.8680649  47.5746040  48.0091591  36.5465508  48.1571884  47.3210754
  36.9655991  48.1399155  48.7754097  58.7307968  68.3760147  71.5410156
  59.3531647  67.9436646  70.9562454  58.2273598  67.6593018  71.9271698
  66.7642975   9.9407883  54.2226143  67.0153351   9.1423416  54.6870422
  66.7585068  10.6189890  54.8980713  58.0863876  38.5602837  28.8206062
  57.4607620  37.8488235  28.6840324  57.6115417  39.1976929  29.3539562
  55.2947083  13.4419241  14.9723482  55.8470879  13.8193874  15.6569147
  54.9558258  12.6334257  15.3566914  68.5653534  53.3363762   8.8635902
  68.4717560  54.0188522   9.5281944  68.8759003  52.5713882   9.3479271
  -0.0236804  58.3894730  61.5361977   0.0873277  59.2156448  61.0657158
   0.3142162  58.5665131  62.4141006  34.8391113  55.4184036  68.8468857
  35.7492981  55.5387230  68.5761185  34.4447556  54.9067001  68.1405792
   3.9196963  41.3359871  87.5775604   4.7008352  41.7413940  87.9539871
   4.2598519  40.6765785  86.9728241  59.3972664   3.8708043  83.2532272
  59.7219467   4.2502203  84.0698471  58.7258148   4.4841080  82.9544907
  59.0111427   7.2888002  24.3331547  59.2644958   7.0275292  25.2184677
  59.8234863   7.2449222  23.8287716  75.1759567   8.8534498  43.9096794
  74.9767227   7.9524331  43.6553001  74.3998718   9.1443043  44.3885612
   4.7113938  46.8956375  88.2865982   4.3511100  47.3674355  89.0374832
   5.6574845  46.9009018  88.4319153  78.6343307  61.5600624  36.5967827
  79.3991852  61.2526245  37.0833168  78.3825226  60.8152695  36.0507965
  35.4632072   2.4124255  72.0509644  34.8098259   3.0647664  72.3034973
  34.9610481   1.7310683  71.6039505   3.4806111   1.9751866   5.6521745
   2.9371254   2.5083816   5.0720382   3.2045846   2.2237215   6.5343719
  44.7157326  30.4873886  63.0451241  44.0868492  29.7788525  62.9083366
  45.3377991  30.3982124  62.3231049  46.2422256  22.4619732  63.2457848
  47.0639687  22.0223904  63.0273056  46.2387428  22.5016747  64.2021561
  69.8165436  54.6483231  57.5491371  69.2797012  53.8727798  57.7121353
  69.1886597  55.3257790  57.2980309  73.1394272  27.4549675  77.3820190
  72.6587067  26.7063885  77.7352524  72.4821167  27.9550114  76.8981476
  71.2902908  37.0334511  28.2970772  70.4760361  36.7928314  27.8551216
  71.6452026  36.2029305  28.6140995   4.8006186  29.1702652  36.0108032
   5.3812628  28.8653088  36.7080040   5.2919593  29.8686199  35.5782356
  53.4237747  54.3991890  84.1658401  54.0876617  53.7940292  83.8352814
  52.8588982  54.5700035  83.4122086   7.4910874  54.8121300   0.9570834
   6.9680891  54.3308945   0.3158993   7.0729394  54.6235886   1.7972237
  32.0294609  38.7353439  12.3567514  32.2368584  39.5674477  12.7819843
  31.3101730  38.3742981  12.8749218  55.1071548  49.2008286  84.6855927
  55.1511993  48.2468109  84.7499390  55.2983017  49.5096931  85.5711975
  36.9147682  69.7774124  25.6815395  37.3926697  70.0404587  26.4680805
  36.0084457  69.6795120  25.9734840  79.8828812  46.9566765  68.7544403
  80.1927872  46.1688919  69.2011871  79.3892136  47.4323349  69.4224701
  49.9385872   6.2059317  41.1115761  49.1549110   6.6506143  41.4345970
  49.9659462   5.3834553  41.6004677  43.9945908  10.3520193  67.1035538
  43.9433212   9.3981228  67.0428619  44.8633003  10.5225096  67.4675751
  50.7661133  46.5192337  44.9497414  50.5020370  47.1006851  44.2367134
  51.2997780  45.8472443  44.5256424  11.3687363  27.4136009  69.2377243
  11.4289360  28.3639297  69.1403427  10.7221689  27.1463718  68.5844421
  51.2910423  54.2228851  73.2566757  51.3919716  54.6515503  72.4067917
  51.4779854  54.9107132  73.8955612  24.4381332  60.2456665  44.1008759
  24.0222626  59.8014793  44.8397827  24.9633083  59.5663643  43.6778259
  24.9996414  65.9675751  27.2917461  24.8816814  66.9055481  27.1416607
  24.3052502  65.7344208  27.9079380  70.7263641  65.1792984  32.1224022
  70.2380905  64.4762192  32.5507660  70.8462219  65.8385849  32.8059235
  13.0694752  62.0413971  42.2153282  13.6373415  62.3406258  42.9254112
  12.6860723  62.8436928  41.8609886  14.3650818  46.5985107  69.1861954
  14.9147806  47.2324104  68.7255020  14.0575552  46.0053673  68.5007477
  51.2130394  16.9523907  81.4802322  51.0040970  16.2334042  82.0765839
  50.5733376  17.6323795  81.6914902  15.8176746  53.0341721  86.9441147
  15.0821266  53.5699806  86.6472855  16.4109917  53.0049858  86.1935425
  81.2392120  13.9080000  56.3033485  81.7844772  13.6896877  57.0591621
  80.4968567  13.3065729  56.3618622  39.7300606  34.6665421  52.6384773
  39.2441254  35.4801216  52.5036278  40.6280098  34.9496689  52.8109741
  78.4576416  40.4576874  57.6566963  78.3458633  40.1248779  56.7662048
  79.0321198  39.8199577  58.0803795  54.6314201  22.2261028  31.1380959
  54.7328987  23.0631313  31.5912170  54.8770332  21.5695686  31.7899151
  16.7699432  56.0323944  38.7654533  17.5025101  56.6298065  38.6148643
  16.0721436  56.3614883  38.1988831  81.0370636  69.2232285  76.1775208
  80.4700012  68.8023911  76.8237228  81.7149200  68.5727997  75.9939804
  86.1643753  40.4935379  74.2750015  86.6977539  40.4221191  73.4833984
  86.0297928  41.4343414  74.3890533   7.2050157   7.5754275  47.2647324
   7.1053557   6.8779197  47.9126396   6.5116458   7.4098234  46.6259499
  55.2125778  69.0695496  83.3592224  55.0558281  68.8086548  84.2667465
  54.8591118  68.3485107  82.8382721  54.4171333  46.3997040  84.6860809
  54.7276917  45.8599701  85.4130478  54.3962402  45.8038445  83.9372482
  41.0440063  49.0848885  84.7161331  41.7159653  48.8017731  85.3362503
  40.9764824  50.0301132  84.8511429  64.5567780  17.2473030  17.5468025
  64.6619339  16.3125973  17.3693237  64.2290649  17.2850952  18.4453621
  54.2079773  37.3968964  43.5794640  53.5990181  38.1353111  43.5912056
  54.5108871  37.3218307  44.4843636  73.2664337  20.1892262  50.8589325
  72.8878021  20.3588543  49.9963188  74.1240158  19.8068180  50.6730843
  12.3647099  70.0285110  43.7925720  13.1759586  70.5336914  43.7386818
  12.3998919  69.4379272  43.0401077  61.2313576   5.7628465  74.1585541
  61.2691002   4.8259196  73.9662628  60.9217033   6.1619363  73.3454895
  71.5988922   6.9283228  51.1513062  71.0986099   7.2208605  50.3894882
  72.4727936   6.7433596  50.8073273  74.7552795  60.5395699   9.2441044
  75.3391953  61.2015991   8.8739758  74.8818588  59.7707710   8.6880846
  22.7167377  69.3150101  63.8435860  22.3981800  69.9029617  63.1586990
  21.9722214  69.2121658  64.4363327  59.6336861  27.4822941  62.3178291
  60.2886353  27.1747437  61.6911812  60.0885696  28.1496601  62.8315773
  39.1498642  53.2297897  39.8219452  39.3063507  53.9315224  39.1900330
  38.4877968  52.6769600  39.4068794  80.3512497  18.8341618  32.8623848
  79.5756683  18.2962322  32.7032204  81.0752029  18.2085476  32.8894653
   8.8573275  26.2996044  25.1695824   8.1069956  26.8569431  24.9631691
   9.3638916  26.8055344  25.8049259  51.8114166  68.6812363  36.1371803
  50.8931580  68.6797943  35.8669395  52.1439781  69.5319519  35.8509636
  46.9842644  50.6354179  60.9384727  46.0834160  50.8215675  61.2031441
  47.4968147  50.7455482  61.7393494  54.4078102  70.3451614  43.3017120
  54.0348549  70.4289780  44.1792717  54.6765671  71.2341003  43.0697823
  27.6927013  61.0569763  83.3827057  26.9555016  60.7768021  82.8402405
  28.3316898  60.3487892  83.3027267  14.2468805  37.9989815  74.5855713
  15.1947260  38.1274300  74.5492172  13.9895658  37.8551521  73.6748962
  84.6376266  18.9672470  37.4292107  84.1060715  18.2397709  37.7524109
  84.7886658  18.7621078  36.5065308  50.7328300  34.6868439  29.4307022
  50.9136658  35.2413254  30.1897030  51.5403862  34.1900673  29.2991600
  48.0966644  37.9280205  78.4825516  47.6714287  38.7510262  78.2415695
  48.7657547  37.7983704  77.8104324  19.8645363  70.6345367  10.8843946
  20.3772125  70.8546295  11.6621847  19.8154545  69.6786346  10.8924761
  40.9606247  53.8772163  20.6092014  40.0632706  53.5543556  20.5270309
  41.4984169  53.0858192  20.6356964  67.3451462  64.9927521  60.4535675
  66.7666321  64.4545898  59.9132614  68.2241287  64.8035507  60.1251869
  14.7864037  64.9461212  16.0921211  14.1994276  65.4489441  15.5274458
  14.8652792  65.4743271  16.8864841  11.8688412  60.5501747   0.7619935
  12.5617418  60.5308990   1.4221059  11.8278894  61.4653244   0.4843972
  63.9420662  54.5333557   4.0292125  64.7060242  55.1033173   3.9412162
  63.4712296  54.6344948   3.2019789  30.9734306  56.6482124  77.6113205
  31.1131802  57.5414391  77.9257202  30.8954754  56.7380524  76.6615372
  42.4796791  62.1702271   0.1432820  43.3668404  62.4573936  -0.0728451
  42.3407707  62.4757004   1.0397319  52.0851364   5.2542706  63.6661606
  52.5687981   4.6097264  64.1827545  52.0262985   4.8661251  62.7931709
  45.2709770  49.7163467  31.0578861  44.4781303  49.4520378  30.5912323
  45.7632637  50.2331390  30.4200668  84.9220505  69.4157562  55.2695656
  84.2259674  68.8042984  55.0291023  85.6372299  69.2137985  54.6662750
  58.9471664  63.8446236  23.9904823  58.2255249  63.2340851  23.8397846
  59.4805946  63.7852592  23.1979179  67.2782364   5.2290583  85.2866898
  68.0023422   4.8109994  84.8207092  66.5356293   4.6400518  85.1531525
  63.0156631  50.2850227  48.3913193  62.7946777  50.1370201  49.3108253
  63.9535561  50.4761696  48.3981590  63.2304192  16.8115044  54.4449043
  63.1723747  15.9393921  54.0546722  63.4938507  17.3804779  53.7216492
  85.7269669  43.6371803  16.2292213  84.9491882  43.8804245  15.7271023
  86.1813660  43.0029488  15.6746950  26.6706734  29.0680027  67.2624893
  25.9316978  29.4549198  66.7929764  27.4035072  29.1319160  66.6500320
  54.3674927  62.5668068  43.2144432  54.0932426  61.6548920  43.1173286
  55.2061005  62.5171471  43.6732483  57.3220558  56.3550720   9.1503487
  57.1104736  56.5802155   8.2443829  56.8255882  56.9828529   9.6753645
  86.0646667  62.3424988  52.5006142  86.2817764  62.0253067  51.6239777
  86.9011536  62.6328087  52.8642616  82.6337204  15.6716099  29.7881813
  83.2444077  16.3862267  29.6075859  82.0914917  15.9958830  30.5072575
   9.1073189  40.9433365  55.2833939   9.8320045  41.4114990  55.6979866
   8.3496065  41.1381187  55.8349037  49.6393661  69.1953812  77.5857468
  50.1400833  70.0057678  77.4919662  50.1851120  68.6396561  78.1421280
  71.1779861  27.6319065  72.5085297  71.5982742  28.4510670  72.2466812
  71.9007034  27.0717010  72.7915344  43.4094353  48.5528908  29.0927334
  43.9790535  47.8542671  28.7707291  43.4489212  49.2262726  28.4135933
  36.2426796   6.4487853  33.9880447  37.1176682   6.0627337  34.0279236
  36.3978004   7.3932891  33.9789658   3.5539620  28.5646667  50.8868103
   3.9340899  27.6865635  50.8608932   3.9379516  29.0142002  50.1340141
  70.5655060  66.3045731   6.2838507  69.8541031  66.7058334   5.7847285
  71.2339401  66.9874649   6.3394575  38.1486549  21.2167149  84.2354050
  38.7541771  20.6736298  84.7400131  37.7175446  21.7662945  84.8898773
  55.0883484  61.4137039  73.7009277  54.2501564  61.8659515  73.6053314
  55.2192459  61.3493385  74.6469421  78.9457474  26.7039375  73.2767868
  79.6773529  26.0986099  73.3974762  79.3111115  27.4209099  72.7584305
  11.7795305  21.4090519  78.3013458  12.2554483  22.1639233  77.9550781
  11.0400591  21.2974854  77.7038803  56.9734573  23.0451851  16.6744957
  56.6881104  23.4782600  17.4790173  56.2727432  22.4242783  16.4752369
  41.1360931  16.3165073  84.2609558  41.4960899  17.1008511  84.6750107
  40.6014595  15.9096661  84.9427719  45.7174683  10.1150932   6.6641712
  46.0038109   9.2641048   6.3324189  44.7711678  10.1221695   6.5203071
  17.5114441  15.8838806  73.7472153  16.5636539  15.7773228  73.8282623
  17.6308632  16.8086147  73.5307922  80.7966690  16.8230610  79.7681656
  80.4097214  16.2368565  80.4184418  80.6997604  17.6972008  80.1459503
  81.9962921  11.8610430  35.3160896  82.5556946  11.2833700  34.7968597
  82.4241943  11.9036160  36.1712646  83.9354553  45.4524498  49.2320709
  83.9057236  45.7785149  48.3326111  83.1602707  45.8286514  49.6489563
  85.9812851  64.2701187  76.3752060  86.3517685  63.5903740  75.8122482
  85.1300125  64.4671097  75.9843597  58.9318161  10.1679802  67.2907867
  59.4538612   9.3756971  67.1643600  58.2519035   9.9100208  67.9132156
  11.9750652  20.1550465  27.8658180  12.5086651  20.8393745  27.4618378
  11.8551989  20.4469700  28.7695007  35.8771591  57.5487785  54.4392624
  36.8203850  57.4226570  54.3360443  35.5663910  57.7624359  53.5594864
  67.6180878  49.9265594  25.2712822  67.6758499  49.8523102  26.2238483
  67.6701584  50.8670044  25.1007500  42.0550270  68.6839447  23.7464294
  42.5039406  68.3437347  22.9724998  41.8160934  69.5802078  23.5100861
  71.6314316  10.6900244  42.8095284  71.9795990   9.9686604  43.3335915
  72.4011002  11.0746059  42.3900833  55.0087433  68.8558655   0.6043382
  55.9352837  68.6172562   0.5756686  54.9118309  69.5221176  -0.0760645
  53.9678421  30.2119331  36.2044716  53.5909424  30.5540733  35.3938408
  53.3332405  29.5630093  36.5084572  59.4068604   9.5854416  42.1250916
  59.8352928   9.6756096  42.9762955  59.6516113  10.3786774  41.6485367
  38.0253487   6.1605463   7.1550851  37.0889854   5.9655008   7.1926599
  38.1448174   6.6002655   6.3132977   6.5065789   2.0815341  36.1249199
   6.2948322   2.1669347  37.0544891   6.1707850   1.2189809  35.8810425
  68.6660385  21.0380974  30.2544880  68.8393478  20.1130714  30.0797920
  69.5340652  21.4360104  30.3210201  55.6673622  11.0250893  49.4930725
  56.5558777  10.7001390  49.6386223  55.7275810  11.9669075  49.6530190
  36.8875313  23.8536320   6.2360802  36.1557236  23.2367191   6.2257185
  36.6976929  24.4381256   6.9699473  23.9187946  43.3810730  58.2275848
  23.8424110  43.1988144  57.2910080  24.7878342  43.7701187  58.3257866
  51.3544464  52.4539680  66.5182877  51.2605133  53.3915787  66.3500748
  50.4719353  52.1008263  66.4055939  69.9758530  60.6140938  10.0031204
  70.6332169  60.5198555  10.6924906  69.8980789  61.5593452   9.8739386
  67.6991272  56.8565407  59.3185806  67.5568924  56.0474854  59.8099403
  67.7634964  56.5744553  58.4061584  31.0325451  45.6608009  66.7950439
  30.5867329  44.8137703  66.7998123  31.2670460  45.8028831  65.8779526
  72.3495026  64.2553864  16.0146713  71.7234573  64.6007004  15.3782358
  73.0114059  63.8126259  15.4835615  37.2885246   2.0391479  12.5276804
  37.1077614   1.1904099  12.9316616  37.6394539   1.8232851  11.6636887
  62.4512672  57.6922722  37.5181046  62.6148949  58.5676079  37.1670418
  62.5976372  57.1054459  36.7761879  76.8342667  24.1344967  61.9398232
  76.6550903  23.6675453  62.7559662  75.9793625  24.2138824  61.5166550
  38.6311111  53.7014008  71.3276978  38.5530739  54.4794617  71.8797531
  38.9858131  53.0293503  71.9097366  65.7784882   1.4032900  60.7107544
  64.9565125   1.8906443  60.6553726  66.4459305   2.0746617  60.8522377
  55.4229813   2.6781323  30.7789402  55.3854904   2.8776410  29.8435135
  55.4105644   1.7219191  30.8205814  32.7445908   4.9766927  37.7929649
  32.9023132   5.4623566  36.9833450  31.7920513   4.9709668  37.8871346
  28.5329533  15.1195145  69.2249451  28.1134205  15.0865355  70.0846786
  29.4520416  15.3086042  69.4140320  65.7528534   1.0736628  32.4840889
  65.7849503   0.6223659  33.3276100  64.8230438   1.2520137  32.3431015
  60.5358963   4.1880054  37.8109894  60.3240967   3.4133532  37.2901382
  59.9492302   4.8675866  37.4789886  25.0941257  67.6862717   2.6483967
  24.6264915  68.5208282   2.6158986  24.5713921  67.0974579   2.1040785
  35.5713043  64.4722366  72.0861893  36.4760590  64.6965790  71.8686676
  35.0828285  64.6386032  71.2799988  37.3891602  64.8251190  20.1850567
  37.3341293  65.6835632  20.6049061  37.5569267  65.0197678  19.2629967
   3.6002982   4.7071471  42.9394188   3.2850273   3.8057058  43.0045280
   3.0059330   5.2095947  43.4966507  50.1744537  63.1117706   9.2926626
  50.8974533  63.7140846   9.1173935  50.3222542  62.3795509   8.6941280
   5.5680513  26.1292858  52.0736732   5.7825460  25.3523273  52.5899658
   6.2191401  26.7794380  52.3375206  12.5940971   2.4513624  11.1074533
  12.9065390   1.6501404  10.6871500  11.6399574   2.3804247  11.0788641
  69.9126053   1.8799750  38.0971680  69.4589462   1.4643791  37.3638878
  70.5682068   1.2374308  38.3683853  63.9436951  57.4761353   8.0617437
  64.7168045  56.9286919   7.9245129  63.3498917  57.2345276   7.3509293
  72.4072418  40.5257263  20.7960415  73.2156601  40.9702225  21.0512123
  71.9011765  41.1948891  20.3352337  36.2279282  30.3508873  86.1283951
  36.2834702  31.3053856  86.1739883  36.9480896  30.0425186  86.6784058
  38.8509750  41.9618187  83.0011368  39.0113792  41.4385376  82.2158432
  38.1718750  42.5837708  82.7399216  31.2071342  12.8868446  70.6938477
  30.8535671  12.8272018  69.8063431  30.4398060  13.0280733  71.2483673
  15.3489342  20.0445690  11.6061487  15.5468283  20.9736156  11.4880705
  15.5893011  19.8620491  12.5145216  50.0435143  14.1930094  64.4214478
  49.6193275  14.6996117  63.7288818  49.3602791  13.6026649  64.7391205
   1.5113044   9.7801123   2.6120114   1.9430894   8.9318295   2.7130513
   1.0968812   9.9404154   3.4598253  32.8354759  66.7714615  88.3402328
  32.5921135  67.4339752  87.6936340  33.5357132  67.1796265  88.8494492
  56.6029892  68.3552322  43.7531891  56.3736992  67.7273331  43.0680656
  55.8752899  68.9770279  43.7614899  39.2403297  19.3033962   0.8711237
  38.7327652  20.1124496   0.8075271  39.7395477  19.3969898   1.6824521
  70.7414093  51.1366043  33.3577652  70.6116638  50.7257004  34.2124901
  69.8684235  51.1544075  32.9655800  69.1526413  70.0101700  42.5212746
  70.0794907  69.8497391  42.3439789  69.1247101  70.2559662  43.4459572
  19.8101616  32.4227867  19.7939720  19.6703033  32.2602043  18.8611069
  18.9507465  32.6867027  20.1225834  27.6854000  40.1613846  87.7167587
  27.7050533  40.7737389  88.4521942  28.1725883  40.6051331  87.0225220
  51.7632179  65.8654099  88.0773697  51.7818260  65.4700699  88.9489136
  51.3614120  65.1986237  87.5204315   2.3330340  19.2985115  65.1978302
   2.2877212  18.5490417  65.7915268   3.0203497  19.0677776  64.5728607
  74.8222961  33.3918266  60.0349045  74.8838196  32.4543381  59.8516998
  74.3202057  33.4445000  60.8481483  80.5384598  12.1869898  30.3682938
  80.0966949  12.6746349  31.0634727  81.2558136  11.7343569  30.8118744
   8.7882042  68.6050644  69.1277313   8.0108366  68.0477982  69.0904007
   8.8401318  68.8827591  70.0422897  74.4605637   0.2141110  74.3331757
  74.1976624  -0.3223550  75.0810547  74.7775269   1.0290371  74.7226105
  25.0521641  46.9985809  41.3389702  25.2239971  47.9338226  41.2292824
  24.2444458  46.8443871  40.8490257  81.7481842  46.5830612  50.3083611
  81.2370071  46.0009842  49.7461166  81.2941360  47.4242172  50.2580948
  36.8489189  60.5274696  29.3117771  37.0854111  60.0666313  28.5068359
  36.9339676  61.4548798  29.0906296  62.5608940  13.4235144  25.7683334
  62.2760353  12.7894459  25.1102715  62.2807236  14.2706413  25.4217606
  58.6501999  36.2960510  21.2412071  58.3641129  36.4063034  22.1479759
  57.8904915  35.9230728  20.7940331  24.9903965  52.5021973  32.9193382
  25.5973530  51.9524345  32.4237633  24.4496117  52.9240570  32.2516403
  81.9542770  19.1108952  56.6049767  82.3298187  18.2387123  56.4845810
  81.3850937  19.0231361  57.3695450   5.2431464  68.3849640  81.2075500
   4.7601304  68.7611465  81.9433594   5.9190612  69.0328293  81.0084457
  13.0214539   6.6560583  77.2992172  13.6964655   6.1316986  76.8683624
  13.2026463   6.5584154  78.2340240  67.2595901  19.9491634  60.5411682
  67.7727432  19.6058712  61.2726402  66.4590378  19.4244308  60.5431023
  69.0118332  46.7788658   0.7778752  69.5895462  46.5650864   1.5105230
  68.4976578  47.5243416   1.0879169  24.9258118  58.5461044   2.9281209
  24.7434235  59.0922775   3.6927516  25.8332634  58.7482758   2.7003317
  13.5395164  26.9916382  60.9734955  12.6218691  27.1417446  61.2007065
  14.0313625  27.3609943  61.7069092  42.8574677  65.3712540  39.1118927
  43.4059753  65.1826553  39.8733406  42.7315102  64.5208740  38.6909180
  71.5111923  68.6590805  30.9724178  71.1595764  67.8494644  30.6021080
  70.8163300  68.9814987  31.5463924  63.5828171  41.2456512  86.7295837
  64.3266373  41.8402824  86.6327744  62.8135300  41.8043823  86.6189041
  80.2869034  42.7319832  58.6119347  79.9759827  41.8789940  58.3086739
  81.1997147  42.5808296  58.8572197  63.6996994  40.1737633  72.2024307
  64.4531174  39.5882034  72.1268463  63.9534492  40.8048363  72.8759232
  62.1745033  69.4171600  77.6461563  62.3702469  69.8980560  76.8420105
  62.9543724  69.5312424  78.1893158  30.5828228   7.5795932  18.3513470
  29.6549339   7.4289007  18.1709347  30.8203812   6.8926091  18.9741230
  73.9775925  22.6338940  82.0807724  74.6345673  22.4801960  82.7597427
  73.6212082  21.7659149  81.8914642   7.0591750  27.2855644  65.5413666
   6.9822211  27.3908253  66.4896393   6.3888769  27.8660011  65.1807709
  63.9083900  18.0428524  23.6679497  64.0679169  17.7472267  24.5642681
  64.6688919  18.5837917  23.4552250  66.0648651  38.7028046  77.9944916
  65.6654587  38.4676285  77.1569977  65.9713135  39.6540451  78.0457382
  16.4948101  69.7405624   5.4354935  15.7848482  70.3094025   5.7331557
  16.4125443  68.9532547   5.9736476  32.0748672  45.5548973  28.6692829
  32.9706650  45.2209511  28.6218071  32.1772346  46.4994431  28.7858276
  49.0991669  28.7971172  17.6615639  49.1230812  29.6838989  18.0211182
  49.9348030  28.4101601  17.9227295  57.7833176  43.2075500  70.5196686
  56.8590012  43.0535698  70.7150116  58.1142197  42.3542786  70.2391891
  43.0678101  48.3168526  52.9469833  43.4684639  49.1292763  52.6376648
  42.2437057  48.2570877  52.4637489   7.4099984  34.7780647  11.6143236
   7.9036660  35.3365898  12.2148018   6.5812016  34.6157646  12.0648632
  18.3131428   0.6919557  75.7383194  18.8854046   0.0294417  75.3512497
  18.4208603   0.5792715  76.6827393  42.4627533  25.3717785  71.5755463
  42.8076134  24.5542946  71.9347458  43.0152168  26.0534058  71.9581680
  15.5685692  64.9626389  81.3790665  15.0097141  64.9829330  80.6022110
  16.3732433  65.4037933  81.1068344  22.7339001  36.2353783  30.4468327
  22.0685444  35.5473938  30.4612427  22.2448349  37.0377769  30.2646084
   4.2593789  23.8607082  85.8043518   3.9780843  23.4205341  85.0022583
   3.7786827  23.4162693  86.5026627   6.9236217  69.7799149  78.8720016
   7.4722700  69.1174393  79.2919312   6.7134309  69.4087372  78.0151062
  51.9101295  59.6955147  38.0604401  51.2784958  58.9800224  38.1334801
  51.4963951  60.4278259  38.5173645  54.7965698  40.7322121  22.1866684
  54.0757408  40.3024139  22.6470051  54.8837280  40.2431259  21.3684807
  85.0640640  20.7260799  77.6549072  84.9280624  21.6723900  77.6076584
  85.8135452  20.5629349  77.0822983  57.1279945  36.9823303  52.0901718
  56.7085381  37.0482979  52.9480400  56.4799690  37.3329048  51.4791145
  63.0253563  32.7337608   0.2221943  63.9259834  32.9381905   0.4738134
  62.6890717  32.2040710   0.9450856  25.4539413  56.9286346  55.7911263
  24.9451008  57.5846939  56.2674675  26.3619747  57.1044121  56.0377159
  43.0955582  41.7319603  27.9867401  43.5386887  40.9054565  27.7950134
  42.2216949  41.6281853  27.6101418  85.7136917  58.3138580  12.1428213
  86.2973022  57.6604576  11.7572126  85.4506454  57.9348335  12.9814997
  44.6809502  58.1842728  45.6224480  45.4058075  58.7193336  45.9457397
  43.9414787  58.7897339  45.5692215  15.8438463  56.8297806   4.0762463
  16.5284691  57.3669739   4.4749289  16.0403004  55.9384995   4.3647761
   6.0187540   3.7062507  84.5923080   5.5302458   3.4425066  83.8125458
   6.6952510   4.2976789  84.2624664  64.3287506  57.3595390  52.2403107
  65.0251389  57.9742393  52.0091934  64.2473068  56.7909546  51.4746017
  18.1441326  39.1180077  15.3929377  18.3999157  38.7064819  16.2184410
  18.3233395  38.4530182  14.7281799  13.5390167  15.4159861   8.5959702
  12.7566776  15.7189999   8.1351442  14.2594414  15.8930445   8.1841011
  58.7383842  15.7972250  38.6900139  59.5140266  15.2364073  38.6998444
  58.1564522  15.3899336  38.0483780  65.0791092   7.6295419  82.5815048
  64.6687469   7.4476795  83.4269333  65.2544785   8.5703983  82.5978394
  39.3687057  46.2177429  85.2032394  39.3234520  47.1404953  85.4536743
  38.4865189  45.8825722  85.3633575  10.1743412  68.2826920  75.0633163
   9.3080511  68.6197891  75.2916489  10.5046167  68.8960114  74.4068222
  25.7373238  36.4841309  59.2970123  26.6533985  36.7604980  59.2713051
  25.5191154  36.2930336  58.3848152  70.9749756  37.8152122  61.7497101
  71.6197128  38.1631241  62.3657494  70.6270676  37.0353317  62.1821175
  22.4236031  24.1593266  66.4310455  23.0293217  23.5380116  66.8351517
  21.6184750  23.6584034  66.3003616   2.3270013  21.1471596  79.7280655
   3.1318507  20.6320858  79.7841721   2.3678148  21.5621815  78.8664780
  56.0410347  25.5647259  35.2201881  56.8838882  25.9962025  35.3603897
  55.3933754  26.1979733  35.5296478  74.6746140  12.1434526  87.5948944
  74.5647507  11.5365419  88.3268967  73.8509979  12.0861254  87.1105423
  59.7757759  60.0548897  58.7600632  60.4485207  60.7170334  58.9188385
  60.1753426  59.4533386  58.1318016  83.5396881  32.3747940  47.8283005
  83.8455429  33.1298065  47.3256721  83.3212585  31.7188892  47.1662483
  24.1409149  56.2626457  34.6552849  24.7420235  56.2158203  35.3987274
  24.1240158  57.1900673  34.4189911  37.1277885  52.9635048  69.2099152
  37.4710236  53.2813492  70.0450211  37.6229019  53.4463348  68.5481262
  14.0957317  11.5656109  21.4274406  14.5706539  11.7358646  20.6139946
  13.7418518  12.4180565  21.6810856  47.2696152  60.4008331  56.4418411
  47.4237862  61.1880302  55.9195557  46.8068352  60.7154694  57.2184181
  68.4401779  69.7621994  35.7764931  68.0982819  69.3198700  36.5534630
  69.3865738  69.7944183  35.9162178  37.8936005  55.5307617  18.8793335
  37.2780304  55.6935234  18.1646214  38.1319923  56.4029770  19.1934071
  42.8859253  58.5606766  29.4964619  42.9770088  59.4623795  29.1884499
  42.0051384  58.3025780  29.2247467  62.4199295  63.8922997  43.3840103
  61.7174072  64.4980087  43.6202583  63.1973839  64.2474670  43.8148804
  46.1862946  33.8183289  41.2723122  47.0071449  33.8908272  41.7593231
  45.9464340  34.7229004  41.0711899   4.0510039   2.2114162  87.6065445
   4.4327331   1.6182232  86.9595184   4.4848876   3.0498123  87.4482117
  63.1960526  40.4958611   1.3005583  63.7932129  41.1632805   0.9626503
  63.1828003  40.6430283   2.2462850  21.6112080  13.7783756  84.4852982
  21.2670746  13.1032381  83.9004974  21.9982414  14.4285221  83.8990021
  66.2472076  46.3170433  31.5973492  65.9317551  45.5485649  31.1217861
  67.0920334  46.0461922  31.9567184  69.9025421  69.1692047  87.1785889
  69.1891937  69.0248184  86.5568771  69.8062515  70.0833740  87.4455185
  47.6156425  51.7833252   7.4121385  47.9449310  50.8862724   7.3564992
  46.6856155  51.7108078   7.1976013  21.8818989  50.4079475  60.2483101
  21.7815590  49.7052078  60.8904305  22.6492710  50.8965950  60.5459633
  20.9887505  46.6413231  66.3461609  20.1019974  46.9999313  66.3101120
  21.5546875  47.4093132  66.4244995  28.2990742   2.8727469  62.9397011
  28.4105263   2.2054033  63.6168022  27.3797455   2.8019783  62.6826859
   2.0737052   8.0959444  54.2955856   2.8700433   8.5893087  54.4922295
   1.5980493   8.0681171  55.1257706  48.8563118  67.2070312   8.4765902
  49.3916321  67.1703568   9.2692547  47.9621506  67.0587769   8.7843723
   1.8684363  21.9921513  76.9966812   2.0991349  22.1364460  76.0789719
   1.6442969  21.0627670  77.0440216   1.8493961  50.7961655  43.1678429
   2.2134557  51.3160858  43.8843460   1.4536815  51.4407539  42.5811996
  77.8434601   3.9965730  82.0847015  77.4313812   3.1466537  81.9296036
  78.7771606   3.7998023  82.1603775  31.3860569  46.3620949  63.7662659
  30.6264305  46.9257584  63.9128418  31.6560078  46.5527649  62.8679314
  52.2766762  11.1463413  64.9946823  51.8131523  11.7246466  65.6004333
  51.6577454  11.0039692  64.2785187  21.3377914  30.9073868   7.5764775
  22.0182972  31.0408707   6.9166861  20.7821999  30.2186260   7.2115707
  10.1151428   4.0921912  71.9263382  10.9127169   3.9865561  72.4449387
  10.2968216   3.6265423  71.1100082  61.0065765  15.4470282  24.7231579
  60.7213516  14.7341290  24.1516228  60.2949867  15.5462675  25.3556290
  11.5073862  37.4807587  12.8394222  12.3739681  37.6732407  13.1974974
  11.0169544  38.2955627  12.9480658  67.6809082  49.9142876  66.4706650
  67.8664627  50.2939148  65.6117783  68.4750443  50.0751877  66.9802704
   2.0244412  42.8700562  75.0108185   2.1792564  43.7247963  74.6087112
   1.9086305  43.0607109  75.9416580  11.4332333  64.1740494  32.0407677
  11.9391184  63.8748474  32.7962761  11.7306833  65.0718994  31.8937187
  84.6501465  17.3204632  76.1840134  84.2689590  16.4763908  75.9421997
  83.8955231  17.8827057  76.3591080  25.8205566   9.5711555  13.1517191
  25.8828106   8.6279697  13.0008669  26.7056408   9.8319101  13.4064093
  32.8824615   3.5275760  77.9194946  33.0137634   3.2843544  77.0030746
  32.2584076   4.2526879  77.8878098  33.8133392  54.9925842   1.4090725
  34.0676918  55.7909279   1.8718781  33.6568451  54.3526878   2.1035316
  52.8126183  62.9050903  74.3410416  52.6009865  63.5472107  73.6634521
  52.1323624  62.2367554  74.2585068  74.6438599  37.9784775  14.1209850
  75.0969925  37.2730408  14.5827885  74.5092468  38.6528625  14.7868023
  13.9218616  70.1603622  31.5276070  14.3523760  70.9092484  31.9400005
  13.0022573  70.4181595  31.4635582  10.6289587  57.1062164   2.9956701
  11.4584875  57.2774467   3.4415331  10.3112965  57.9721909   2.7399147
  22.0302944   8.4457273  18.9137611  22.1799679   7.5090795  19.0422935
  21.5873184   8.5035391  18.0672016  42.2914734  15.1158657  75.6107407
  41.9878464  15.3699255  74.7392502  42.3391609  14.1603937  75.5786514
  61.4938698  54.9973373  43.1701164  62.1641426  55.5066414  42.7145042
  61.9785233  54.2900696  43.5956917  69.0951462  68.4213791  53.7725487
  69.7626648  67.7880630  53.5088158  69.5739212  69.2432251  53.8801041
  43.9530602   9.7952576  59.2813339  43.2758598  10.0826578  58.6689339
  43.6621857   8.9307680  59.5716476  57.1661797   0.3323356  21.1468334
  57.6224289  -0.5010846  21.2629299  57.8196297   0.9102600  20.7528267
  67.9514923  42.2822151  37.1932144  67.5711288  41.5198441  37.6295013
  68.8344116  42.3503761  37.5565948  44.5611076  40.5229759  80.3075256
  45.4296036  40.1614761  80.4843521  44.2028008  40.7196960  81.1730652
  39.5722313  66.4082794  68.0208130  40.0673370  67.1636276  67.7037201
  38.6861229  66.5448380  67.6855621  55.2270088  41.6086731  87.1435242
  54.2931213  41.4063568  87.0873718  55.4177437  41.6010818  88.0814972
  46.8152733  60.6043358  85.2317352  46.7720337  61.4326172  85.7095566
  45.9051208  60.3137589  85.1732712  39.3594208  56.9760475  51.7647209
  39.9453125  57.6935692  51.5236320  39.2718887  56.4589539  50.9639816
  30.9475765  16.6912708  66.8802261  30.8971481  16.8247662  67.8267288
  31.8856373  16.6707706  66.6908798  34.8973541  42.1087112  88.6878891
  34.7753410  42.8640213  89.2630920  34.1209869  42.1061478  88.1279984
  72.5566864  41.9583168  14.8041687  72.8135147  42.5874977  14.1300745
  73.3843918  41.6026802  15.1276798  55.6033592  66.5938416  32.2673759
  54.8905373  66.5188751  31.6329498  55.2359810  66.2509232  33.0820351
  79.0908356  37.5271111  62.1918678  79.0868454  38.3650703  62.6545105
  79.9222717  37.5192986  61.7176437  28.3017197  63.0536079  61.9716339
  28.1667023  62.1214638  62.1422272  27.6144447  63.4910736  62.4741364
  70.3691330  37.7363358  40.9952965  71.1289978  37.1564293  40.9447441
  69.9174194  37.4699707  41.7960663  32.1579208  49.3630867  44.4875069
  32.9698410  49.7012711  44.1098137  31.7407990  50.1284294  44.8831024
  82.9599533  34.9331207  46.4796143  83.1120224  34.2373962  45.8400230
  83.3948898  35.7001419  46.1071320  59.8015099  18.5636349  14.4137850
  59.3559799  19.3797359  14.1863747  59.9017906  18.6024990  15.3649235
  59.2584076  28.0921116  16.7125816  58.6196785  27.9866085  17.4176540
  59.2797470  27.2389603  16.2790966  32.5981598  54.7647285  73.8665237
  32.9713631  54.3093529  74.6212311  33.1338806  55.5524559  73.7731323
  79.8290634  40.8122101  68.0873413  78.9742889  41.2327805  67.9939804
  80.0956497  40.6098328  67.1905670   4.2026925  16.0998611  82.3603973
   4.0661297  15.6446142  81.5295410   4.6981788  16.8843040  82.1250763
  27.6076813  55.4196510  26.7681370  26.9186420  55.9939728  27.1022186
  27.7521610  55.7164459  25.8696556  76.4265747  45.0199242  34.4034729
  76.2876587  44.8268967  33.4762878  76.2103271  45.9483681  34.4898491
  39.8952599   3.7146108  61.7909012  40.1939888   3.9316823  60.9077950
  39.7603951   4.5628695  62.2133904  83.1084671  34.6089859  77.2543182
  82.3211060  34.8566399  77.7390442  83.1283417  35.2076950  76.5077362
  64.7785034  36.9393616  15.8433199  65.7170715  36.7733116  15.9314203
  64.3675613  36.0945435  16.0267105  86.4642715  61.2132111  66.8249435
  85.8892975  60.4622803  66.6775208  85.9753342  61.7747993  67.4264374
  24.1055908  63.6578598   4.2880988  24.0014496  63.5171547   5.2291560
  23.3123245  63.2872772   3.9012830  14.8453379  63.1370544  51.1154976
  14.5731401  63.9508553  51.5396080  15.7897072  63.2347298  50.9936066
   5.2934752  25.8637238  76.8273926   5.4195166  25.4182091  77.6651688
   4.6430984  26.5413551  77.0119400  58.8571167   6.8825727   5.3250675
  57.9453888   7.0911593   5.5287342  58.8041267   6.1433625   4.7192683
  50.3234444  58.1456604  83.0348892  50.3272781  58.5660324  83.8948364
  49.4082451  57.9057961  82.8896255  70.2769318  54.6337204  35.6737366
  69.7578888  54.9305458  34.9262581  70.1249008  55.2952080  36.3486862
  83.2478638  69.6659241  11.7696123  83.8769989  68.9544373  11.6504259
  83.7830963  70.4200439  12.0167274  45.7786369  37.6735191   1.2645626
  45.6519470  38.5929565   1.4987016  46.1774139  37.7006073   0.3948058
  82.8840485  25.9564705  62.9657516  83.2339096  25.2488251  63.5071068
  82.1649017  26.3200817  63.4823265  30.8547688  48.9529915  78.5720901
  31.4275341  48.4602242  77.9844284  30.7880802  48.4067154  79.3552704
  60.9644852  63.6061478  62.2384567  60.9843597  64.1125412  63.0504951
  61.8785362  63.3693237  62.0814400  18.0951595   0.9592325  57.1385574
  18.1617107   1.4897066  56.3445816  17.4585648   0.2788410  56.9193611
   4.9884367  38.0171127  69.3834915   5.0876541  38.5052872  70.2008514
   5.8791552  37.7538109  69.1521378  63.6336708  52.6153641  75.7025681
  63.4608307  51.7777863  75.2726517  64.3201523  53.0197334  75.1720352
  29.9610634   5.1999164  52.3124466  30.6361904   4.9410095  52.9396667
  29.7469158   6.1021409  52.5498581  14.3879356  61.1445770  84.2573395
  13.5660982  60.9099655  84.6883545  15.0522566  60.6237755  84.7086487
  33.4624329   2.3564591  35.1554642  33.9692612   3.1212864  35.4282265
  33.5663910   1.7318219  35.8732758  68.5925522  24.0885620  32.1032829
  69.3034821  24.7245235  32.0235405  67.7955475  24.6186657  32.1004066
  22.7037029  71.7218399  29.4286518  22.1129894  71.6583405  28.6781483
  22.3006763  71.1690216  30.0981197  16.9966087  11.3883123  14.6708050
  17.7446251  11.3130283  15.2632875  17.3593502  11.7782307  13.8754349
  68.5093384   2.5732276  87.0745392  69.0342178   2.9588811  87.7759705
  68.8400574   2.9827390  86.2750626  66.8321075  34.0356522  63.2706871
  67.3043365  34.8120842  62.9700508  66.5575867  34.2523460  64.1617050
  27.3819847  24.4466457   7.9724846  26.9865265  25.2418861   8.3294668
  27.1038380  23.7520485   8.5694771  77.0722198  39.6489868  20.7297001
  78.0045929  39.5968742  20.9399338  77.0474548  39.9730377  19.8293610
  50.1907997   2.7229300  28.9216270  49.9973106   3.4150953  28.2894077
  49.3513031   2.5439665  29.3452473  13.9639568   9.5065985  72.9637146
  13.3830070   8.7469921  72.9221725  14.2271328   9.6567965  72.0557480
  47.1352692  18.4398193   6.0114126  47.4154549  19.2766247   6.3821964
  47.9207077  18.0888004   5.5917687  62.9935455  43.3310928  56.0408478
  63.1807098  42.7545395  56.7816505  62.0378532  43.3620911  55.9969559
  22.3707333  33.3358574  20.3157749  21.4868755  32.9804001  20.2226200
  22.5455227  33.2997513  21.2561874  19.6912479  40.1462975  20.9188366
  18.9497261  39.5577507  20.7774506  20.4576149  39.5728912  20.9079533
  83.5012207  65.1669617  58.2457352  83.9167404  65.3407440  57.4011192
  82.9610825  65.9398499  58.4104691  73.0852280   4.7564626  40.8509407
  72.4082184   4.2985902  41.3491898  73.3198853   4.1478724  40.1503830
  51.6987228  23.7798042  28.0994015  51.7271233  23.7372322  27.1435699
  52.1393166  22.9805222  28.3879452  53.1849480  43.0278397  33.0007324
  53.4824944  43.0912781  33.9082985  52.5991669  43.7764015  32.8878441
  10.6842003   8.5916758   2.6729226  10.6730232   9.5331020   2.8456154
  10.1626644   8.4879589   1.8770112  24.3700180  38.3781090  51.6935577
  23.5937481  38.1282005  52.1947365  24.0267162  38.6644478  50.8471603
   0.7790131  40.0246773  76.5843658   0.4722374  40.4798317  75.8001709
   1.1800598  40.7106934  77.1180038  59.5999451  36.3708801  41.4400101
  59.8284531  35.6687164  40.8309250  58.6457710  36.4291992  41.3912086
  69.9288788  52.1003876  70.9184494  69.2405548  52.6969376  71.2126846
  70.6476212  52.2414513  71.5346756  48.8898315  65.6098099  69.5338211
  49.7698441  65.8366394  69.8344116  48.7127151  66.2269897  68.8239288
  26.4954872  37.1417351  18.6936340  27.3844776  36.7876434  18.7169781
  26.3294334  37.3111649  17.7662964   3.5734699  36.0545425   1.4660534
   3.4422245  35.1142044   1.3444993   3.8965478  36.1372757   2.3632755
  21.4272079  45.5464020  70.5652161  21.5912991  44.7711220  70.0283279
  21.7928391  46.2709579  70.0577011  21.9551411  57.9554672   0.5102694
  22.5151939  58.6700134   0.2069670  22.4008770  57.6143799   1.2856474
  44.8999634  64.8067169  56.0353317  44.0060196  65.0722122  55.8194466
  44.7923508  64.0750732  56.6430817   5.5690851  28.3196564  32.2254486
   6.5128851  28.4717350  32.1770210   5.3038378  28.1693325  31.3181000
   7.2332439  36.3962708  61.0163307   6.6914382  37.0037422  61.5199738
   8.0512238  36.8709335  60.8685684  59.8176765   4.9268713  76.6043243
  60.6056099   5.1287336  76.0997009  59.6720695   5.7049198  77.1425400
  44.3362160  60.0101929  53.6976471  44.1354713  60.5616074  52.9414215
  44.1367073  60.5604820  54.4550209  25.4199429  60.5622673  15.6612787
  26.3711128  60.4551582  15.6670933  25.0977135  59.8726997  16.2417088
   3.6733963  43.4718399  33.0005798   3.0863140  43.6051407  33.7447548
   4.5064216  43.2146606  33.3957481  57.4528618  69.5984421  52.7350883
  56.9019737  68.8162842  52.7037086  58.3435020  69.2604980  52.8288383
  86.7650528  22.7885132  51.8366432  86.2308807  22.0149460  51.6564178
  86.3506012  23.1935921  52.5984612  79.0326920  69.4917297  27.4974232
  78.7195129  68.9609604  26.7650032  78.9273682  70.3955841  27.2004700
  16.4389305  59.2797127  58.1655273  16.9668522  58.6490479  57.6758423
  16.1435814  58.7967110  58.9373512  37.7258453  29.9263992  88.5502243
  37.9012337  30.8143368  88.8617249  36.8584061  29.7178669  88.8970566
  61.8025818   0.0192448  28.6273022  61.3544655  -0.0303922  29.4716721
  62.2491302   0.8657641  28.6425343  72.5030289  21.0845032  17.4629154
  72.0552750  20.9078522  16.6355419  72.5187531  20.2393112  17.9119549
  85.5980835  18.5625515  48.8254166  85.0649109  18.6647205  48.0370483
  86.1976013  17.8457966  48.6178780  11.4892874   6.0824428  89.0613861
  10.8007870   6.7458658  89.0159073  11.4626102   5.6506476  88.2075272
   2.5253372   3.2011559   0.4368551   1.7864075   2.7142372   0.8017177
   3.0301480   2.5454345  -0.0442138  38.0606155  23.1131554  86.4033203
  37.5797997  23.8901672  86.1181870  38.8975067  23.4524384  86.7207031
  44.5048027   6.1290836  31.0540104  45.4529495   6.1057553  30.9247627
  44.3482819   6.9431052  31.5326557  81.4985199  14.7040997  65.3696136
  81.4211349  13.9157400  65.9069519  81.0360107  15.3789635  65.8664780
  77.1909027  59.2792320  71.2208786  78.0079803  59.4766045  70.7630081
  76.7719116  60.1314011  71.3412323  47.9999275   0.0511345  76.9916382
  47.5481339  -0.4937300  77.6360245  48.4954796   0.6805788  77.5155258
  80.9769363  69.8575974  23.6043167  81.5370865  69.6299820  22.8622532
  80.0914078  69.6439056  23.3103714  57.5859642  40.8702469  75.4983292
  57.8260231  41.5098114  76.1688232  57.7667084  41.3131371  74.6692276
  45.2838516  51.4865379  70.9154663  46.2093735  51.6503334  71.0966034
  45.2517738  50.5695305  70.6428986  29.6143894  18.8695202  85.3789520
  30.2286434  18.3388958  85.8862610  29.6462326  19.7327309  85.7913589
  59.2273521  23.3237400  10.7097692  59.9315910  22.8130245  11.1090841
  59.0561562  24.0266380  11.3365526  26.5278206  48.7365875  66.8920898
  26.2615948  48.2538643  66.1095734  26.3637352  49.6542435  66.6748047
  43.6115150  30.3987408  33.9689560  43.8597031  31.2394867  33.5845375
  42.7697754  30.5680141  34.3921051   3.1469152  11.2333889  83.7697067
   3.5631266  10.4172659  83.4923172   2.4719293  11.3941793  83.1103287
   9.4357615  15.9779205  20.1987648  10.1785336  16.0115528  20.8015823
   9.7098684  15.3669577  19.5147896  28.0489559   1.8515249  45.8182716
  28.8730068   1.4345899  45.5666046  27.7752037   1.3840133  46.6074028
  86.2279892  58.8429947  20.5615902  87.1622849  59.0062752  20.4325047
  86.1298828  58.7493668  21.5091343  12.2981539  18.7436275   4.1610980
  11.9163609  17.8720245   4.2648969  11.5499487  19.3392487   4.2017999
  85.5805359  37.3735123  87.2501678  85.0193405  37.5935516  87.9937286
  86.3619843  36.9875145  87.6458588  64.7035294  23.2577152   6.5580730
  65.1033707  23.7158985   7.2972822  65.0142899  22.3559685   6.6387701
  78.3791428  55.1641121  11.7025490  79.2800369  55.2758598  12.0060730
  78.4050140  55.4132500  10.7787027  74.0039368  69.3851471  19.7276211
  74.5004807  69.0299530  20.4648533  73.9911270  68.6767731  19.0839825
   6.4624023  70.6549911  10.0278196   6.7341065  69.7614212  10.2374592
   7.2815614  71.1220245   9.8632193  39.5886421  61.2538643  25.3202763
  40.4434967  61.6638641  25.4520226  38.9647408  61.9776611  25.3759117
  35.5876122  12.3841429  83.3155212  35.8025932  13.0084000  82.6224670
  36.0484619  12.7143927  84.0867386  85.0386734  38.8174629  25.3044415
  85.5382919  38.2368965  25.8785114  85.2741165  39.6995049  25.5921993
  10.1978064  58.1777153  66.7740860  10.2075806  57.2773094  67.0987549
  10.5459442  58.1153908  65.8846207  65.9402237  64.7684860  35.7195625
  66.8518677  65.0043030  35.5477219  65.9648132  63.8273964  35.8927078
  40.0070381  54.5753708  42.1425819  39.7853622  54.3556633  41.2376976
  40.3592415  53.7632713  42.5068398  83.8804092   9.6135340   9.6340628
  83.7736740  10.5119314   9.3214598  84.6322250   9.6533489  10.2251844
  34.8821373  23.9882908   1.9725585  34.5677757  23.1652451   2.3467271
  34.6796303  24.6464500   2.6374273  57.7170410  71.4501419  54.9165649
  57.1203423  71.1171494  55.5868645  57.2139816  71.4035110  54.1035538
  59.3697128   2.0829523  15.1804667  58.9653625   2.6670392  15.8220091
  60.0811691   1.6573957  15.6589651   4.0090766  70.2328415  59.8511963
   3.4204688  70.5948639  59.1888428   4.5784554  69.6362534  59.3652687
  19.8412609  59.1295738  61.8871536  19.8819580  59.2014618  62.8407822
  19.8738346  60.0345955  61.5771332  12.3309307  62.3496780  65.5757904
  12.1240873  62.0910950  64.6776886  12.8812551  61.6406631  65.9084625
  26.9118023   5.4793544  28.8253517  27.5966988   5.2396379  29.4496002
  26.2935638   6.0012846  29.3368225   1.6767712  24.1231346  66.0149841
   1.1969326  23.4869137  66.5452805   1.1845878  24.1716022  65.1954498
  32.0359230  34.4705353   4.4498248  32.5461311  35.1889420   4.0759110
  32.1496162  33.7488060   3.8314304  23.0895882  56.7856331  18.8690186
  23.5602875  56.7136650  19.6993771  23.5466614  56.1837082  18.2816525
  24.6634693  37.1280403  75.6858749  24.0093899  36.4450951  75.5375595
  25.3024025  36.7242584  76.2732010   8.9658785  27.5926113  51.0395813
   8.1323357  27.8127251  51.4554977   9.6000938  28.1823215  51.4473114
  82.4838791  11.1687698  32.2727776  83.1732559  10.5968847  31.9352188
  81.7908325  10.5700102  32.5509987   9.9767542   9.6757078  77.1206589
  10.7285213   9.4417048  76.5763016   9.8172169  10.5989351  76.9246216
  41.2399216  62.8190689  68.4918823  41.7551079  63.3996964  69.0519562
  41.8903923  62.2733345  68.0499573  39.2392845  31.5158806  78.8873825
  39.7820969  32.0756378  78.3321762  39.5504532  31.6863518  79.7763977
  25.0187111  68.6926804  34.6923409  25.7930088  69.1710968  34.9886665
  24.5657177  69.3054199  34.1130524  61.4171257  58.3311119  26.3463554
  62.2986565  57.9703674  26.2514572  61.3528633  58.5660820  27.2720394
  52.8640747  40.4801216  32.1087265  52.2392578  39.9356155  32.5876312
  52.8238144  41.3311348  32.5450592  64.4315567  59.1529007  42.5565186
  63.8845100  59.8089447  42.9884720  64.0664215  59.0795479  41.6747437
  22.5297871  10.7128782  53.7455101  22.1668339  11.5879068  53.8826942
  23.3731251  10.7297459  54.1979790  70.5097961  67.5558777  83.0492706
  70.9414444  67.4672318  82.1995316  69.5934219  67.7311172  82.8352966
  76.5159225   8.7437563  66.7500839  76.0587311   8.6565332  65.9136581
  77.3901291   8.3914928  66.5830688  76.8624115  12.4542608  79.7842636
  77.7286911  12.1874466  80.0918503  76.2564926  12.0903559  80.4297562
  48.3764343  34.8583832   3.3129470  48.6679802  35.3681450   4.0688396
  48.9809341  34.1171150   3.2763948  23.8942337  59.5404778  50.1474075
  24.7099724  59.1141434  49.8846512  23.6446209  59.0999680  50.9597359
  43.4727936  55.2753487  77.7860107  42.5471878  55.4835129  77.6589050
  43.5056839  54.3187141  77.7835007  27.9422245  13.4568415  56.1355400
  27.4671860  12.9804525  56.8164368  27.8702488  12.9009056  55.3596611
  83.7670212  60.8638840  57.4217567  84.0808105  61.5243416  58.0394592
  83.8807220  61.2674980  56.5612907  42.1203194  23.0227814  10.5590992
  42.1319122  23.1053104   9.6055346  42.1743622  23.9236259  10.8781481
  68.6625671   1.8256681  72.7822952  69.0445557   2.5790420  72.3320236
  69.2880325   1.6193701  73.4768982  28.5727711  10.0779104  61.4086914
  27.8081627  10.2388153  61.9616051  29.0825672   9.4254341  61.8889122
  81.4732208   0.7253951   3.4725785  81.0290680   1.4777410   3.8636501
  80.8421555   0.3748496   2.8440037  52.5048409  52.3237762  75.0371780
  53.3950348  52.4035301  75.3798523  52.3864746  53.1031532  74.4942322
  54.3277779  23.9189548  12.4084234  54.3788300  23.0097389  12.7032967
  54.0609169  23.8586388  11.4911556  71.0877457   6.2385097  81.1498184
  70.1761398   6.1155820  81.4145737  71.1215057   7.1351404  80.8164368
  72.3456345  20.3052216  82.4133301  71.4580002  19.9641514  82.3037567
  72.3859177  20.5781002  83.3299255  78.2696991  53.2307549  56.0243835
  77.6643906  53.1135902  56.7565727  78.7466431  52.4024315  55.9730186
  27.2778645  58.6452293  85.8402405  27.7200661  59.2870407  86.3959122
  27.1110249  57.9015808  86.4193649  86.5830154  60.6674309  72.4265976
  87.1536560  60.1576424  73.0016785  86.7032166  60.2757874  71.5614929
  68.4361649   1.7559878  52.1622963  68.3179703   0.8723101  52.5106850
  69.1565094   2.1215351  52.6758308  32.8881226   7.1727409  26.0202599
  33.4011002   7.6758509  26.6526871  31.9881172   7.2318082  26.3407803
  76.2856369  43.4709930  28.9913788  76.4999390  43.9117050  28.1691399
  75.7820053  44.1177750  29.4856110  68.0439072  34.2582970   2.1098802
  67.2114105  33.7887001   2.0583162  68.6921768  33.6328011   1.7862529
  82.6133804  39.9523354  40.0510674  83.0689468  39.5856972  39.2932663
  81.6898041  39.7567787  39.8929863  55.4455223  45.0553322   8.6348362
  55.4369583  45.7129135   7.9393206  56.3548889  44.7589722   8.6730719
  30.9144230  54.0513573  37.2265739  31.4791317  54.5752182  37.7948227
  31.4410591  53.8966637  36.4423828  26.5423241   3.3650661  13.9841843
  26.2725029   3.5993207  13.0961781  25.7275734   3.3517849  14.4864168
  75.3481750  50.3680916  59.0231590  75.7919388  49.5766640  58.7182770
  74.4483032  50.2734909  58.7108955  71.7279892  38.5107002  38.3722267
  71.4857254  39.1027718  39.0842667  71.6881332  37.6376495  38.7626419
  56.8327751   5.3204031  66.4235382  56.0260506   5.8150692  66.5675278
  57.1178932   5.0664215  67.3012772   1.0921156  34.6359367  23.5158100
   0.2143386  34.9922981  23.6527290   1.6699511  35.3975487  23.5635815
   5.2910738  56.5896759  80.6418839   5.8570318  57.1830673  80.1481094
   5.0131297  57.1008644  81.4019241  76.5104523  16.7820969   0.5157829
  76.3246536  15.8433752   0.4931404  77.4227219  16.8525391   0.2346361
   0.8775359  42.2143402  66.4096985   1.7132975  42.0437889  66.8440323
   0.5372394  42.9966125  66.8438339  79.0949173  63.0099106  14.6974115
  78.4926758  63.5941429  15.1580706  78.6554871  62.1595612  14.7036972
  44.9059296   1.5647776  71.6756744  44.7206345   0.7609093  72.1611557
  44.1394157   1.6885892  71.1158905  24.4979153  44.7028389  77.9700623
  24.6064053  45.5324707  78.4350052  24.3114052  44.9573402  77.0663605
  15.4892197  67.5614777  46.3344841  16.1503410  67.9595413  45.7681847
  14.6537008  67.8171844  45.9436493  22.3313065  42.1399231  19.5437775
  21.9675426  41.5445671  20.1991081  22.3323536  42.9959106  19.9721699
   6.9767976  69.9691467  25.8421612   7.6622500  69.6013184  25.2844086
   6.1604009  69.6363602  25.4693565   8.2585564  37.6507072  78.1872482
   7.8748808  38.4525185  78.5423813   8.4943047  37.1357880  78.9589462
  20.8864746  54.7896843  78.4334030  20.5520229  55.6718407  78.5951843
  21.5341396  54.6487045  79.1239777  78.8122253  16.4808083  26.4410934
  78.2311249  15.7272978  26.5448895  78.6832123  16.9943981  27.2384720
  12.7538824  70.0090714  68.8997040  12.3123322  70.5279999  68.2274170
  13.6547174  69.9279251  68.5864258  82.2597504  36.0295639  59.2328987
  82.4687195  36.6699295  58.5528297  82.0997314  36.5557594  60.0163155
  76.7438812  25.3974476   8.8795137  77.2396622  24.6786480   8.4873867
  75.9217834  24.9958954   9.1608467  14.4644537  56.4838943  71.7281113
  13.6085835  56.8973351  71.8411789  14.9358807  56.6841431  72.5367432
  71.7856903  48.9365654  75.0178680  72.4155731  48.9757271  74.2981796
  72.3252716  48.8544769  75.8042145  54.7304459   0.3748860  23.8185463
  53.9348564   0.5392675  24.3247528  54.9715271   1.2316548  23.4663258
  59.5997696  66.2171249  63.3354568  58.8623581  65.7144089  62.9894333
  60.1195335  66.4419250  62.5637436   9.1548786  25.4351368  60.4182625
   9.3784475  24.7233601  59.8185730   9.8060579  25.3730049  61.1170731
  16.3352203  66.9654083  51.0695267  16.8181534  67.5020370  51.6980515
  16.7844696  66.1202621  51.0811539  35.1724472  58.7355957  64.7469330
  34.6643066  58.7842216  63.9372101  35.9922714  58.3134270  64.4902344
  49.4619560  24.0769691  18.0613003  48.5556488  24.2937851  17.8425903
  49.7080002  24.7194214  18.7268448  78.0384903  38.7178154  51.6259041
  78.8101120  38.8635330  52.1732597  77.2970276  38.8798637  52.2091789
  39.1440315   6.3062420  12.9823561  39.1289062   7.0470634  12.3763971
  38.2692032   5.9236875  12.9148417  74.8695602  53.9276085  17.2382812
  75.2072144  54.1735878  18.0995121  74.6113052  53.0110092  17.3351288
  66.4698105  68.3009872  59.5255928  66.7294464  67.9320297  60.3698044
  66.7698212  69.2093506  59.5587540  61.4023933  20.7555218   9.4604807
  61.3108635  20.6832218   8.5104141  61.1926613  19.8810959   9.7885399
  79.5371857   0.5992395   1.5198910  78.6110687   0.8395469   1.5481786
  79.5809021  -0.1109180   0.8795813  57.6530762  46.7829742  70.3304367
  56.8293190  46.3939705  70.0366135  58.0123138  46.1455040  70.9475327
  39.0190010  16.9144268  64.8659134  39.6238365  16.2566757  65.2090836
  38.2982559  16.9287605  65.4956436   8.1471825  47.6482697  83.2591629
   9.0566082  47.7016525  83.5529709   7.8313360  48.5512466  83.2924271
  41.7120361  38.4408646  76.7786179  41.6730537  38.3150520  77.7267075
  41.5998344  39.3836937  76.6573029  35.7496376  -0.0979480  62.8724060
  36.5691490   0.3850455  62.7658424  35.3125877   0.3312274  63.6079483
  66.0605087  67.3591080  30.7817669  66.9613495  67.4296799  31.0975780
  66.1233063  67.5211563  29.8404751  63.7812233  45.2325478  11.1147709
  64.2569122  45.4589996  10.3156023  63.0558777  44.6847763  10.8146811
  23.6662788  58.4388657  52.5767822  24.6026783  58.2589073  52.6604691
  23.2618065  57.9373932  53.2847099  55.9840355  46.7937737  61.4543648
  55.4846039  46.2011414  62.0161324  56.4379425  46.2162971  60.8405914
  62.5522079  65.2522659  40.9731178  62.6260147  66.1835556  41.1816711
  62.7593079  64.8058243  41.7941093  30.7436180  58.0403366  32.8820305
  31.0116272  57.7605171  33.7573013  31.4815235  58.5577888  32.5595818
  17.8145256  46.0980988   2.8587370  18.4569588  46.4331741   2.2332497
  17.7042770  45.1779594   2.6191103  36.0309753   6.3425088  71.6226578
  35.2905464   6.5935011  71.0703888  35.6355362   5.8601408  72.3487320
  50.2602119   9.8872700  12.4645061  49.4344635  10.3289938  12.2663860
  50.0663795   8.9564180  12.3541660  62.2123947  47.8374481  35.0543098
  62.9949646  47.8018837  34.5042610  62.4816933  48.3424034  35.8215981
  26.6314468  64.6599274  63.5391846  26.1183586  64.1933441  64.1989365
  26.1662407  65.4872055  63.4149551  71.8758316   5.2034917  33.8404694
  72.6465454   5.3398781  33.2894440  71.8790207   4.2649879  34.0287056
  62.6642342  27.4128475  12.7992744  62.2685013  26.6476307  13.2164927
  61.9367905  28.0233479  12.6795044   6.9931011  37.8215179  53.9787025
   6.4791074  37.8881035  54.7834435   7.8915911  38.0059738  54.2524261
  29.4090481  10.3379946  70.4826889  30.3597164  10.2431097  70.4238815
  29.1893139  10.9743481  69.8022461  71.0655289   0.1000560  45.5746651
  70.2184906  -0.3299184  45.4568405  71.2339172   0.5311406  44.7367859
  65.4232178  58.2655640  57.7037621  65.7118835  58.2801247  56.7912445
  66.2325211  58.3208847  58.2118988  30.7594185   1.2241182  22.8789577
  29.9341240   1.2443136  22.3944874  31.0196991   0.3030252  22.8703918
  39.7581863  47.8848038  78.0298843  39.7540779  48.4522095  78.8007736
  38.8351059  47.6842270  77.8751984  74.9600449  28.2912388   5.3312745
  75.8738632  28.1105652   5.5515804  74.6459351  27.4813004   4.9293232
  74.6075592  29.0016022  24.6689034  73.9433670  29.1394844  25.3442287
  75.4000702  29.4012585  25.0272751  50.9142265  62.8324928  50.9468040
  50.9798431  62.0066452  50.4673195  50.2266045  63.3192711  50.4924316
  11.7881556  13.6886053   4.0413342  11.5134392  14.4772654   4.5090718
  11.7282839  13.9258833   3.1159441  43.4979477  61.9550896  72.6885223
  42.9361610  61.4523888  73.2783661  42.9282837  62.6423607  72.3430176
   3.4394007  60.6736069  85.7867737   3.9085550  60.3340111  86.5488815
   4.1292338  60.9752502  85.1957016   3.5173841   8.8412209  75.7065353
   2.7946014   8.6840782  75.0989761   4.0648746   9.4902620  75.2646866
  38.0872688  65.0427933  30.9609165  38.6052017  65.8348618  30.8174095
  37.1817245  65.3204041  30.8225117  45.8411140  34.4176903   2.8864989
  46.6852455  34.8688774   2.8762565  45.4216156  34.7127533   3.6947014
   5.3274937  40.8426552   9.7018185   5.1218987  41.5571556  10.3046856
   5.6276846  40.1310539  10.2672768  34.9356728   5.1202326  58.1360893
  35.7459717   4.6608381  58.3565598  34.2588921   4.4444780  58.1755257
  47.9181023  20.2732830   8.8605757  47.1860161  20.6146870   9.3741207
  48.0378304  19.3787556   9.1795092  12.8559542  42.7277641  13.6690979
  13.6920414  43.1217690  13.9179935  12.6219759  43.1609459  12.8482218
  28.7441158  32.0245438  77.9222260  29.4327946  31.4141369  78.1855850
  29.1068649  32.4821701  77.1637955   9.1668463  55.0757179  54.5810013
   8.7937393  54.4323006  53.9784775   8.7830563  54.8589211  55.4306717
  59.3589973  60.7748528  37.4682999  58.7674484  60.2673531  38.0239449
  60.2239380  60.6437569  37.8567886  16.4390202   2.8940825  34.0693474
  17.1213112   3.5500090  33.9262695  16.4877739   2.6979353  35.0049667
  20.0660324  56.5903053  54.1347961  19.1622620  56.6148109  54.4491692
  20.3232822  55.6719666  54.2166710  65.9861984  56.3431702  78.6051331
  66.7905655  56.1200638  79.0735779  65.5769958  55.4987259  78.4161835
  29.8887596  71.6357269  84.1736755  29.7595520  70.7035141  83.9989929
  29.2044067  72.0716629  83.6658783   5.7713227  38.1222572  10.6908531
   4.9277215  37.7239838  10.4765034   5.8938789  37.9371834  11.6219597
  53.9876785   3.1429346  18.0052204  54.0955849   2.1934443  18.0605087
  54.3106880   3.4699879  18.8448238  81.8534470  50.9333267  45.2316284
  81.5384903  51.7167130  45.6825638  81.4107361  50.9510956  44.3831406
  52.2630615  17.2147675   1.9342349  52.2314453  17.4389610   1.0041974
  52.9597206  16.5616016   1.9996065  67.9045181  59.0735512   8.9625130
  68.6423187  59.5401688   9.3551464  67.3241653  59.7659531   8.6462879
  39.5827026  64.6948853  37.4213028  39.4228935  65.1713791  38.2359505
  38.7195053  64.3772125  37.1563530   3.2844367   7.1748433   2.3225815
   3.4423008   7.1056857   1.3810253   3.2582307   6.2681479   2.6282759
  50.1087341  32.3643570  40.3907471  49.8098526  32.6814384  41.2430153
  50.8899117  32.8844070  40.2022209  74.3516693  56.4653015  63.3088684
  73.6786804  56.2780113  63.9632683  74.4757233  57.4131851  63.3573952
  61.4675293  53.8388824  72.7498550  61.0898247  52.9847527  72.5400162
  62.3555679  53.8018913  72.3945465  66.4672546  41.7271919  16.6238995
  65.6091919  41.5783539  17.0211411  67.0918732  41.4192238  17.2805882
  75.4568481  14.7957792  42.6907501  75.8853226  13.9439220  42.7743111
  76.0378265  15.4021873  43.1500626  33.2204590  48.3561897  62.9312706
  34.1529083  48.1572456  63.0160828  32.9593887  48.6561279  63.8019676
  82.2911377  34.7047882  23.2156677  82.6487579  35.5212440  22.8667603
  81.3866348  34.9181671  23.4449654  50.6788292  59.6267471  26.6683807
  50.5689735  60.1449013  25.8710880  49.8291016  59.2060623  26.7996101
  36.5504799  26.6443214   8.0920315  36.4942703  27.3771839   8.7052069
  37.3329659  26.8267879   7.5717878  81.8366013  48.3684311  32.6888771
  81.8671417  47.9521141  33.5502586  81.4374619  47.7109489  32.1191063
  29.7900734  25.6343174  62.3133698  29.0824490  25.1271896  62.7112656
  30.5520916  25.0566196  62.3560829   5.8024287  20.6718674  54.8329048
   5.7121191  20.5232048  53.8916397   5.1172233  21.3067112  55.0419464
  36.9406891  50.3357315   1.9089580  36.5290527  51.1998367   1.8982716
  37.4830475  50.3190308   1.1204145  68.6163406  49.0668564  46.8030434
  68.2126007  48.3865204  47.3419075  69.5213318  48.7765923  46.6891747
  45.5323830  53.8362503   6.1031637  45.0145683  53.0327492   6.0532880
  45.9390793  53.9130592   5.2400703  48.0327187  33.1741982  15.0214205
  48.0813675  32.2203674  14.9576225  47.9964752  33.4734726  14.1129303
  26.8654270  60.8108139  68.1369858  27.0589333  60.3356743  67.3288803
  27.5989609  61.4170952  68.2398682  11.7780371  66.9095840  31.8045883
  12.1393442  67.4927902  31.1370869  10.8303556  67.0258789  31.7366886
  20.9817181   4.8851833  72.1995087  21.1867847   5.3999271  71.4189835
  21.0420933   5.5106440  72.9215775  44.5819244  39.3237152  36.0284386
  44.2157745  40.2076645  36.0002251  43.8714867  38.7809944  36.3704376
   9.3149290  38.0797081  43.1252022   9.1709833  38.9235458  43.5535164
  10.2443752  37.8967857  43.2626839  40.3157806  61.0486107  83.8518448
  40.8085098  60.3978920  84.3518600  39.4017296  60.8899231  84.0875549
  68.6368942  27.9895420  58.2402725  69.1277313  28.7292366  58.5982742
  67.7461472  28.1117020  58.5687332  45.1801682   8.5429716  86.4208832
  44.8306656   8.4701643  87.3090134  44.4048691   8.5936403  85.8618011
  74.2668533  71.0606384   1.5960006  74.0083084  71.3822021   2.4597020
  74.6920929  70.2210159   1.7704566  20.1756344  43.5157585  57.8620491
  20.2646847  43.6110916  56.9137802  20.3160553  42.5827293  58.0232010
  61.3676186  70.4057846  85.2213058  60.7677994  70.1919861  85.9359665
  61.0061760  69.9503784  84.4609146  42.4947243   4.0085392   3.4851732
  41.8615036   4.2529211   2.8102353  43.3308411   3.9576199   3.0219777
  76.9439011  57.8248749  68.7823257  76.7793198  58.2781830  69.6091690
  77.8781815  57.6178818  68.8045044  69.6172104  52.7347832  11.5960608
  70.3107376  52.8923683  12.2367029  68.8064728  52.9179153  12.0708189
  75.3610458   0.7460011  45.5365906  75.8367004   0.1231825  44.9869728
  75.7029572   0.5972545  46.4181786  70.4292755  32.4802208  83.7931747
  69.6635437  31.9163742  83.9025345  70.4775009  32.6384735  82.8503799
  82.5811234  70.2320633  27.4403744  83.2301025  70.5146255  28.0847473
  81.7863617  70.7111893  27.6749344   1.4949535  51.1845131  22.9405899
   1.3105805  51.0168457  23.8647785   1.0968800  50.4463539  22.4791908
  86.5766983  29.7091141   0.3576410  87.4953918  29.4628849   0.2499330
  86.2677917  29.1693668   1.0852964  32.5405273  29.3484631  12.1645947
  32.1708145  28.5827007  11.7251005  32.9538956  28.9959621  12.9526958
  16.5093060  51.5597076  76.8725662  16.1261177  51.8434601  77.7025604
  17.4417725  51.7578163  76.9591217  47.0056610   1.0544924   3.6068745
  46.8313828   1.2410673   4.5293980  47.5513458   1.7842855   3.3138499
  54.4956894  54.2643394   5.3481112  54.6513824  53.3212357   5.2976837
  54.3536377  54.4341888   6.2793498  48.7537041  54.4179268  21.8206520
  48.7342262  53.4897118  22.0536118  49.4736824  54.4926186  21.1943283
  79.0370560  46.4674416  15.5796452  79.5258636  46.9351006  14.9024496
  79.5121307  46.6534348  16.3895473  19.8744850  70.4734268   5.1064515
  18.9178905  70.4596558   5.1375437  20.0836372  71.1579971   4.4709620
  78.1439819  12.8012199  38.3041077  77.8472061  12.5585670  37.4270248
  78.0460052  12.0009480  38.8200531   3.9481599   3.7689545  10.4458685
   4.8258295   3.5989087  10.1037970   4.0924482   4.3319755  11.2064075
  11.5175657  40.3759575  64.9850388  12.3374681  40.4658203  65.4707489
  11.4856062  41.1505966  64.4236603  14.4405279  19.7719460   5.9823675
  13.8751144  20.3734550   5.4978824  15.2993603  19.8662529   5.5703669
  49.7733574  22.6770210  21.2853260  50.1677666  22.0647030  21.9064064
  49.9506874  22.2941723  20.4261341  18.7009411  51.5610313  72.6995239
  17.9005127  51.9256935  73.0771027  18.6297035  51.7456589  71.7630005
   7.3034263  13.4694777  48.5095062   7.7269855  13.6297054  47.6662025
   6.3674555  13.4591322  48.3092957  66.8691254  19.1260567  80.6668396
  66.8279800  18.5301132  79.9189148  67.7284698  18.9633083  81.0557709
  42.5400276  17.6772327  69.7142334  43.4662590  17.8609066  69.8710556
  42.0912781  18.0399075  70.4779968  15.6517763  40.3075066  81.1172028
  15.0391827  39.5899773  80.9556046  16.4541988  39.8758850  81.4105453
  60.8290825  42.0600357  66.1025391  61.0163536  41.5559616  66.8944168
  61.2523537  42.9056015  66.2511749  10.9735880  26.3661289   6.0747628
  10.4888754  25.5486698   6.1889858  11.6323118  26.1631908   5.4105864
  74.6302261  34.1401138  41.5060577  74.6047821  34.1163521  40.5494919
  73.7137070  34.2275848  41.7679329   1.4398460   1.9714854  51.8173485
   1.5893098   1.9741120  50.8718910   1.1843563   2.8709836  52.0219460
  32.5579262  39.0676384  76.4471436  32.5450478  40.0230370  76.3898544
  33.4763947  38.8495483  76.6055069  22.6679401  15.4412918  72.4246597
  22.9374046  16.3260803  72.1781464  21.7727184  15.5447206  72.7473221
  84.1728668  21.3445435   4.0387878  84.2786942  20.6190147   3.4234490
  84.4434433  20.9838772   4.8831468  16.0009441   1.0040456  47.2463036
  16.6345978   1.6149834  47.6224289  16.5218754   0.2392732  47.0013809
  72.4173126   8.1072102  78.6358261  72.7929306   8.5247898  77.8607330
  72.3724518   8.8073063  79.2870483  41.6575241  69.5181198  42.0626030
  40.8709030  69.4238358  41.5254173  41.6063805  68.7976456  42.6907272
  16.3844337  39.1445503  62.3950577  16.9607105  39.2015038  63.1572227
  16.5556679  39.9485817  61.9047050  49.7564468  29.7653561  82.8168259
  50.4540176  30.4195061  82.8582611  49.8482628  29.2655888  83.6280136
  -0.1506560  26.1038818  12.2263451   0.6281673  26.3511944  12.7248459
   0.1711184  25.4851913  11.5706673   4.9614162   4.2900734  68.2967987
   5.1852241   3.4153218  68.6145248   4.0184298   4.3641739  68.4434891
  53.1380005  68.9859924  68.2951584  53.9470291  68.5136108  68.0988083
  52.7123260  68.4606552  68.9726944   5.4915509  44.2656670  65.1970673
   5.5899606  44.9636765  64.5495071   6.2765656  43.7282944  65.0911636
  34.4084091   4.3893805  33.0950012  34.6305275   5.2153444  33.5247421
  35.1628380   3.8235645  33.2590714  86.3949356   2.8291390  88.5453339
  86.1593246   3.5766330  89.0948563  85.9503250   2.0845068  88.9504013
  81.4958038  28.7515812  16.9424553  82.0927582  29.4976368  16.9997196
  80.9580231  28.9337387  16.1718426  47.3793907  46.7371216  79.8942566
  46.9096413  47.5591850  80.0349045  47.8108215  46.8496895  79.0472412
  49.7660217  49.5907822  50.3889961  48.9316521  49.1671333  50.1875381
  49.5435257  50.2646866  51.0313225  76.1090927  28.4380913  59.9395866
  75.5895386  27.6882515  59.6497040  76.1791000  28.3287048  60.8879356
  63.0439529  13.3962898  39.3652344  63.9485397  13.6625891  39.2008057
  63.1172905  12.6646299  39.9780388  55.1456223  25.4096088  86.7805405
  55.6484222  25.4065266  87.5950394  55.8040924  25.5090294  86.0929642
   7.3560143  33.3051796  61.6005974   7.3514380  34.1955757  61.2492981
   6.4828663  33.1912956  61.9759293  64.4504318  51.7574005  13.1772671
  63.7727432  52.1974373  12.6640968  63.9868240  51.0560188  13.6348267
  15.4620256  59.7631760  29.4613838  15.7551765  60.4904327  28.9123917
  14.6261930  60.0578461  29.8230247  65.7515411  68.4231567  10.8580351
  66.6724091  68.1774521  10.9467249  65.3840866  68.2947159  11.7325144
  67.2224884  48.8331985  73.4947662  66.4901657  49.1409149  72.9606934
  67.2901230  49.4754105  74.2013245  77.9817886   0.5077251  75.1672287
  77.2493668   1.1044804  75.0133438  77.6271973  -0.1603821  75.7538528
  16.4881001  25.0856762  74.4433594  15.8048897  25.5554371  74.9216690
  16.1515446  24.1935253  74.3595200  30.6424904  44.8896637  45.7889290
  30.0043983  45.5748596  45.9878693  30.6652660  44.8539162  44.8326683
  75.1729965  56.5657120  41.3862000  75.7122498  57.1340408  41.9361420
  75.5976791  56.5891304  40.5286865  79.9863434  20.2943096  47.6890793
  79.1736298  20.6090527  48.0848770  79.7164307  19.9278355  46.8470154
  32.9861259  16.9318714  63.5735817  33.4293518  16.0867863  63.6484833
  33.6389885  17.5106792  63.1799049  58.3493881  10.9529572  49.1190376
  58.6722679  11.3891687  48.3305588  58.7570496  10.0871677  49.0977554
   4.8958282  37.7137070  36.8303947   4.8313532  38.6460876  36.6236649
   4.0114760  37.4666100  37.1007576  45.2276917  47.7824974  55.1201324
  44.8975754  47.3533821  55.9095116  44.5850143  47.5675850  54.4441071
  45.6722031  61.6325188  48.5320969  45.6847191  60.9293671  49.1814461
  44.7648544  61.9373550  48.5266190  65.1821899  54.0890160  55.6276436
  65.3666000  54.2609062  56.5510483  66.0388641  53.9042549  55.2426720
  39.3303261  55.2246552  11.7409000  39.3972435  54.2948914  11.9583645
  38.4323959  55.3333321  11.4276142  39.9067574  29.7858715  61.1642532
  40.0913696  30.4226589  60.4738541  40.4612198  30.0579491  61.8955383
  67.9606552  32.5467377  17.6227646  68.4157028  33.3334885  17.3224564
  68.6322021  31.8646698  17.6168804  52.7406158  34.4491043  12.2906199
  53.1736031  35.1540909  11.8092213  51.8167839  34.6993599  12.3024130
   7.5979633  25.1892395  17.0020828   6.7919626  24.8286858  16.6324940
   7.9499865  25.7482300  16.3093758  42.6079140  63.2910805  44.8466415
  42.8972206  63.2854385  43.9342270  43.3592224  62.9591789  45.3381844
  54.4667015   5.9940915  84.5598526  53.8482018   6.4211936  83.9671707
  54.5881996   6.6217923  85.2722168  32.8335190  28.4775524  44.2418060
  33.4218788  27.7931385  44.5606232  32.2703896  28.0332012  43.6080322
  66.9739227  55.3840790  86.3701782  66.7982483  56.1162567  86.9611816
  67.9158630  55.2332268  86.4491348   2.0458510  42.7745056  44.0394211
   2.6635232  42.0452652  44.0934715   1.2251327  42.3726196  43.7545662
   6.1206293  15.1813526  39.2641487   6.3339119  14.8028421  38.4112282
   5.2080221  14.9346542  39.4142151  17.2975941  28.8235512  88.5980072
  17.9658012  28.2176228  88.2777252  16.5016594  28.2947578  88.6536560
  23.7918510  46.2273788  88.5253220  24.5258389  46.4496727  87.9525375
  23.1166382  45.8976479  87.9323654  54.4243813  66.1151810  61.7984848
  53.7110634  66.1185226  61.1602058  55.1623993  65.7241898  61.3308411
  69.4811249  43.2172279  58.7521591  69.3881836  44.1600380  58.8889046
  70.0005188  43.1413574  57.9517212  52.7992096  70.4152908  81.8150024
  52.5907211  71.1352615  82.4103241  53.7134590  70.5621414  81.5724792
  22.9822483   4.7106037  29.0434151  22.0618210   4.6719279  29.3033161
  23.1134930   5.6156602  28.7607841  21.7126083  17.5323620  14.8628693
  20.8241596  17.8034382  14.6317711  21.5942650  16.9118519  15.5820312
  76.0109482  71.3131638  47.7761078  75.5871506  71.6599579  48.5611916
  76.9359436  71.5334091  47.8861237  85.8638382  39.8649292  70.1211929
  86.3819656  40.2601624  70.8223114  86.4634552  39.2510185  69.6971588
  55.9443130  59.3825836  85.4885941  56.5575562  59.4062195  86.2231750
  56.2462234  60.0762329  84.9021378  42.1651573  23.0598965  78.4498825
  43.0167198  23.0234127  78.8854752  42.2096329  22.3780785  77.7795258
  27.5282497  23.4444122  86.7293930  28.1248837  23.8836441  86.1233139
  27.4642849  22.5494041  86.3960800  48.6734962  51.0294571  22.4392395
  49.5363541  50.6434402  22.2885742  48.3484879  51.2386703  21.5635509
  28.0126629  62.5341911  54.4670830  28.8997669  62.8885384  54.4061203
  27.4441128  63.3029861  54.4230690  57.4830208   5.7860217  27.2683353
  56.8176422   5.7348685  26.5821228  57.9178467   4.9336252  27.2443466
   2.1865842  18.8072033  27.9400654   1.3889548  18.3864536  27.6191463
   2.0951796  19.7238178  27.6798801  53.8136978  65.6468506  13.8206348
  54.3910294  65.7408600  14.5783167  53.3424301  66.4786911  13.7739325
  19.3406239  21.0635357  82.2039490  19.3573074  20.1572971  81.8962402
  18.4099503  21.2795925  82.2622375  84.1633682  19.9461670  39.8743515
  83.2342453  19.7161350  39.8669395  84.4936371  19.6359940  39.0311775
  83.2108994  24.1459999  26.4376259  84.0444412  24.3529720  26.8602409
  83.4578781  23.7520256  25.6009560  49.3437576  58.1614723  46.8725967
  48.8650246  57.3959732  47.1904869  50.2660637  57.9247322  46.9702797
  14.1502829  40.4829369  26.6873798  14.1034546  40.6693077  25.7496662
  14.8773308  41.0200195  27.0023041  22.2141476  45.4597588  58.6921921
  22.8431091  44.7793388  58.4520493  21.3825836  44.9950180  58.7857094
  15.0578766  56.6053276  32.1570587  14.1393461  56.7619743  32.3761406
  15.4757023  57.4614677  32.2502289  86.6716385  41.9016914  13.9224529
  85.9300842  41.8190384  13.3228788  86.7613983  41.0326881  14.3136129
  35.9560242  50.9811058  12.7872934  35.2314034  50.4586067  13.1310196
  35.8718719  50.9110336  11.8363781  26.0288887  19.0318909  45.0386925
  25.5269089  18.2919235  44.6970863  26.2910709  18.7580967  45.9176292
  46.4483833  31.2446289  40.1048088  45.5709915  30.9861622  40.3869629
  46.4947472  32.1816406  40.2947884  24.1970272  62.8093071  80.1265945
  24.0089931  63.6463165  80.5512085  24.0213470  62.1535912  80.8014297
  57.0607567  39.9284325  82.1546860  56.7316513  39.1015282  81.8023300
  56.2767982  40.3925972  82.4482651  64.8255157  46.9141541  72.3845367
  65.7055740  46.5424881  72.3246155  64.4679031  46.5534248  73.1958389
  73.1320648  26.7905979  30.6661148  73.3642120  27.5620823  30.1492481
  72.2845917  27.0084171  31.0541553  33.8817673  13.1130838  80.5212250
  33.4723740  13.5504704  79.7746887  34.5882683  13.7021332  80.7860031
  34.6972961  46.7435989  42.5546875  34.3160515  47.1733894  41.7890701
  34.3490639  45.8524132  42.5272560   5.4356699  53.5036659  50.1722908
   6.0827432  54.2047272  50.2499924   4.5951357  53.9584351  50.1182747
   9.8279657   2.6427257  21.1461830  10.0888977   3.3221009  21.7679501
  10.5658178   2.0330896  21.1339302  58.2045288   6.0307894  47.0829277
  57.8965073   6.6567612  46.4275551  57.4252548   5.5270252  47.3178368
  31.8387871  43.7622528  72.3063965  31.8031425  42.8188324  72.4642563
  31.5418034  43.8652039  71.4022827   9.2892237  31.7529335  85.0367508
   9.8727789  31.2150497  84.5016098   8.6140375  32.0523796  84.4279099
  76.0991440  43.6424866  39.0698204  76.8141022  43.0128517  38.9769173
  76.4387436  44.3031464  39.6735039  55.9064293  13.0462303  25.9685860
  55.9315262  12.3415241  26.6158829  56.0448608  13.8445816  26.4781971
  83.3964310  30.4793072  41.4761429  83.9419479  31.2204742  41.7394066
  83.7186966  29.7464256  42.0007935  46.0945854  64.6228943  37.4620209
  45.4244041  64.0002365  37.7437744  45.8872299  64.7990036  36.5442963
  39.5194702  66.6472321  89.0694122  39.8123970  65.9161682  89.6134415
  38.8477325  66.2692871  88.5018158  15.4000635  46.8042564  84.8042984
  15.5645647  46.1683617  85.5005798  16.2712154  47.0965080  84.5361252
   9.5685759  32.8194809   6.3789120   9.2209177  33.4178810   7.0401840
  10.1804609  32.2614212   6.8589110  49.5378609  48.1452065  75.0366974
  50.0905762  48.8891602  75.2760239  48.8927650  48.5110054  74.4314880
  30.3307877  31.2844772  73.3893051  30.5646725  30.7394352  72.6379929
  29.6198387  31.8401890  73.0699844  81.5384293  62.6958275  61.2105484
  81.6247101  62.8434982  62.1523476  81.0597000  63.4606667  60.8910561
  64.2246857  22.0548153  14.1349087  65.1364594  22.2752266  14.3254881
  64.1892166  21.9863529  13.1808195   4.1615829   7.7611523   4.8545556
   4.3241415   8.7040844   4.8283582   3.9461985   7.5300446   3.9509902
  81.4790115  27.1331882  38.8144112  80.8929977  26.6345234  39.3837509
  81.0075073  27.1989269  37.9839935   9.3750515  50.6613922  85.4501190
   9.3734751  49.7843399  85.8335419   9.5019388  51.2484055  86.1954727
  31.3966160  58.2190208  35.7187462  31.6938686  59.0962219  35.4770966
  30.5201168  58.3539276  36.0789986  53.6602936  61.5895615  17.3300591
  53.2944870  62.3424072  17.7944241  54.3467407  61.9605522  16.7756367
   7.5694509  18.4420547  72.4440842   8.2471819  17.9868507  71.9443817
   6.8554764  18.5686378  71.8192215  67.4101181  27.1422634  33.6889725
  68.1077271  26.9608173  33.0591698  67.6647644  26.6582031  34.4745140
  82.4216919  69.0216751  43.2961617  83.3118057  68.7282333  43.1016922
  82.0441437  68.3126984  43.8167763   9.0658627  32.3024406  68.8537521
   9.8079290  32.8946266  68.7317581   8.4800129  32.7717705  69.4476700
  48.4217072  42.5872002  58.4850426  48.9404831  41.7902451  58.5944633
  47.6734505  42.4681053  59.0699844  72.5645828  63.0293617   3.1493509
  72.2334061  63.4209862   3.9575493  73.1837769  62.3611641   3.4431937
  39.5032043  47.5445557  20.5055847  38.8890457  47.1066666  19.9162674
  39.0987129  47.4719810  21.3700790  28.5523090   3.0070908  52.4982185
  29.0041523   3.8418491  52.3747368  28.4116440   2.9483767  53.4432030
   9.3559856  68.1592789  31.4417877   8.8579912  67.7109833  30.7582169
   8.9682961  69.0333176  31.4864101  85.2231750  68.1419830  89.0544739
  85.2181244  67.8615112  88.1393051  85.2422256  69.0980453  89.0118790
  14.8811121   7.0098290   3.2841430  15.8264484   7.0341301   3.4323988
  14.7876272   7.0234547   2.3316164  68.1518173  52.5043869  58.0203896
  68.0061646  51.9886894  58.8135300  67.5339279  52.1446495  57.3839645
   9.3814287  36.3836555  68.9132462   9.5614328  36.3952675  67.9731979
   9.7848673  35.5733032  69.2243729  30.8036060  54.4966278  84.3708496
  30.1588707  55.1644402  84.1372299  30.4595890  53.6882553  83.9908295
  85.3352509  29.2705250  15.5303707  86.1974335  29.1551476  15.9298210
  85.1426620  28.4238319  15.1275663  82.3555832  68.4430161  71.3644485
  82.9090347  68.6821671  70.6209946  81.7204819  69.1562119  71.4294434
  48.4769173  30.1039581   3.4015691  48.1596527  29.2203903   3.5883389
  48.1084709  30.6435852   4.1010547  65.3363724  54.7830544  17.6708374
  65.6204834  53.8702545  17.6227551  65.8744507  55.1651688  18.3641548
  60.4757500  56.6367683   2.4642701  60.6931877  57.4932899   2.0964074
  61.0900764  56.0335236   2.0460234  78.3842468  38.1947899  10.3425589
  77.9804916  37.5211105  10.8897076  79.0295868  37.7216949   9.8172569
  82.4368668  30.8043880  39.0199127  81.5694199  30.4901371  39.2749100
  82.9122391  30.8921185  39.8460808  63.8764076  23.4168034   3.8460414
  64.6376953  23.0755634   3.3767598  64.0925140  23.2987080   4.7710199
   8.1777182  14.7564650  17.2797413   7.5611444  14.5109606  16.5899620
   7.8207746  14.3574085  18.0732002  45.9922676  42.4505806  88.9066772
  46.7567825  42.0339432  89.3043747  45.2736931  41.8402519  89.0721664
  40.0459442  12.9871845  87.2178802  39.9485283  12.1326399  87.6379929
  39.8701057  12.8202782  86.2918930  46.0970078  60.5652428  28.7711754
  45.2237778  60.8545685  28.5066185  46.0708733  59.6125488  28.6821327
  52.8502197  63.9359398  76.9988174  52.7514572  63.6327896  76.0962830
  52.2018623  63.4337616  77.4924622  21.9455166  48.5483780  15.8616085
  22.6178780  49.1340332  16.2097073  22.3768940  47.6958275  15.8041439
  16.4298687  35.0413399  51.7990150  16.4069977  34.9015999  52.7456818
  15.9585714  34.2920151  51.4348412   1.3413464  63.6453934  32.8061333
   1.5915216  63.8878899  33.6976700   2.1053524  63.1841431  32.4600525
  66.0629883  58.4749336  44.5741920  65.5935669  58.9003868  43.8566551
  65.3745193  58.1891899  45.1746864  58.1959457  45.7313728  13.4051638
  57.6032372  45.3663368  14.0621862  57.6193581  46.0291710  12.7015333
  75.6213608  20.3865604  66.5897903  75.9382248  21.0673428  65.9961853
  75.9027634  19.5660038  66.1851501  64.5248413  55.7271996  39.1100693
  64.0917053  55.6072044  38.2649498  65.2656555  56.3027687  38.9199486
  25.1306515  48.3290367  47.9056244  24.7971821  49.1096611  47.4632988
  24.3913765  48.0143356  48.4258842  17.0049820  13.8011570   2.2494676
  17.4727592  13.0599794   1.8646641  17.3183002  14.5620718   1.7605180
  76.6029205  41.9784050  58.7487221  77.0153198  42.7744637  58.4133873
  77.1279984  41.2653236  58.3853493  74.1370087   5.5889306  73.0453644
  74.1137848   5.1751976  72.1825104  74.8880615   6.1810999  73.0069122
   1.7843466  46.6567345   9.6743259   1.6640781  47.6055679   9.7128038
   1.9357791  46.4718933   8.7474308   3.5672677   6.9239516  81.6054382
   2.6266937   6.7691379  81.5183487   3.9498961   6.0483751  81.6619492
  24.7050114   1.4965160  16.8551235  24.8139019   0.6169695  16.4934978
  24.7061920   2.0718489  16.0901241   7.2955632  14.6029453  76.9208374
   7.1615448  14.3679438  77.8390121   7.4867163  13.7717552  76.4863052
  20.4034328  14.8539867  11.4965076  20.6429577  14.4065657  10.6849203
  20.5188370  15.7837629  11.3004742  14.5479155  21.4025612   8.2560148
  13.7309027  21.0150394   8.5699406  14.8162889  20.8399181   7.5296259
  66.5283051   4.2462811  61.7977562  65.7796021   4.5339537  61.2753372
  67.1160889   5.0016541  61.8101692   1.0075010  40.1762238  38.2449341
   0.9869776  40.2830353  39.1959343   0.1797896  40.5510635  37.9438972
   7.2907267  68.9472504   6.4829273   7.2439003  68.3442154   7.2248068
   6.5346375  68.7202072   5.9416227  39.0677452  54.1035728  64.6698227
  39.1294479  54.8822212  65.2231064  38.1415482  54.0499649  64.4341965
  60.1170883  64.0614548  41.2881470  60.8272820  64.6053772  40.9475555
  59.7196541  64.5914993  41.9790382  21.5694160  63.4577484   3.4657497
  21.6966801  63.3317413   2.5254531  20.8161659  62.9078598   3.6813104
  76.2213516  63.2573853  89.0014725  76.0313568  62.5190048  88.4227448
  76.4680481  63.9681816  88.4097443  13.1690207  49.4070129  56.8319168
  14.0276041  49.5240860  57.2385597  12.5547962  49.8004684  57.4517174
  64.2660141  27.4437370  70.0313339  63.4282494  27.8987713  70.1169128
  64.2011795  26.9772434  69.1980209  59.0257683  40.0769310  35.2658920
  58.9392548  39.4946175  36.0206528  58.2749176  39.8639297  34.7117386
  59.8315964  24.5228119  77.2187576  59.8755646  23.8860645  77.9320984
  60.1300507  24.0400105  76.4480057  40.7000084   0.8129995  74.4745483
  40.1975136   0.4747243  75.2156982  40.2655220   0.4476205  73.7038727
   8.4224730   0.7912891  86.7224350   8.3263588   1.6013141  87.2232895
   7.5486865   0.6225317  86.3699493   1.6010476  38.7522621  68.9536438
   2.2106802  38.4946136  69.6451569   2.1625068  39.0544548  68.2397232
  15.7883587  33.7220573  81.9024658  15.8222752  33.7328491  80.9459305
  16.4193554  34.3894386  82.1720505  82.8117523  70.3593826  17.0521336
  82.3360901  69.9251785  17.7602615  82.1975479  70.3629379  16.3179855
   7.5996146  36.3470802  81.4817657   8.4693537  36.1712723  81.1227722
   7.4302106  35.6114044  82.0702438  54.4703827  47.9000626  29.7146893
  54.7961235  48.0506821  28.8273106  53.6215897  48.3419991  29.7364845
  24.2825832  44.1891556  72.4573593  25.1462021  43.8217735  72.6455688
  24.3209248  44.4289894  71.5314865   0.2034762  71.1221542  82.9830856
   0.5692759  71.9502411  82.6721268  -0.0644171  71.3020477  83.8842545
  22.1278229  21.1844349  11.7118778  22.8299942  21.8130264  11.5443649
  21.3265171  21.7072487  11.6834936  30.3346519  69.9224625  88.6430283
  30.2509403  70.2292786  89.5458527  29.9610195  70.6278305  88.1147385
  58.3219299  20.1882019  28.4545689  58.2242317  19.3054142  28.0976734
  58.6572456  20.7065353  27.7230473  24.3418198   6.4545083  80.1218185
  25.2032394   6.5451584  79.7144165  24.5028458   6.5910902  81.0554352
  76.5710983  55.1618462  58.4050217  76.2229080  55.3944397  59.2657738
  76.7134247  54.2164383  58.4517174  86.0205307  51.1383133  52.9526939
  85.6566162  51.6985970  53.6381721  86.1734543  51.7298927  52.2158928
  21.5279980  17.7320824  58.2695198  20.6827469  18.1556854  58.1200447
  21.7286701  17.2985840  57.4400368  27.4598885  70.1305466  36.1755142
  28.2142849  70.4322128  36.6815948  26.8385963  70.8576279  36.2152481
  13.7130327  49.0760345  21.0888443  14.0847130  49.8115196  21.5758228
  13.3114939  48.5233231  21.7592964  60.5483704  37.8788719  88.2547150
  61.4215584  38.2700768  88.2275314  59.9819908  38.5280304  87.8375320
  66.6571960  51.6749649  55.9485474  66.1652451  51.6120110  55.1298561
  67.0500717  50.8091316  56.0590782  65.3247223  10.7718220  61.7640648
  64.8527069  10.8109684  60.9322548  66.2458725  10.7011356  61.5136414
  16.9005623  67.1406097  17.7958565  16.0308876  66.9960556  18.1686897
  17.4523602  66.4777908  18.2110920  53.4758568  54.7068329  62.2428932
  53.5646667  54.6009178  63.1900597  53.9820023  53.9837303  61.8725243
  19.1308746  67.5270767  51.3439369  19.9846573  67.4657669  50.9155350
  19.2867966  67.2133636  52.2347260  27.7418766   3.0421154  24.2399864
  27.7922840   3.6706045  23.5197830  26.9283829   3.2625301  24.6937237
  51.1221466  29.2794304  20.4999084  52.0340462  29.1365757  20.2464104
  50.8839569  28.4929047  20.9906960   5.9812555   9.3099127   1.7487571
   6.1244316   8.3822584   1.9363432   5.3231306   9.3149290   1.0537188
  77.1848602  53.4487877  80.5423813  77.3087769  54.3975487  80.5153427
  77.7506256  53.1535835  81.2558212  31.0258083  46.8512421  18.4797592
  31.8364182  47.3562965  18.5435143  31.2305508  46.0157089  18.8995209
  29.3100891   8.0568953  77.6900635  30.1005898   8.1043301  77.1523895
  29.6039391   7.6688042  78.5142441  78.1456299  66.0674362  11.3616590
  78.4481049  65.1601257  11.4008007  78.9059677  66.5602798  11.0530767
  57.8871651  58.9081955  38.9521255  58.3898354  58.1239662  38.7318192
  57.9841118  58.9963036  39.9003181  53.7862740  17.2762299  51.3992462
  53.4251060  16.3940220  51.4858627  54.2689857  17.2573509  50.5728912
  41.9955215  67.0119019  35.2841759  42.1448784  67.4853592  36.1025658
  42.1580734  66.0948029  35.5049438  62.3658104  39.2509193  24.8090229
  61.6497574  39.8002815  25.1279316  61.9414177  38.4356918  24.5415745
  44.5486832  23.3088760  12.5290909  44.6681061  23.1047459  13.4566145
  45.3652344  23.0292377  12.1152363  49.9939804   8.6489134  59.9777908
  50.8298073   8.3759251  60.3560791  49.3413162   8.1101627  60.4250183
  72.0077972  37.2377434   1.9318547  71.4249802  37.5887032   1.2585154
  71.4351425  36.7209702   2.4986467  18.7597237  46.2292137   5.4729905
  18.4987602  46.1391449   4.5564656  18.3904610  47.0691452   5.7457333
  70.8498917  15.7010946  19.3746605  71.7931213  15.7228661  19.2131748
  70.4569550  15.7224407  18.5020943  19.0299931  47.4289017  64.5355682
  19.6891994  46.8462372  64.1585007  19.1545696  48.2599373  64.0772018
  39.5204048  37.3530769  16.5283890  39.1041756  38.1605492  16.2267685
  39.9364128  36.9913063  15.7458982  75.7241364  56.6957130  10.6571560
  76.1203842  56.4704399   9.8154488  75.3729095  55.8681068  10.9856844
  22.1170807  46.5801430   2.5251350  23.0243454  46.2974510   2.4103084
  21.7356167  45.9281044   3.1129787  79.0476761  63.7054901  75.9486160
  79.6713257  64.2212982  76.4597321  79.2724609  63.8924103  75.0371552
  19.9906025  61.1276741   4.0968099  20.5911713  60.3958702   4.2382836
  19.4451008  61.1452980   4.8831611  55.2615814  20.1330261  32.7764893
  55.2962532  20.5534897  33.6357002  55.9660912  19.4853973  32.7981567
  41.6885719  44.3309860  15.4152298  41.2942543  44.5085449  14.5612869
  41.1065826  44.7609558  16.0418453  57.3151550  52.0853386  85.7045822
  58.1545639  52.5047798  85.5156555  57.1772652  52.2359200  86.6397476
  82.1613235  58.4486618  78.9033432  81.4496689  58.7792320  78.3551636
  82.6643829  59.2282829  79.1386261  83.4399872  37.5085373   8.5039387
  84.0697250  37.8793373   9.1221409  83.7225342  36.6011772   8.3895073
  18.6872635  60.7021828   6.5892558  18.5402069  60.7060318   7.5350847
  18.2446880  61.4905396   6.2748456   7.5593138  20.4440613  65.5765762
   7.1852803  21.3152962  65.4451218   7.7371030  20.1238136  64.6922302
  16.6675529  22.5127735  87.6210938  17.6110630  22.6650257  87.6743927
  16.5045719  22.3417091  86.6935120  30.6520042  65.3633652  20.7582245
  30.3683186  64.4508896  20.7021408  30.5449429  65.7025223  19.8695526
  55.6791000  59.2771111  15.0254478  55.8099861  58.7146759  14.2620544
  54.7363472  59.2447662  15.1879520  46.5567360  27.7431583  85.0734940
  46.1523056  27.4971638  85.9054489  46.2867165  27.0565624  84.4636459
  40.5600357  31.0930710  82.0922089  39.8715096  30.4652119  81.8732224
  40.1336784  31.7231731  82.6730881  70.8069382   6.8870354  14.0483332
  70.8310089   6.5095587  13.1690359  70.1121521   6.4051013  14.4969320
  50.6685562  34.0054207  19.6478424  50.8315315  34.1724663  20.5761566
  49.9794464  34.6258240  19.4102211  70.3276672  48.9456673  88.5349808
  70.9501266  48.3704262  88.9798126  70.4182739  48.7253456  87.6078949
  34.4700890   1.5981151   7.0190601  33.9418335   1.2263527   6.3126822
  35.2891693   1.1035682   6.9913583  35.3221359  30.4747620  15.8408651
  35.8084717  29.7419643  15.4630880  35.9790611  30.9728432  16.3272762
  21.1644287  45.4628754  81.1514587  20.6546974  45.5544014  80.3464508
  21.9131012  46.0464935  81.0285416   0.9177676  46.2542648  50.3334579
   0.9164161  46.1874695  49.3785896   1.7763520  45.9220619  50.5955772
   4.6226192   8.9309025  13.7384510   4.8283825   8.4750452  14.5545931
   5.4046030   8.8189983  13.1978865  11.5801792  65.6007004  74.7656631
  10.9264393  66.2380981  75.0530396  11.1507893  64.7520294  74.8734207
  41.2708588  51.7574272  55.3884163  40.9582214  51.8654289  54.4901810
  42.2050819  51.5705566  55.2960205  79.8671036  30.2841530  39.8014374
  79.7837524  29.5845604  40.4494019  79.8464279  31.0909748  40.3160706
  48.8159485  26.6950779  81.6053162  49.7392464  26.5412407  81.8055496
  48.4692802  27.1234188  82.3879852   3.2042270  28.9942379  40.0659561
   3.7556174  29.7473316  40.2782097   3.6746299  28.2433453  40.4280510
  56.9192085  37.8957939  87.7695847  56.2029305  37.6990623  88.3732986
  57.6272392  38.2095871  88.3321228   8.0566616  23.5524750  77.3161621
   8.0629082  23.2435150  76.4102173   7.4849372  24.3200703  77.3035049
   9.9354944   4.3247952  10.6421852  10.8327866   4.5665178  10.8716850
   9.8847351   3.3873808  10.8290262  70.7824173  45.0976219  31.8495388
  70.8349686  45.1896629  30.8982239  70.7834320  45.9968491  32.1775894
  68.9856491  21.3357906  56.9518585  68.6084671  20.4987011  57.2225113
  68.4478607  21.6120472  56.2097664  41.1221428  39.7334824  87.9163895
  40.6322327  40.5054131  87.6329422  41.0447311  39.1192780  87.1863327
  45.5401344  38.0647850  66.6620255  46.1179657  37.3450813  66.9157333
  44.8656769  37.6517525  66.1228180  35.0965042  26.4824028  18.8161964
  35.1377106  26.4859886  17.8598919  35.9262276  26.0916328  19.0902195
  10.6763268  15.8037901  17.5923824  10.8589497  15.7403612  16.6549072
   9.7611284  15.5363436  17.6767445  42.9344940  55.2314453   3.4100690
  42.0676765  55.4313087   3.0566404  43.0839272  55.9052658   4.0732918
  55.8544731  44.8167038  77.2795029  56.6052628  44.7327843  76.6917038
  55.2026825  45.2965736  76.7684937  56.4521599  11.4944277  86.4622803
  56.1176529  12.2574863  86.9335327  55.8730507  11.4077425  85.7050858
   3.0522914  10.5198879  57.7217484   3.6083233   9.8792248  57.2783394
   2.7454257  11.0959759  57.0216141  61.2717438  23.1590710  70.7075653
  60.8435516  23.2014256  71.5626068  62.1239929  23.5723591  70.8457642
  35.4307098  35.6057091  83.7131729  35.1834602  34.9049187  84.3164902
  34.7036629  35.6550522  83.0925293  66.7672729  33.6311874  87.4972229
  66.1989059  34.3648911  87.7314529  66.5005798  32.9244347  88.0851059
  14.1175852  44.3256340   9.6787357  14.5613213  44.9430122  10.2602644
  14.8277035  43.8603172   9.2366438   8.3661690  38.4822998  62.9426537
   7.4763384  38.8177948  62.8336678   8.2494068  37.6158524  63.3323517
  21.8939743  60.2822227  55.8074837  21.0006790  60.5965576  55.6680298
  22.2501373  60.8632355  56.4796486   1.8305856  54.2888680  23.5338192
   1.9653137  53.8517303  24.3746471   2.5732355  54.0109367  22.9976692
  62.4504623  28.2813492  36.7851448  62.0408173  27.7533722  37.4704666
  62.7586823  27.6423512  36.1425629  44.2354622  53.0783806  21.7936211
  44.7319489  53.4276199  21.0535107  44.8816528  52.9872818  22.4938831
  25.9676800   2.6140993  61.7034683  25.5944958   1.7384942  61.8048668
  25.5325718   3.1391630  62.3751984  75.4621887  17.1417828  24.1093426
  74.9259720  16.5739365  23.5559349  76.1061707  17.5205650  23.5109749
  62.9674416  61.4855309  64.2983627  62.2925758  62.0512276  64.6735687
  62.4859924  60.7311363  63.9587669  44.4378967  23.2196789   4.8707108
  44.4230728  23.4028320   5.8101082  45.0887985  23.8267670   4.5185690
   6.6166983  71.9693146  43.3700256   6.5134821  71.1188736  42.9430199
   6.9301004  71.7591705  44.2497101  26.8585377  27.4039173   4.6619849
  26.5238113  26.5723152   4.9975858  27.4917107  27.1532784   3.9893010
  49.1422539  47.2779045  84.5806656  49.1277847  46.7688446  83.7701874
  50.0059395  47.6904678  84.5889893  22.2625713  43.0159836  16.7825089
  22.0063229  42.3294945  17.3983803  21.7832508  42.8090935  15.9802113
  71.2976837  12.1050348  34.0679893  72.0613022  11.5559282  33.8902130
  71.6289978  12.7986021  34.6384506  32.9017868  58.7964668  40.0362701
  33.4969215  58.3674164  40.6510582  33.4227371  58.9154930  39.2421227
  63.9494743  23.9977474  64.5314255  63.1005211  24.4111500  64.6883087
  64.5787964  24.5679283  64.9730988  40.1043892  64.6151276  48.5500412
  40.0340233  65.5227966  48.2543869  40.0296669  64.6671219  49.5028992
  24.9560528  38.2476768  72.7072906  24.9516010  38.4359398  73.6457901
  24.8786488  37.2951164  72.6537247   3.3757405  16.3022575  72.0422592
   3.0476179  17.1314011  71.6942825   3.9586537  15.9699392  71.3596115
  16.9049168  38.6052513  11.4026117  17.1515827  38.0887375  10.6354103
  15.9591074  38.7248840  11.3168077  10.9534130  42.6158638  33.0430870
  11.8848400  42.5595322  32.8297768  10.5618610  43.0598564  32.2908974
  80.6865845  10.4000826  81.0889282  81.4706421  10.9462576  81.0325928
  80.4455490  10.4218588  82.0150223  51.1585884  17.3492451  76.2142639
  52.0606194  17.0603237  76.3524628  51.1122665  18.2034988  76.6436081
  44.3049164  46.5740433  83.1763992  44.3122635  47.5050316  83.3987427
  43.6452408  46.1943703  83.7568436  72.9622803  35.7948532  88.9590912
  73.1278610  36.3569298  88.2021942  72.8125839  36.4043274  89.6818390
  33.1444740  30.3395023  82.2971115  33.8396835  29.6829472  82.3400955
  33.3959351  30.9072666  81.5686569  51.6504593  33.7456894  61.1517448
  52.5413666  34.0355644  61.3479233  51.7551804  32.8498192  60.8312988
  19.6979904  48.1286278  45.1249924  19.0516434  47.8200798  44.4899597
  20.2564220  48.7259483  44.6274071   8.5171223  27.5310097  81.6638260
   7.6045074  27.7655926  81.4954910   8.6432018  27.7125187  82.5951614
  79.6708450  13.9145937  21.0623398  79.8452835  13.0322313  21.3898125
  79.0847778  13.7820215  20.3172302  37.6118431  67.5932312  20.5357780
  38.2089043  68.1816788  20.0737457  37.5136299  67.9847488  21.4037075
  63.1050301  38.1833229  13.3306627  63.8543777  37.6308098  13.5530128
  62.6588593  37.7104301  12.6281414  27.2121887  69.7326584  53.0765915
  27.3272991  69.5860367  52.1377182  26.4916573  70.3601303  53.1344414
  14.1320171  49.9427834   8.0864725  14.6257496  50.3787117   7.3919044
  14.0679674  50.5974083   8.7818813  31.9234276  54.9640503  15.4781103
  32.8564682  54.8420906  15.3026409  31.4924946  54.2753906  14.9718723
  57.0247650  36.3340569  39.7863350  57.2843132  36.3340492  38.8649940
  56.0874138  36.1407394  39.7711143   5.5383625  29.3818417  72.0612640
   5.1261163  28.5427780  72.2668228   6.4566402  29.1645679  71.9006729
  83.4227219  46.3818207  77.1729584  83.9555588  46.5235367  76.3905029
  83.2043381  47.2628479  77.4768143  54.2302551  44.9249802  62.6042290
  53.7762566  45.2357979  63.3874969  53.6493607  45.1612701  61.8810692
  29.2880821   6.2984362   8.3793306  29.8007050   5.9213252   9.0943394
  29.9039192   6.8670006   7.9170413  54.3935814  45.1198120  57.6553841
  53.6360130  45.6858482  57.8034630  54.1215401  44.5359230  56.9473572
  34.1088333  22.1615181  68.1609421  33.5143929  22.9076729  68.0826797
  34.4968338  22.0720692  67.2904892  11.2935152  49.5746880  31.7189045
  11.9460621  50.1609917  32.1018715  10.5560446  50.1454544  31.5030403
  39.9772263  52.7763748  61.1199265  39.1461830  52.3813438  61.3836403
  39.7446251  53.6638565  60.8469734   6.0172968  64.6121902  41.8129044
   6.1294198  64.2516022  42.6924706   6.2179151  63.8820419  41.2273521
  16.8480091  67.3601379  75.2279510  17.3124580  67.6541824  76.0115738
  17.1093845  67.9806747  74.5476227  79.6927719  18.0663776  42.5407295
  79.8819885  17.7106075  41.6724777  78.8359070  18.4826946  42.4474525
  49.5538216   6.9341660  29.9781761  50.4077606   6.5180507  29.8604107
  49.6746521   7.8256254  29.6511688  17.7064209  26.2268333  12.7192907
  16.9319859  25.8968239  13.1748962  17.3906269  26.9859753  12.2291765
  49.2039795  65.8759537  74.8672028  49.6426582  65.7312546  75.7055664
  49.2936172  66.8157349  74.7090454  74.9216309  69.9019775  83.2730713
  74.3200531  69.3531418  83.7761841  74.6693039  70.7985611  83.4937439
  18.2597485  21.0917187  14.3318529  18.6862373  20.4190941  14.8628101
  17.3497772  20.8024807  14.2645836  26.1473560  47.9426804   5.7381320
  26.6053734  47.6144791   6.5119123  26.0212727  48.8754539   5.9121146
  45.2305603  71.2280502  22.7257938  46.1331367  70.9286194  22.8350296
  45.1505852  71.9709015  23.3241253  52.4594116  71.0205307  31.4929199
  52.1810646  71.2723618  32.3734512  51.7043343  71.2158585  30.9380016
  13.6613111  20.7770367  73.3578110  13.8543463  20.1452904  72.6650848
  13.3248310  20.2458000  74.0794754  19.1998119  55.6808472  71.8512650
  19.9760323  55.2660904  72.2276840  19.0154381  56.4174614  72.4340515
  57.5007019  38.9522247  62.7504959  57.6865768  38.2287521  63.3490562
  56.5451088  38.9989815  62.7207413  82.7251282  53.0868568  24.2178116
  83.5742493  53.5025558  24.3675346  82.0957108  53.8069534  24.2568722
  62.4652634   9.8046093  55.6492920  61.6608887   9.7708273  55.1315346
  62.8006744   8.9083185  55.6294785  68.9359436  64.5790405  19.1351318
  69.8043594  64.5065842  18.7391052  68.5398178  63.7177315  19.0029984
  72.8487778  68.9108276   5.8024015  73.3579178  69.6812363   5.5504441
  73.1640167  68.6916809   6.6792321   1.5244324  27.3613548  54.5115967
   0.9066398  27.0963974  53.8301582   2.0600643  28.0389099  54.0989838
  61.9488983  30.9139404  66.8926697  62.0142326  31.0984974  65.9557037
  61.7811623  29.9727554  66.9402695  56.4448624  39.5741882  24.2053032
  57.3127022  39.5298271  23.8039036  55.8367157  39.4944229  23.4704380
  25.5141087  64.0672302  59.9190903  26.4085178  64.2392120  59.6246681
  25.0911884  64.9259186  59.9146004  71.5101013  32.8583374  10.6694326
  71.8648453  33.2926521  11.4451609  71.3186264  33.5725403  10.0615835
  18.9375076  44.5970802  37.9765053  19.0197525  43.9395981  38.6672897
  18.7195797  44.0940819  37.1918182  49.9297333   9.0173330  73.9728546
  49.8945999   8.1363592  74.3455276  50.5604897   8.9492121  73.2561035
  36.6834755   4.7031784  12.7396088  35.9988708   4.7421350  12.0717525
  36.8873787   3.7713683  12.8195152  32.8436394   1.8893880  17.0335293
  32.0735130   1.4221305  16.7097874  32.6523438   2.0558152  17.9565353
  74.1096039  50.5968323  79.6008377  74.9840698  50.4405327  79.2443085
  73.5198288  50.1513062  78.9926376  76.3382721  15.1007404  75.3955994
  77.2069702  14.7100554  75.3009415  76.5067215  16.0375175  75.4971085
  57.2973862  61.0021172  18.8886433  56.9130287  60.9139404  19.7608395
  58.0324173  61.6030502  19.0104523  32.8964348  57.1595230  60.3601837
  32.0284309  57.2717972  59.9726334  33.4964333  57.1830826  59.6147461
  62.3734512  59.4822540  49.2900238  62.9753189  58.8693810  49.7123718
  62.9362602  60.1848526  48.9647102  42.5556641  70.7375793   4.1165133
  42.0531654  71.5400925   4.2568731  43.3535309  70.8615723   4.6305804
  86.8692245   4.1750121   8.2686424  86.5813370   4.9564581   8.7405462
  86.1570892   3.5467749   8.3887024  27.8405666   4.8270030  72.7066040
  28.5173569   4.7394319  73.3778076  27.4223881   3.9665823  72.6744385
  61.0915298  55.0162163  21.9659920  60.6441536  54.5167503  22.6490860
  60.4402733  55.1072922  21.2704353  17.2435646   2.8384368  44.4957352
  16.7530804   3.5773740  44.8557739  16.6102486   2.1212304  44.4681778
  33.8284607  -0.1582984  57.4430847  34.2940941   0.6778906  57.4574471
  33.7315292  -0.3943423  58.3656425  46.9140778  60.6498833  35.2877808
  47.6722908  61.0509415  35.7126236  47.2886162  60.0941963  34.6042862
   6.7336736  63.7913017  78.1633606   7.0205846  62.8816528  78.0830307
   5.9159036  63.8292046  77.6673279  32.3169060  42.0796700  56.9734192
  33.2506104  42.1524773  57.1712303  32.2452278  41.2844696  56.4454460
  41.0329475  31.8168564  63.1967125  41.5253830  32.6373558  63.1738625
  41.5616570  31.2353458  63.7431030  55.1653481  68.3004837  15.5151606
  55.6745453  68.9756851  15.9635563  55.6336899  68.1534653  14.6934090
  33.5694809  45.7655716  72.6762314  33.2454758  46.6620827  72.5895233
  32.7787590  45.2269821  72.7063217  59.0531006  40.8830185  32.5488014
  59.5737991  41.0153313  33.3410110  59.5392876  40.2269058  32.0494308
  58.0805435  71.2362976  46.0172310  57.3963356  70.5669022  46.0145836
  58.6809158  70.9678726  45.3217201  30.5365467   7.8899598  29.6136494
  30.5746346   8.3675413  30.4423218  29.7120647   8.1679525  29.2146721
  41.0888252  69.7241135  82.5779495  40.4107399  70.2813492  82.1959457
  41.4812355  69.2763824  81.8284302  73.4046478  13.1874943  70.0053253
  73.3223877  12.4532194  70.6138535  72.5762405  13.6600771  70.0868301
  47.7246704  19.5041943  12.6684294  48.0089874  18.9767303  11.9219875
  48.2969513  19.2320747  13.3858395  49.4962082  40.5201263   7.4727912
  49.3343735  40.1449051   6.6071992  50.1166267  41.2313843   7.3133349
  84.0439606  14.0321112  26.6811371  84.7861328  13.4513798  26.8489475
  83.3476486  13.7008982  27.2483063  74.0245667  68.9109497   9.4145355
  73.2768478  69.2271347   9.9216576  74.2210922  69.6243896   8.8073997
  21.2132034  66.5898895  71.7500610  20.4122372  67.1129074  71.7163467
  21.0046539  65.8705902  72.3461685  53.1503105  24.5725613  19.3638725
  52.4779129  23.8992672  19.4677658  53.1919136  25.0032673  20.2176838
   5.0920134   4.5042696  81.3301468   4.2947464   4.1695142  80.9196167
   5.7165222   3.7818003  81.2648926  78.6070251  26.4462204  84.5788498
  78.4579239  27.1435757  83.9403381  79.1918945  25.8338661  84.1325455
  30.4367027  57.5078316  43.7879868  31.1685219  57.3931999  44.3942337
  29.6586285  57.3238373  44.3142738  53.3046951  20.8589935  61.4620934
  54.0653954  20.7642574  60.8888664  53.4676666  20.2466373  62.1795158
  12.7575569  21.9574108  60.3344688  12.0020905  22.0789833  59.7593842
  12.9647837  22.8380737  60.6470718  64.7163086   2.5645952  20.2165127
  64.4571381   3.4259605  19.8892345  65.3411407   2.2400556  19.5680580
  78.4907913  38.5718918  31.2599907  78.1399002  39.4456825  31.0879517
  78.1066818  38.3206558  32.0999756  56.0993423  57.3656120  43.1236420
  55.8013916  56.5960350  42.6386604  56.0237617  57.1129112  44.0437851
  43.7783890  68.2848740  54.6880798  43.0081177  67.8119736  54.3729820
  43.4213181  69.0044708  55.2085724  41.6999779   5.4548655  34.7356033
  41.8932037   6.2893410  35.1628609  40.8028755   5.5514612  34.4160614
  10.6246729  55.4094238  74.9022675  10.6125774  56.3558121  74.7593002
  10.7806730  55.0380058  74.0339661  41.5484924  69.2206116  85.3184662
  41.2032166  69.3336945  84.4328995  41.0857086  68.4555283  85.6600952
   5.0497131  22.3106556  25.5146046   5.8559265  22.8258057  25.5441418
   4.3584008  22.9560032  25.3668003  67.1048431  30.0062408  20.5290070
  67.0453873  30.9485626  20.6862564  67.8364639  29.7180309  21.0748043
  80.3141861  69.2274017   2.3595097  80.1516037  68.3435364   2.0299881
  81.0728912  69.5326691   1.8621066  64.3486633  36.1998558  31.6871891
  64.4759903  36.8015938  30.9537506  64.6240463  35.3479347  31.3486328
  53.3368912   6.9164133  47.1884689  52.9558105   6.2697415  46.5944786
  53.0540009   6.6376681  48.0593910  34.2861557  61.1521645  54.6403732
  33.7160721  61.1038666  53.8729706  34.3849335  62.0896072  54.8067398
  21.6249886  54.8988533  50.3613358  22.3483658  54.8859138  50.9880638
  21.3229351  53.9912720  50.3254242  28.6645584   3.9038529  37.7267609
  28.8835526   4.7832808  38.0347862  28.8279514   3.9326622  36.7840500
  52.9770164  63.2186584  34.6616211  53.8467445  63.5627480  34.4581375
  53.1374397  62.5256500  35.3021164  67.0034637  45.8491096  82.0751266
  67.4252396  46.2665253  81.3240585  67.4846344  45.0304565  82.1956024
  75.8233032  15.7224083   8.7649040  75.9300156  15.2093487   7.9638948
  75.2242813  16.4275684   8.5196514  32.5172424  59.9748039  71.4757614
  32.4431725  60.0158730  72.4292068  32.2959747  59.0695610  71.2571106
  49.3439102  65.2582245  41.3755264  50.1281509  64.7095795  41.3616524
  49.0490761  65.2776718  40.4650726   0.9128425   1.0679991  54.4384727
   0.0382814   0.7151282  54.2745934   1.1367333   1.5363086  53.6342392
  65.6664124  40.4262123  31.4788399  66.3787155  40.4689026  32.1168365
  64.9260483  40.8447266  31.9180851  53.9334526  37.1709023  81.5181046
  53.5519142  36.9050560  82.3547592  53.3624115  37.8732262  81.2068329
   3.1514750  69.2255249  62.3438416   2.4445195  68.6203384  62.1198120
   3.1656713  69.8547363  61.6226463  32.9431763   5.7280865  68.3818436
  32.3086739   5.1458445  67.9639511  33.5942154   5.9005508  67.7016678
  56.2098503  18.3727589  42.8744698  56.8130379  17.9670277  43.4971886
  56.4342842  17.9781170  42.0317841  63.0314102   1.8832934  60.2443581
  62.5956192   2.4972656  60.8354225  62.3648987   1.2245325  60.0493546
  48.0379105  63.9934349  33.7006035  48.2175331  64.0503464  32.7621346
  47.3643990  64.6555710  33.8561440  26.2266674   7.3802295  23.9544888
  25.9692554   7.3763871  24.8764191  26.0212994   6.4981041  23.6447964
  35.5835228  21.4244213   6.9408445  35.9161339  22.0041866   7.6260252
  36.0245705  20.5896435   7.0984921  73.4436188  59.4095840  26.2682648
  73.6648178  58.4952927  26.4453945  72.5672607  59.3740463  25.8849049
  58.4192619  31.6417465  36.9807930  59.1534386  31.1952839  37.4025650
  58.6453247  32.5707169  37.0270767  67.0821991  52.0258484  12.5761137
  66.1915817  51.7245026  12.7556410  67.2861328  51.6689262  11.7116795
  65.5844574   2.1672552  51.8177643  65.2364883   1.7064066  51.0543709
  66.4698639   1.8195308  51.9244118   9.3339119   1.6119226  60.2094765
   9.3017960   2.4483147  60.6738586   8.7369576   1.7255204  59.4699020
  20.5140076   0.7580056  58.1197662  20.8207111  -0.0451284  57.6988831
  19.6744595   0.9433517  57.6990051  43.1658936  42.7461433  81.9658966
  42.7686539  42.4030037  81.1654739  43.1370277  43.6969261  81.8590469
  70.6008530  63.1882820  59.7365913  70.3729630  63.7888641  60.4462357
  69.7661743  62.9931946  59.3105888  51.9026794  42.8841133  12.9938555
  51.8230934  43.4210281  12.2054281  52.5163345  42.1909294  12.7506390
  80.6454163   3.0359948  25.6874294  79.8293228   2.8432245  25.2258492
  81.3015137   2.4925253  25.2510700  61.4232712   9.6171331  74.8495407
  61.7411385  10.2999840  74.2588501  60.5932045   9.3352613  74.4651260
  63.2264290   0.8192976  87.9245300  62.7040329   0.5172474  87.1814957
  64.0552750   1.0996350  87.5363922  22.4200954  47.8687134  80.5087662
  22.0131512  48.6583366  80.8653107  22.3323040  47.9614754  79.5601273
  72.1318588  47.8282623   1.4942693  72.9370804  47.6489220   1.9797560
  71.8077011  46.9641228   1.2404695  36.5926514  32.5705528  64.5912323
  36.0558853  33.2386131  64.1648407  35.9684830  31.8948669  64.8559952
  58.0312080  28.6227551  71.9043732  57.7334213  28.6285992  70.9946976
  57.2579155  28.8706341  72.4111328  74.7498474  63.0077171  38.3529663
  74.0633011  62.3413010  38.3250504  74.3739090  63.7582970  37.8930435
  26.4308376  14.9205332  46.6983681  26.3907776  14.0061054  46.4182854
  26.2019577  14.8966875  47.6274986  11.9340296   5.7891350  17.9831734
  12.2621708   6.6588845  17.7549381  11.6196928   5.8801823  18.8826923
  77.5208054  25.8481483  58.5720978  77.2622070  25.0539284  58.1045761
  77.4612427  25.6113815  59.4976387  22.6875687  32.7228241  82.3109360
  23.5290890  32.9834671  82.6852875  22.5377655  33.3468819  81.6007690
  21.6940460  22.9458866   5.6983633  21.8866959  22.6705456   4.8020911
  21.5591393  23.8913918   5.6346922  58.6351624  36.5039978  73.2040024
  57.8957748  36.0830994  73.6426163  59.3016777  35.8192825  73.1478271
  23.1359558  41.3769035  22.2588196  23.5620842  42.2333870  22.2259502
  23.1063519  41.1597137  23.1905842   0.1952789  43.4785805  70.6970444
   0.5577305  42.7320671  71.1741028  -0.7433932  43.2979622  70.6470108
  31.2188969  52.1650391  55.5931358  32.1615219  52.1919899  55.4289398
  31.1414165  52.1802139  56.5470772  77.9766235  18.0308952  68.3475037
  77.1786880  17.9093781  68.8620529  77.9165955  18.9286385  68.0208740
   9.7791491  59.0143852  31.2083588   8.8237810  58.9726334  31.1664028
   9.9917669  59.9086456  30.9412937  67.0265274  49.0083656  21.9521523
  67.8625488  48.9727249  21.4873695  67.2010880  48.5835686  22.7919788
  10.0414038  14.4485550  51.7444649  10.5205727  13.8251514  51.1985741
   9.4542789  13.9049673  52.2698517  30.2733650   9.6666145   4.2185822
  30.3200111   8.8136683   3.7866814  29.4436474   9.6485214   4.6955233
   9.3379774  54.9306679  78.9070663   8.5056286  54.9998970  78.4394760
   9.3206911  54.0574951  79.2988586  42.0348549  64.1176529  64.3482513
  42.1996307  63.3893471  64.9471283  41.6350517  63.7101860  63.5799065
  51.5179100  33.0397873  73.9799957  52.2581482  32.8173866  73.4153595
  51.7263260  32.6312637  74.8201752   3.8876326  14.8753309  79.9042587
   3.2401114  15.5784369  79.9551544   3.6979303  14.4345074  79.0760574
  38.1477203  70.4442139  28.3388081  38.8089027  71.1075897  28.1413097
  38.6179695  69.6125336  28.2804108  82.0485840  55.4646835  48.4474258
  81.7265625  55.0510063  49.2483063  82.6998596  56.0975723  48.7499428
  72.1601334  12.6537075  48.0366707  72.1646805  12.4568844  48.9734077
  71.2891235  12.3893051  47.7406006  44.6426010  51.2097740   3.3188579
  45.5854301  51.3611107   3.3851819  44.3617401  51.7637939   2.5905645
  80.2217102  40.5566063  61.9042854  79.9205856  40.9339333  62.7308311
  79.4259415  40.4597435  61.3812180  36.9111671  49.0412903  32.7955971
  36.9479942  49.1973190  31.8519173  37.7347145  49.3969803  33.1294899
  69.8931427  56.2293892  66.7970428  69.4619141  55.4932404  67.2310562
  69.6624222  56.9902306  67.3300705  54.4819565  51.7936745  53.9746132
  55.0625801  52.4329987  53.5618477  53.6110153  52.0118141  53.6427879
  77.1274109  16.2421780  44.4264908  76.8597870  16.3943996  45.3328209
  77.8027649  15.5665026  44.4864349  44.7089729   0.6467931  82.4322052
  43.9096603   1.1732389  82.4185944  44.8855782   0.4556382  81.5110626
  60.9147377   6.7836328  52.8101578  61.6785240   7.1912241  52.4018364
  60.1666679   7.1524553  52.3404846  27.3764439  18.0344353  55.8997116
  27.1603527  18.7354889  56.5145798  28.2070255  18.3060417  55.5090752
  57.5093842  20.5612621  35.9440498  57.6686592  21.5049305  35.9252205
  56.7527466  20.4575367  36.5210876   3.6194179  37.4630928  58.5452499
   4.3854680  37.3248215  59.1022797   2.9458289  36.8949089  58.9189835
  38.7998047  54.1958885  75.6800079  38.7979012  54.5180931  74.7786636
  37.9060669  53.8854752  75.8252869  71.0920639   4.0727119  36.8828163
  70.1831284   3.8494365  37.0833702  71.3223343   3.5029223  36.1489639
  58.3441200  48.5467186  17.9236851  59.1543312  48.0837746  18.1369267
  57.6481285  47.9387741  18.1731415   9.8345337  26.5038719  56.8663712
   8.8775539  26.4845219  56.8732147  10.0917902  25.5888786  56.7530594
  79.6591568  46.0227280  11.4735031  79.7583084  46.9585228  11.2983265
  79.9362640  45.5965500  10.6624451  55.2882118  71.3129807  13.3991966
  55.9479027  71.6233902  12.7789640  55.7013397  71.4106369  14.2571135
  79.5887375  52.1217575  65.9424362  79.5018234  52.7458611  65.2219009
  80.1902313  52.5452538  66.5548859  15.4023266  58.1006737  82.8879395
  15.1505241  57.7376709  83.7370911  14.6922550  57.8462372  82.2986298
  85.5517807  18.7782440  83.0159912  85.9461975  19.5646229  83.3931885
  86.2857666  18.1753502  82.8976135  22.8743896   9.8527231  84.6781921
  22.7220879   9.2795305  85.4295120  22.2856655   9.5206995  84.0004044
  10.4534245  59.3780746  46.1650124   9.5632153  59.0377007  46.0760956
  10.6044950  59.8677254  45.3565254  71.8207474  32.3325348  22.3889027
  71.4428406  31.9377232  23.1747398  72.3598938  33.0518188  22.7178135
  57.6247940  43.6031303  28.0049210  57.9666290  43.0741920  28.7257595
  58.3784637  44.1085396  27.7003288  23.9922695  59.5987206  30.6189709
  23.8353863  60.0963326  29.8164730  23.2262955  59.0307579  30.7022190
   4.3540072  28.2138405  43.1933403   3.4217765  27.9966526  43.1906204
   4.6417418  28.0456371  42.2960396   4.5651603  52.0086517  76.6838074
   4.5064712  51.5517693  77.5228806   4.4666495  52.9340935  76.9075928
  24.7140503  16.6402054  87.5694199  23.8187122  16.7130489  87.2388153
  24.9718227  15.7409468  87.3666382  52.5744324  24.4241638  66.1919022
  52.6469879  25.3257866  66.5050201  52.0938110  24.4949894  65.3671494
  63.5427170  62.1275139  70.4296722  63.1722908  61.2519188  70.3185425
  63.3448868  62.3578339  71.3374405  49.1484680  41.3053665  78.6279907
  48.8651047  42.0497894  78.0971680  49.9463577  41.6095352  79.0605240
  61.5320511  53.0871239  59.7507095  61.7212143  52.1644363  59.5801315
  60.5837212  53.1178169  59.8770447  80.2909470  56.6868820  61.5784683
  80.1015396  57.4489479  62.1258354  79.8247833  56.8579483  60.7601433
  23.5587196  56.9527283  39.8384933  23.6553707  56.0283051  39.6097336
  22.9088364  56.9588852  40.5412331  10.4290218  24.8894672  78.6320801
   9.7920198  24.6683464  77.9526901  10.1738119  25.7646179  78.9239883
  64.4100952   1.0783643  79.6300812  63.6519089   1.2695221  79.0779572
  64.6997681   1.9349360  79.9441071  20.1658707   7.6128941  85.8373947
  20.0062904   7.0059557  85.1146240  19.2958736   7.7986102  86.1907272
  64.9599609  38.4306870  29.9090748  65.3014908  38.9155464  30.6604061
  64.9694672  39.0636826  29.1911201  65.4926147  41.1231575  35.0444527
  65.6330185  40.9997749  35.9832230  66.3673859  41.2834663  34.6904716
  81.6573181  64.2722168  38.6657104  82.0124283  64.5043945  39.5237465
  80.8429184  64.7709579  38.6006165  78.8264694  57.1797829  17.5488396
  78.6347885  56.3440704  17.9743729  79.7302780  57.3734436  17.7975311
  85.7250443   7.6990886  47.2878609  86.6126099   8.0424175  47.1850319
  85.1787415   8.2875576  46.7668076  55.4675522  22.3413906  54.3833504
  54.5534515  22.2558880  54.1125374  55.5703125  23.2704067  54.5897560
  49.1463242  67.9866943  41.3930321  49.2213631  67.0400772  41.5134811
  49.4842224  68.1434784  40.5112877  79.6771774  57.4007263  69.0541306
  80.4550858  57.2648277  69.5950699  80.0146103  57.4621582  68.1604843
  72.8079987   2.0830317   0.6082400  72.1813431   2.1535988   1.3283474
  72.8738708   1.1431643   0.4392972  11.3791332  45.5655060  34.6563110
  10.8482141  45.2335854  33.9323044  11.7879248  46.3585548  34.3096237
  39.1942062  16.4601994  10.2092733  39.7320595  16.3387871   9.4268389
  38.3048172  16.2518730   9.9232340  72.2583694  11.9674482  86.2174683
  72.3436279  11.5854492  85.3439407  71.3554993  11.7795954  86.4739456
  64.5428238  70.3442459  84.5787354  63.8211060  69.9225540  85.0451431
  65.2472763  70.3966827  85.2246704  29.3297043  39.5304184  54.8353271
  28.8980389  39.4640579  55.6870880  28.7229519  40.0400925  54.2983780
  26.2002964  41.9757919  24.6966438  25.7638893  41.1289558  24.6036358
  26.9434147  41.8001633  25.2738457  11.3372679  45.1965485  18.6762886
  11.6061468  44.9047165  19.5473633  11.2041245  46.1397781  18.7701969
  39.1230469   9.9304399  15.6358376  39.4977646   9.9973192  14.7575741
  38.2258720   9.6297960  15.4911976  64.5032654  19.2478027  30.2815666
  64.4445038  18.6021538  29.5773525  64.8194580  18.7510300  31.0361977
   1.5107079  49.2964973  74.5911713   2.0904465  49.9947853  74.2869797
   1.4171456  48.7166214  73.8353729  37.4387741  51.4070053  30.4252930
  38.1653175  51.2652512  31.0321484  37.2703209  52.3482475  30.4690475
  72.2922516  25.0546036  22.8889160  71.4674835  25.5184727  23.0332165
  72.0291977  24.1603851  22.6711864  45.4429588  62.6866341  32.4083939
  45.7052155  62.7729416  33.3249092  44.8413239  61.9421844  32.4005089
  73.4925842  16.5262394  19.1225491  73.6080399  16.4868965  18.1731510
  74.3474731  16.7977314  19.4567432  18.5906734  64.8523712  54.0093994
  18.8407440  65.7190475  54.3296776  19.4080715  64.3543243  54.0030785
  79.0889664  50.7753716  77.7227478  78.7653809  49.9751778  77.3089676
  79.6012497  50.4679985  78.4706192   4.2003636  67.0333786  30.5175495
   3.6502924  66.9737701  31.2986393   4.8870769  67.6564178  30.7551937
  66.1091080  33.8507156  37.6444740  66.1886139  34.0652008  38.5739403
  66.4931564  34.6015358  37.1917038  52.4410934  66.3535690  50.1415176
  53.0726547  66.1173172  50.8208885  52.8038940  67.1439514  49.7416420
  66.3737946  43.6099930  71.1952820  66.8215942  44.4143372  71.4574585
  66.7004395  42.9454155  71.8018036  40.0753975  63.4353485  10.8800135
  41.0020599  63.2502098  10.7275143  40.0283165  64.3895798  10.9388075
  71.4238968  56.1185341  25.5459805  71.4615326  55.5295219  24.7924004
  70.9603577  56.8912582  25.2230835  53.8207474  49.2660484  53.8712425
  52.9168587  49.4242744  53.5988808  54.2091675  50.1388550  53.9309883
  18.1309433  54.9700203   9.8906460  18.6877804  54.2489395  10.1842575
  18.0079708  54.8118744   8.9546442  28.5774364  60.8007622  59.1255112
  28.6361675  61.6338196  58.6577454  29.4772682  60.6113930  59.3913536
  35.7927017  18.4892788  77.4431915  36.4857941  18.7860317  76.8534470
  36.0346451  18.8482342  78.2969131  64.5958633  47.5241356  76.6411743
  63.9235764  47.2887306  76.0017624  64.8399277  46.6932716  77.0490036
  46.1235809  34.2342682  19.6215858  45.6789169  33.6179657  20.2035503
  46.7530975  34.6841660  20.1850815  52.5587730  54.9295464  10.4129343
  52.2894096  55.8073463  10.1424828  51.7960167  54.5750961  10.8698750
  58.5980835  58.7874146  48.6287689  58.6603622  59.0764503  49.5391617
  58.4903679  57.8380051  48.6857338   1.6994761   1.2855359  14.5824242
   1.7655311   0.5970513  15.2441320   0.9920335   1.8500738  14.8939590
  64.5166397  16.4114552   3.7626214  64.5383530  16.1786480   4.6908245
  63.6013908  16.6345482   3.5929866  27.5747585  62.5056648  32.2679596
  26.6370831  62.6152725  32.4260216  27.6292477  62.1709976  31.3728275
   1.2796680  46.9218979  76.1129837   1.2555174  47.8146210  75.7684555
   1.9765555  46.9371147  76.7689972  36.7291031  45.8386536  59.1752434
  37.4301224  45.6296616  59.7925987  37.1202812  45.6998940  58.3127174
  51.2730560  57.5379715  33.6591225  50.9781837  57.5173149  32.7487068
  50.7455826  58.2252159  34.0661888  59.7532501  20.4107952  21.4753036
  58.9218597  20.2913208  21.9343739  60.3309631  19.7453213  21.8489666
  70.3427887  24.1818771  54.8664246  69.9077530  24.9904003  55.1371040
  70.6413727  24.3577003  53.9741440  68.2656937  31.0267086  84.6557999
  67.7724457  30.5075073  84.0206909  68.1188889  30.5847702  85.4920807
  46.9736557  31.1586895  17.4796047  47.6851883  31.6285534  17.9145584
  47.3045769  30.9854660  16.5982914  22.5820789  56.9737396  54.8476791
  21.6249313  56.9666901  54.8546715  22.8304615  56.6168327  55.7004166
  44.8969498  23.9818001   7.8154049  44.2469749  23.2874298   7.9231844
  45.7209473  23.5843716   8.0970297  24.0415173  10.6758947  34.1813698
  23.9541988  10.7119427  33.2288437  23.1907654  10.3623333  34.4881821
  31.2550011  19.0834312  28.5702934  30.4280586  18.7892437  28.9521961
  31.9271374  18.6107903  29.0612888   9.1976948   2.0658548  35.8575058
   9.4862289   2.2245457  36.7562790   8.2507324   1.9451822  35.9277344
  32.8968315   3.9846148   6.3302388  33.6788254   3.4841022   6.5630507
  32.1776543   3.3587253   6.4155688  70.1165237  35.4040413  58.4866028
  69.2509232  35.5674133  58.1120529  70.2829132  34.4780540  58.3102684
  64.9713821  45.2766495  80.0676727  64.6777649  45.7508888  80.8455658
  65.8889160  45.5293808  79.9652023  52.7849121  64.7532578  72.4531708
  51.8784447  64.9971085  72.2658615  53.2776299  65.0600204  71.6920090
   8.3020582  61.6953812  72.8554077   7.5217509  61.6083679  72.3078918
   8.6944580  62.5248909  72.5830765  26.0232868  63.3420067  83.7970123
  26.5735798  63.7396317  83.1222458  26.2811966  62.4202347  83.8039246
  60.4518051  18.0642872  53.8925247  61.3763847  17.8439350  54.0058022
  60.1959915  17.6167297  53.0859985  60.9491043  56.0256424  81.4299622
  61.6884041  55.4472809  81.6174774  60.3278351  55.4738426  80.9548111
  45.7819023  46.2362099   4.3476195  46.5841866  46.0221558   3.8714364
  45.2701607  46.7601852   3.7313387  18.1835289  24.2606049  81.2588882
  17.9106731  25.0887680  81.6537628  17.5996037  23.6075058  81.6445389
  59.8727989  38.5103645  74.2446671  59.6646881  38.2448387  75.1404419
  59.5634232  37.7851601  73.7018967  23.7836647  27.8969135   1.7740277
  22.9882145  28.3267536   2.0882404  24.4635983  28.5663662   1.8498821
  37.7571411  63.3849525   3.8731761  38.3339729  63.6979675   4.5699682
  37.6070480  62.4630661   4.0825381  25.7038822  15.2296724   3.5521407
  25.8297729  15.0262318   4.4789610  26.2038822  16.0340290   3.4134223
  56.4221802  12.2757072   1.5620456  55.6052818  12.5741663   1.1622596
  57.0736275  12.9202137   1.2855309   4.7794042  39.3558273  85.9544373
   5.6575055  39.2566643  86.3223190   4.5896320  38.5067482  85.5553360
  39.1309509  34.8390694  17.4744854  39.1651726  35.7778664  17.2908478
  39.9630547  34.6493073  17.9078732  52.0042152  63.4065552   4.1356030
  51.0603561  63.5615654   4.0991020  52.1023521  62.4767838   3.9303668
   4.4850683  42.1125603   6.6294446   4.6133385  41.8800316   7.5490694
   5.0071726  41.4726639   6.1455269  26.2312317  23.3484592  57.3669167
  26.8621387  23.1106911  58.0463676  26.1896877  24.3040943  57.4024887
  10.4441500  14.0720224   1.5351055  10.3034182  13.4406195   0.8295863
   9.6045141  14.5229588   1.6239787  86.5390930  38.8831635  41.6854782
  87.0373001  39.0493317  42.4857330  85.6231232  38.9446297  41.9564781
  85.6625595  69.7682266  80.8158264  86.0865250  70.3083267  81.4827423
  86.3871994  69.3605423  80.3415756  75.1789703  63.5233002  45.1315498
  75.9494553  63.5839348  45.6962662  75.0048218  62.5845032  45.0639801
  63.9391251  64.2815399  79.0586166  63.5425758  65.1289444  78.8564072
  63.8809700  64.2111435  80.0114517  22.6187267  33.1961403  69.7464828
  23.0635433  33.8338242  69.1881561  23.3233032  32.6490059  70.0935364
   9.1777992  11.1180811  61.7909393   8.5175810  11.0436945  61.1018715
   9.9830961  11.3477430  61.3272743  16.8409805   7.5190501  45.8087387
  16.1614761   7.9356070  45.2786560  17.6504498   7.6667995  45.3196945
  56.3381500  26.7522373  25.3651867  55.6077538  26.3530941  25.8378773
  56.7788696  26.0165787  24.9399776  62.9015732  48.4190331  70.5440140
  62.0148621  48.6314011  70.8353424  63.1741180  47.6983490  71.1119690
  52.1033249   9.7939472  53.6391945  51.3377380  10.2454300  53.2838478
  51.7388611   9.1156769  54.2078323   6.1412144  64.7034302  25.9031696
   6.1881227  65.1771698  25.0727463   6.5569177  65.2885056  26.5365028
  29.8504505  61.7710457   1.2256416  30.3546238  61.9725456   0.4373288
  30.4330654  61.2199554   1.7482210  45.3694382  38.7872620  83.3738251
  44.7143211  39.2686234  82.8685074  45.7624931  39.4464340  83.9458618
  74.1764221   9.3576212   9.7846518  74.1489487   8.9410505   8.9232893
  73.2886658   9.2565155  10.1280193  58.0560951  60.5671959  56.4277687
  58.6284599  60.2122879  57.1079674  58.6461639  60.7779083  55.7041321
  68.0727234  43.7492676  47.7904587  68.2111206  42.8037148  47.7356110
  67.3008804  43.8464088  48.3481865  52.3782196  47.4772682  21.5784225
  53.1021423  48.0747261  21.3907833  52.4843788  47.2554398  22.5034924
  35.1258545  43.4171257  75.7651596  35.8169670  42.9754410  75.2716904
  34.5412598  42.7117081  76.0424042  72.8578415  34.6662064  23.2774448
  72.6705627  34.8128586  24.2046185  73.6332092  35.1995163  23.1024380
  75.3819122  47.3669930  60.6723289  74.5115128  47.4983559  60.2963219
  75.9847260  47.6604843  59.9891701  55.6172600  40.8732452   1.0174054
  55.1948166  41.3122368   1.7556850  56.3126526  40.3499527   1.4159349
  73.3732758  39.1994934  27.1289711  72.6154099  39.0465240  27.6933117
  73.2713470  40.1033592  26.8308544  65.1916962  45.5720825  64.6446915
  64.3704224  45.2317123  64.9994965  65.1773987  46.5046310  64.8600540
   9.2752695  61.6055031  77.3292465   9.2375851  61.7673645  78.2719116
  10.1970596  61.4147186  77.1556549  41.9096794  28.7110195  14.1010790
  42.1698570  28.9063950  15.0012827  42.7357635  28.6438847  13.6222153
  17.2954121  53.3486099  21.3041878  17.0745506  54.2717781  21.1808643
  16.9159946  52.9079285  20.5438747  55.8444519   3.2149329   4.6247821
  56.4555435   3.1817997   3.8887808  56.2092171   3.8794656   5.2092242
  69.5602264  20.3841648  14.4546118  68.6462326  20.4982319  14.1941662
  69.8663940  21.2701225  14.6484518   8.1746759  70.5153885  31.5471706
   7.7483573  70.9152832  32.3051720   8.5353956  71.2546005  31.0576057
  13.7775650  60.2251701  66.2762833  13.8434258  59.3070221  66.0138092
  13.7886095  60.2021217  67.2331390   8.2837229   7.4966488  59.7881317
   8.6661377   8.3733959  59.7520027   7.3529558   7.6338716  59.6118507
  48.7744255   3.3830001   7.0280724  48.0108910   2.8911996   6.7257862
  49.4584770   2.7219121   7.1342139  75.2128677   4.7528892  88.9226456
  75.2569199   3.9386442  88.4213562  75.1786041   4.4700098  89.8364487
  78.2176132  24.5335598  28.2781620  78.5962524  24.5444679  29.1572227
  78.9591827  24.6987038  27.6958961  81.5210190  13.7781916  50.9634171
  81.6552505  14.0421495  51.8736572  80.9359360  14.4452782  50.6043816
  10.0751858  43.2248459  50.2215309  10.4678268  42.5800285  49.6330795
   9.5996790  43.8198814  49.6418228  66.7810211  54.1740265  74.8185806
  67.7105103  54.2971001  74.6258850  66.3282852  54.5433807  74.0603943
  12.4194202  70.5003891  83.6767654  12.1325197  70.8476562  84.5213470
  13.3118010  70.1924515  83.8350601  15.1262369  19.9893169  69.3292770
  15.7528486  19.3146133  69.0678101  14.6982651  19.6304035  70.1066132
  12.0044708   1.0261410  21.5294857  11.8021564   0.1206889  21.2939930
  12.7643232   1.2493819  20.9918804  22.0195293   9.3269873   3.1455033
  21.5550137   9.1850948   2.3206868  22.7066288   8.6605825   3.1511407
  79.2112122  42.6441879  39.7286987  78.9235382  43.1596603  40.4822006
  79.2880325  41.7511864  40.0646706  66.3576508  27.6076221  71.9808807
  65.7281113  27.6981030  71.2655258  65.8204498  27.4184017  72.7501907
  84.4856110   3.8793571  41.7304230  84.1581497   4.7316103  42.0179291
  84.7801971   4.0267315  40.8316803  13.8379526  60.2799149  71.8093185
  13.4601660  60.7745361  72.5365448  13.4248934  60.6487999  71.0285873
  43.9454803  64.1475372  79.4543304  44.6596260  64.0256500  80.0799255
  43.5876083  65.0101013  79.6644516  13.0366688  63.0951118  54.5290489
  13.3712225  62.2223854  54.7355652  12.8417339  63.4847603  55.3813438
  54.1545143   2.4084034  63.2748260  54.7895813   2.0021191  62.6850357
  53.6641693   1.6729733  63.6421661  23.1962395  39.4922905  74.9455566
  23.5510349  38.6689491  75.2809143  22.2483025  39.3596077  74.9390640
  38.6445007  13.7620935  80.1224899  38.8156357  14.4130230  80.8031006
  39.3330040  13.9073792  79.4735794  55.3218346  66.9691010  28.6484280
  56.0923462  67.5290146  28.7435093  54.6618385  67.3720779  29.2125607
  14.3252163  17.2840462  13.5179682  13.7635441  18.0293961  13.3053408
  14.1884232  16.6680450  12.7982035  19.0890884  59.9465256  39.7667236
  18.8475723  59.9936638  40.6917534  19.4935741  60.7940178  39.5813026
  10.1421080  38.6114159  85.7090149  10.8851213  38.9115295  86.2325592
   9.3869314  39.0659332  86.0823212  22.4589748  52.7886200  18.9921074
  21.7454853  52.1574516  19.0858765  22.1868210  53.5381622  19.5215855
  22.3636074  55.4194946  71.5079575  22.5376968  54.9668350  72.3331985
  23.2268429  55.6940536  71.1986465  22.2024822   0.8821656  10.8130112
  22.4803486   1.6384690  11.3297586  21.2483997   0.8769420  10.8900232
  33.0296593  60.4273643   8.7794514  32.7057228  60.8227158   7.9701347
  32.7143822  59.5241318   8.7476921  27.3488045  52.8787308   6.3192368
  27.0297508  53.2519760   5.4975772  28.2666874  53.1466141   6.3635278
   4.1160870  59.2286606  82.6644135   4.4388790  60.0490608  83.0372086
   3.5921366  59.4981537  81.9100418  65.1076050  37.3158455  59.9083672
  65.9789581  37.4365730  59.5310211  65.2730103  37.0530090  60.8137894
   6.1581402   6.8111453  16.8965721   6.0354562   7.7512503  16.7647285
   6.4294043   6.7309246  17.8110199  48.6492195  14.2422237  56.1114235
  47.7693291  14.5025854  55.8389587  49.2087631  14.9705639  55.8418655
  77.2410736  16.4261608  33.6589546  76.7246323  15.9245968  33.0281219
  77.2052078  17.3264866  33.3359108  71.4998703  45.1838264  65.7649231
  71.4073792  45.7592354  66.5242538  72.3683472  44.7938309  65.8643112
  76.2289047  36.9203682  59.5421524  75.5328674  37.5248833  59.7996712
  76.4847641  36.4885178  60.3571815  46.9730721  35.8074341  87.6731796
  46.5951500  36.6866341  87.6935272  47.5501862  35.7770882  88.4362335
  53.2689629   9.9088650  70.0232162  53.2631874  10.8595905  70.1342010
  53.0263939   9.7731800  69.1072540  86.1644135  53.2026024   4.9711318
  86.5281448  53.7565155   5.6618671  86.5684128  52.3465118   5.1129971
   3.1821084  24.8547230  40.2005386   3.3518684  24.7192631  39.2683029
   4.0200243  25.1509953  40.5559959  44.5329514  62.3198051  77.6151276
  44.1192589  62.9075394  78.2473221  45.3720856  62.7349052  77.4156876
  21.4626408  37.2456741  84.0416107  21.8956985  37.6398506  83.2844315
  21.9805145  37.5367966  84.7921371  37.1578293  19.6818142  10.5413895
  37.5454903  19.8280411   9.6785059  36.2138290  19.6817970  10.3829746
   3.8515456  28.0585861  86.3452988   4.6337428  27.9366131  86.8833771
   3.1659682  28.2960243  86.9696732  21.9132595  54.5641212  62.1051636
  22.5331078  53.8351288  62.1295471  22.0484123  55.0212936  62.9351997
  14.1889296  42.5184898  81.3725204  13.4413204  42.3185539  80.8091888
  14.6738663  41.6950989  81.4281540  52.7246246  45.1690025  37.0312576
  52.2405281  44.3683891  37.2334900  52.9844971  45.0669479  36.1156807
  80.8477097  44.8393974  74.1638260  80.2826691  44.3073540  73.6035614
  81.1660309  45.5363731  73.5901337  58.1246910  63.9813042  76.4776917
  57.9143829  64.9149246  76.4965973  58.5464516  63.8136826  77.3204575
  51.1436081  49.3395538  81.5998688  50.6744690  49.5758438  82.4000549
  52.0030746  49.0474091  81.9035110   8.7290850  57.6016884  22.9525814
   9.3082991  57.1452866  23.5628624   7.8486452  57.3223457  23.2036324
   4.5273981  39.2856789  71.8878098   4.8405714  38.8869896  72.6997223
   4.0405588  40.0589371  72.1729355  69.3624115  36.4186325  38.8072586
  70.1962051  36.0015030  38.5904045  69.5928879  37.1014175  39.4372749
  54.6263466  29.0233707   3.9716103  53.7861176  28.5669937   4.0159640
  54.5195045  29.6531429   3.2587264  52.1462440  31.3785439  76.1076813
  51.7391891  31.5171585  76.9628525  53.0797653  31.2875233  76.2986908
  28.1916027  66.1466599  45.9571342  28.2598724  65.2685394  45.5823479
  28.9317398  66.2075272  46.5610580   5.6639562  68.6915741  28.2209492
   6.1702046  69.2586746  27.6392803   5.4429092  69.2494965  28.9666615
  35.1172180  36.5268211  13.1736450  34.6704063  36.5759201  12.3285513
  35.0012131  37.3962975  13.5567751  46.8484840  46.2485199  75.9813004
  46.6653633  47.1529236  76.2357788  45.9863586  45.8365936  75.9239807
  13.4462090  53.3691330  83.0503540  12.5438910  53.4161034  82.7343674
  13.9787798  53.3683319  82.2549973  62.9262810  25.4347286  77.5967941
  63.4408264  24.7187061  77.2242508  62.0161095  25.1676197  77.4684601
  44.0370407  68.1607742  25.6869030  43.7675629  67.7636642  26.5151024
  43.2244987  68.4922714  25.3046494  28.4923058  34.7642326  14.7185688
  28.2068310  33.9281616  15.0869713  28.2763367  35.4090271  15.3922367
  86.3437500  10.1865339   6.2172585  87.2586365  10.0551157   5.9683805
  85.9433517  10.5960407   5.4503059  43.2815056  67.8039322  46.2899742
  44.0756912  68.3345413  46.2270851  43.0110092  67.8851166  47.2045593
  68.6534958   0.9147445  15.8974476  68.4640121   0.1895467  15.3021173
  67.8287888   1.0677661  16.3586254  45.5706406  32.9245453  77.2002106
  46.1299782  33.0381317  77.9686279  45.7942734  32.0553131  76.8675537
  46.2739754  39.3919029  33.6334076  46.2013092  38.5209351  33.2430649
  45.6120148  39.4005127  34.3247604  76.7593613  51.2553139  72.6341476
  76.0152359  51.2495193  72.0320969  76.4744873  51.8082161  73.3617325
   4.5468044  34.0435257  87.5366211   4.4113045  34.5150375  86.7146988
   5.4277463  34.2945938  87.8143539   7.0185070  60.6544266  43.4119301
   7.4629402  59.9011078  43.0230560   6.1554275  60.3221550  43.6587563
  39.0738373   0.8754791  18.8373470  39.6146240   1.6453112  19.0138035
  39.0852318   0.3817250  19.6572914  41.0937996  50.3234100  13.1709585
  40.5178299  50.8991089  12.6679096  41.9009361  50.2843704  12.6578875
   0.0368307  31.7627831  28.4777508   0.1376664  31.4474411  27.5796280
   0.6117432  32.5263481  28.5294666  23.1472645  44.5861969  20.5361919
  23.1289177  45.0316162  19.6891384  23.3634529  45.2752113  21.1644821
  41.1270599  49.9912567   2.3631136  41.1376152  49.1372032   1.9310066
  41.8185120  49.9345741   3.0225940  64.2048874  63.1070023   5.0120406
  65.1333160  62.9752235   5.2040896  63.7600327  62.4052887   5.4873638
  24.3562298  51.2578125   7.7302151  24.9357224  51.9880486   7.9474082
  24.3959141  50.6846542   8.4958181  76.7463913  35.5196266  77.6751099
  76.8737106  35.1993065  78.5680923  75.8616180  35.8848724  77.6755447
  68.5757980   2.2793634  49.2986488  68.6584244   2.3469884  50.2498741
  69.1952286   1.5923216  49.0526695  26.6992569  14.9490919   6.6070371
  26.3486538  14.3562765   7.2717767  26.2518520  15.7800026   6.7671804
  31.7791157  35.0595398  75.7402496  31.3609657  35.8996887  75.9287491
  32.6002884  35.2925453  75.3071060  72.6550369  43.4314957   5.1847000
  73.2503662  43.6752777   5.8934889  73.1826706  42.8788528   4.6081443
  40.3248863   4.2887049  22.5019245  41.0979996   4.3777328  23.0592442
  40.6358109   4.5095205  21.6239738  35.4134789  66.8690414  11.0721712
  36.2106094  67.3986206  11.0532932  35.7270660  65.9655304  11.1118393
  16.7765884  42.5085716  64.2307663  16.7438774  42.3074303  63.2955093
  16.8864632  41.6576118  64.6550674  52.1549034  54.1640015  35.7318916
  51.4000282  54.5244827  36.1971283  52.9065018  54.6312675  36.0965767
   9.4876823  52.3757935  87.4779816  10.1400785  53.0292892  87.2258835
   9.4008703  52.4772835  88.4258194  69.2835007  68.7255402   1.0198166
  68.7056732  69.3686295   1.4306599  69.6964798  69.2007370   0.2987994
  73.6330261  37.8703270  84.1943207  72.6960907  37.9820518  84.0333862
  74.0184555  37.7933464  83.3215408  82.3532333  23.9261227  38.8495979
  82.9169312  23.5690556  39.5358734  81.6837769  23.2550869  38.7162781
   0.9883378   8.2613850  36.2813492   1.6629244   8.1935530  35.6056557
   0.6578630   9.1561174  36.2008896  27.6067467  54.5053940  14.8286991
  28.1202888  54.5607758  14.0228214  27.6053829  55.3982658  15.1736765
  53.0603371  70.1098785  28.2016354  53.3448296  70.6425705  27.4589806
  53.5324631  69.2836227  28.0985374  31.2061844  46.2370872  15.7915792
  31.2998600  46.4599991  16.7177353  30.9808350  45.3067894  15.7907438
  86.4605484  41.4840736  80.3456650  86.2208633  40.9956589  81.1332169
  87.3859711  41.6960716  80.4676743  75.5818253  30.5679989   4.0044699
  76.4027252  30.1147041   4.1965222  74.9171906  30.0731468   4.4836450
  66.1319275  25.2151432  24.0152874  66.0508728  25.3208275  24.9631767
  66.6860733  25.9452438  23.7394066  21.6101971   6.4488845  60.9753685
  21.6077957   5.6560659  61.5117149  22.5287819   6.5741081  60.7371368
  33.7589035  66.0842819  85.5044937  32.8040390  66.0233078  85.5318146
  33.9604378  66.8964233  85.9692993  75.0150299  61.2446404  59.1470528
  74.3191681  61.5868378  58.5858879  74.7339478  60.3551865  59.3617554
  60.3857880  69.7158432  25.7141418  60.2441597  69.5042343  24.7914295
  59.9558678  69.0061417  26.1913509  57.7795067  17.3011456  19.0140038
  57.2094574  17.3177586  19.7827702  57.3854866  17.9305725  18.4100151
  24.0966454  67.3701096   8.5823488  24.9152718  66.8754349   8.6194057
  24.3634911  68.2831497   8.6890497  41.3310013  30.1606045  74.6561432
  41.3384895  31.0938683  74.8687363  42.2194061  29.9774551  74.3504791
  63.7838440  65.3959732  53.3145866  63.8556213  65.7327957  52.4214859
  64.6129990  65.6357956  53.7283745  68.4402237  24.6509266  81.3858109
  68.4563065  24.9343700  80.4716797  69.0505905  25.2395668  81.8298645
  81.5007706   6.2252741  58.1887932  81.4017487   5.3317413  58.5174637
  82.0563660   6.1354790  57.4145279  72.0474091  59.8618546  76.9220123
  71.7693176  59.5603104  77.7868652  71.3445129  59.5847778  76.3343048
  59.7584152  33.9246597  36.8780022  60.4644394  33.4303589  36.4615517
  60.1666908  34.3247833  37.6457558  64.0659409  58.1730194  85.3467407
  63.2163582  58.5860023  85.1921844  64.6972733  58.7620201  84.9335556
   6.1458874  60.8005371  77.9260406   5.3793845  61.2417755  78.2921143
   6.1254449  61.0185318  76.9942169  77.2099533  69.9924469  77.0545120
  77.6615829  70.1610031  77.8814621  76.3612137  69.6338501  77.3139038
   2.5021648  30.9408913  31.0239429   2.6912527  30.3495350  30.2954006
   3.3367639  31.3736267  31.2039909  39.8532486  40.3792953   4.1447248
  39.4008827  40.9333229   4.7808466  39.1610603  40.0730934   3.5587690
  55.4078751  51.2133713  23.0243607  55.8314476  51.9516563  23.4622555
  54.4811935  51.4514465  22.9957867  57.4801102  69.2558823  19.0860939
  57.2300606  68.7223129  18.3317623  58.0019188  68.6683273  19.6326485
  28.4804955  62.0485077  29.5370293  28.9648514  61.2339134  29.6714516
  27.9275246  61.8754272  28.7751255  76.5315704   8.5057440  70.7665710
  75.7320786   8.4118462  71.2844772  76.6658096   9.4513206  70.7025681
  77.8824615  44.0240364  42.1636505  78.3199768  43.5878906  42.8948059
  77.9563217  44.9574013  42.3626595  71.5183563  33.3674088  74.6562195
  71.4554825  34.0829353  74.0235291  70.6551056  33.3357620  75.0685730
  72.5326462   6.7305660  85.7996292  72.6924515   7.2380490  86.5953445
  72.4643402   7.3871503  85.1064758   0.6266006  27.7009258  30.2793999
   0.4041588  28.5567913  30.6457920  -0.0967938  27.1321983  30.5429955
  52.4172134  46.5471840  17.7601852  53.0070877  47.2928467  17.8709469
  52.8404007  46.0036774  17.0955486  30.3580933  59.0487251  66.3567963
  30.0818558  59.8516006  65.9148483  29.8717651  59.0496750  67.1812515
   0.6476082  16.7851810  26.1054039   1.2607790  17.3669186  25.6561432
   0.3670588  16.1662102  25.4313126  69.9327545  15.6002674  63.3880043
  70.3202591  14.7687740  63.1147118  70.6268463  16.0372772  63.8814468
  72.8105240  46.1930962  19.8050594  72.5779953  45.4171181  19.2951393
  72.8171692  46.9061546  19.1665173  57.0509949  46.5046806  81.7005081
  57.2849007  47.3537254  81.3254852  56.1978226  46.3005447  81.3175354
  34.4400940  52.6785316  38.0957222  34.4286766  51.8596497  37.6002045
  34.5918083  53.3554726  37.4362030  78.6904221  71.0815277  21.8694515
  78.6582565  71.7747498  21.2101803  79.3541336  71.3751450  22.4935532
  83.5514069  19.5161114  66.5258179  83.2753143  19.3119545  65.6323242
  82.8015747  19.9700928  66.9103775  60.1977310  30.5110207  18.8182354
  59.9997902  31.3763618  19.1763344  59.3612518  30.1967564  18.4750633
  82.7790680  43.3410454  67.1720276  82.3536682  42.7265472  66.5739822
  83.1917038  43.9867401  66.5984039   6.1139231  47.8100967   4.5108614
   5.2915306  47.3370514   4.6378708   6.2552280  47.7949295   3.5642703
  73.9489441  17.6260357   1.2964747  74.8790207  17.4392109   1.1688440
  73.8704758  17.8251629   2.2294393  46.4358215  14.9109850  73.8546829
  47.2292786  14.4722967  74.1616211  46.7006683  15.3453045  73.0438461
  67.8994827  31.4582615  80.5497665  68.0408707  32.1699028  81.1741104
  67.0643234  31.6685486  80.1320038  82.3310852   1.3735576  10.6119890
  81.4149704   1.6196706  10.4839840  82.4993057   1.5496682  11.5376892
  72.8663101  15.5452709  88.8795624  73.5050964  15.2238894  88.2432556
  73.3634567  16.1445942  89.4362411   2.7219055  46.2631073  15.6296320
   3.3189361  46.9071808  15.2488976   2.4437537  46.6544876  16.4576931
   4.8861017   3.6926239  58.9144669   5.0554228   3.5733497  59.8489914
   4.7184606   2.8090367  58.5867462  17.1974621   2.9085777  24.3378124
  16.7508984   3.7531738  24.3967190  17.2061596   2.7069924  23.4021187
  73.2376633  59.9142303  13.6574545  72.7944717  59.4567871  14.3719873
  73.9067688  59.2988777  13.3576651  54.9385757  10.3513460  33.7798805
  54.0706253  10.3422890  34.1833763  55.5237122  10.6477451  34.4770126
  71.7270126  64.2814560   5.2506895  72.6255875  64.3866501   5.5633121
  71.2781906  65.0758286   5.5401015  30.0174694  55.4261284  72.9305725
  30.7618427  55.0336037  73.3867188  29.5925617  54.6909637  72.4887390
   6.3046494  17.4880695  13.1193037   7.2029691  17.3051739  12.8439808
   6.3889494  17.7985077  14.0208321  23.2274055  30.6335468  19.6180687
  22.7067280  30.6609783  18.8153400  24.0075836  31.1497097  19.4152603
   3.7503123  16.5037422  12.9173717   3.9686940  15.8386812  13.5702391
   4.2248693  17.2844849  13.2027998  18.8792439  68.0512161  30.3973751
  18.6612644  68.4795151  31.2251911  19.3976631  67.2878647  30.6518803
  86.4988785  54.8001289  77.4767303  86.1819763  55.1456451  76.6422119
  86.8424149  55.5653725  77.9378281   9.2903051  27.3911400  87.0829849
   9.1991405  26.4384117  87.0677719   9.2220716  27.6235199  88.0090408
   8.9480314  27.5011806  73.3968964   8.9788189  28.1017590  72.6521835
   9.7745733  27.0205727  73.3513260  79.7763672  29.2147083  65.0708237
  79.1600037  28.8971519  65.7307358  80.2032700  29.9655304  65.4834366
  68.1807251   4.7921228  45.2354813  67.4349442   5.3864236  45.1527634
  68.6110535   4.8274622  44.3811951  50.4548531  28.7536411   6.0322270
  49.8524628  29.4950180   6.0932097  50.7670326  28.6243916   6.9278111
  12.9791193  46.9385109  56.0774612  12.6711950  47.8149719  56.3081818
  13.6749830  47.0897865  55.4378357  84.1805573  45.7582054   4.2383299
  84.9140778  46.3584137   4.1044350  83.6953125  45.7853050   3.4136889
  84.7621765   7.4145164   3.3194439  84.4265900   8.1346722   3.8532884
  84.8754959   7.7947192   2.4483314  64.7802277  12.6960602  30.0773125
  64.6060486  13.1444731  30.9048519  63.9663124  12.7840414  29.5812931
  15.5272036  54.0654755  61.6825829  15.4366207  54.0075569  60.7314415
  16.4308300  54.3496132  61.8202629   8.6886206  42.3678055   2.2946162
   8.9946585  41.7760658   1.6072900   8.3591690  41.7876244   2.9809725
   9.2761946  71.3043289  81.5344620   9.4278154  71.9260254  80.8226089
  10.1190090  70.8665085  81.6536636  80.4341125  47.7414780  85.8231735
  79.4773712  47.7705269  85.8177719  80.6709595  47.8219566  86.7471161
   7.6883869  52.3232880  14.7649822   6.9898329  51.8080368  15.1684284
   7.5549932  52.2120323  13.8236742  64.0722275  64.0687332   7.9225082
  64.5439835  64.8673172   8.1590185  64.5930786  63.6824989   7.2183952
  19.7175350  27.6066570  68.1269455  19.7120724  27.5656643  69.0832520
  19.2177315  28.3958645  67.9181824  33.0906372  64.9765015  34.7003136
  32.6619377  65.5168839  35.3639679  33.8163872  65.5151520  34.3850746
  25.2520752   2.2498748  47.4975510  25.6774807   2.9098780  48.0449600
  25.6897583   1.4301047  47.7269859  84.4545593  35.0998192   7.4789929
  85.2396927  34.9106102   7.9927959  84.6550217  34.7673950   6.6040416
  13.2844000  50.2726402  33.4540482  12.8192883  51.0581703  33.7418709
  14.0455818  50.6056442  32.9787140  70.6812134  45.5359840   5.9270349
  71.3800888  44.8943672   5.8000302  71.0972519  46.2512131   6.4082737
  29.8073425  44.9568176  82.3134689  29.5998478  45.4215088  83.1241760
  28.9550743  44.7132339  81.9521713  11.5994310  40.1687927  69.7303391
  10.8259420  39.6125221  69.8225937  12.3021240  39.5642509  69.4916229
  75.1094208  14.9119587  81.9100342  75.8908844  15.1295586  81.4019012
  74.3801117  15.0928268  81.3170547  33.8860664  53.4530678  40.8210869
  34.2142410  52.6436081  41.2126350  33.8835869  53.2799149  39.8796806
   5.6852908  25.1417255  49.4488220   5.9624267  24.3178387  49.8496170
   5.7514253  25.7853832  50.1542053  86.0364761  29.8509140   8.4949417
  85.4324951  30.4813652   8.8873405  85.4930878  29.3402443   7.8947892
  75.0165329  58.6462288  86.2015381  74.2226562  58.1340141  86.0478210
  75.4264908  58.2307472  86.9601822  71.7124329  43.3811607  21.2741852
  72.0421753  43.8784065  22.0226822  71.4843521  42.5252457  21.6369781
   8.6943817  10.6653118  87.3413010   9.3799362  10.5320415  86.6867142
   7.8853378  10.4149923  86.8951874   8.5574026  41.5386162  67.3985825
   8.8968630  40.7250481  67.0256119   8.4436703  42.1182556  66.6453857
  52.6151733  52.3706322  29.7274418  53.1524544  52.2300339  30.5070534
  52.5174637  53.3212242  29.6721401  55.9442024  11.3696022  44.6491737
  55.5190086  10.8677969  43.9537354  56.8060684  10.9642029  44.7444115
  56.2746468   7.6084433  23.4795055  57.1895065   7.5690508  23.7582760
  56.3182755   7.7574029  22.5349731  78.9945755  20.9224148  62.8958969
  79.7660065  21.0194759  63.4542084  79.1052094  20.0668602  62.4811478
  14.8545322  11.4091024  84.8241348  13.9816647  11.1637135  85.1309204
  14.9312096  12.3388014  85.0386353  39.6848526  22.4041615  63.4401741
  39.0248413  22.1301727  62.8033485  40.4306908  22.6811886  62.9079971
  72.9429398   4.6873302  55.0597763  72.6701965   5.3633575  55.6801224
  73.0600281   3.9032326  55.5961647  63.4682312  16.5585442   9.1801052
  63.2635231  16.1064186   8.3616257  62.7475967  16.3294544   9.7669935
  64.4010239   4.2672515  42.0278778  63.7666512   4.0088587  42.6964874
  64.6309509   3.4493124  41.5870361  42.0973778  35.6462288  68.3563080
  41.5415840  34.8832932  68.5152359  42.5383568  35.4531326  67.5289688
   8.0145721  43.5129585  10.3824940   8.1244965  44.4201698  10.6672993
   8.1298571  42.9959831  11.1797876  79.0119705  47.0209961  54.7771721
  78.0636368  46.9009018  54.7274284  79.1292343  47.7534256  55.3821793
  39.2551231  45.6577225  60.3698425  39.9409027  46.2749252  60.1148987
  39.6741867  44.7987633  60.3168564  80.2146454  27.1845570   2.5225215
  80.4591446  26.4284725   1.9888645  79.5140076  27.6100597   2.0282726
  50.3630714  52.4332962  37.2020302  51.0450134  53.1000671  37.1207504
  49.5486183  52.8994408  37.0133362  73.7087784  48.0307808  31.4076462
  73.0088272  48.5732231  31.0442371  74.5124893  48.5096970  31.2053585
  10.4575424  58.8122139  78.6077805  10.4105902  59.3839455  79.3740387
  10.9589996  58.0532265  78.9056244  46.0267792  48.7178574  33.4909554
  46.9331512  49.0060463  33.5989685  45.8030167  48.9626274  32.5930405
  12.0850592  70.0341034  61.7174530  11.7065105  70.6038437  61.0478821
  13.0302458  70.1581268  61.6310120  59.1893463  29.3453445  40.4822655
  58.4329529  29.8727169  40.7391357  59.5324364  29.7823563  39.7028160
  79.5273743   7.2535348  88.5552597  78.5878296   7.3340483  88.7196121
  79.6369247   6.3625278  88.2230835  11.0686808   3.8557110  69.2982407
  11.5351105   4.0369024  68.4822540  10.9384956   2.9074140  69.2942200
  42.8173637   4.6380758  77.7031860  43.6917801   4.3641038  77.9798965
  42.9072266   4.8161173  76.7669907  75.9105377   1.8661412  26.5476475
  75.1851501   2.4656289  26.7227650  76.3395996   2.2292113  25.7728481
  48.4361992  39.9915543  62.4690399  48.3419037  39.4841537  61.6628838
  48.0365257  39.4439926  63.1448135  38.0379372  65.0148849  71.0902252
  38.8492851  65.4632034  71.3288803  38.2423706  64.5719528  70.2666626
  70.8467026  70.8322983  54.4936790  71.2489243  70.3047867  55.1837387
  70.8862534  71.7296829  54.8243942  13.1787930  65.1096725   7.3114281
  12.3814831  64.8224335   6.8664317  13.2196407  66.0514908   7.1455021
  14.7111015  46.1470490  22.9121323  14.5658140  46.8457069  23.5501022
  14.9379311  45.3825760  23.4416218   9.8421383  64.4770126  37.2018890
   9.3626347  63.9348373  37.8282700  10.7240429  64.5430069  37.5681114
  53.7485542   8.2156286  85.8755875  52.9092903   8.2157059  86.3358765
  53.5528831   8.5991116  85.0206680  54.0848923  59.2484093  53.5484810
  53.4373055  58.7602921  53.0399475  53.7646027  59.2043877  54.4494286
  69.2699814  46.8787956  65.7823029  70.0111084  46.2963905  65.6156464
  68.5348206  46.2890625  65.9495773  27.2711506  46.6934013   1.6938248
  28.2247429  46.6573257   1.7686149  27.0983448  47.5103035   1.2258065
   9.3019848  28.1928196  59.7494431   9.2982969  27.2429810  59.6310272
   8.5485735  28.4999771  59.2452011  41.3354416  19.9406929   2.9440053
  41.5509033  19.0727863   3.2853963  41.8135033  19.9981155   2.1167252
  51.2842484  47.4260254  38.1863022  51.8527451  46.7782516  37.7698479
  51.1306496  48.0821762  37.5065193  54.1679802  32.7319946  61.0610275
  55.0144119  33.0112572  60.7120285  54.3666115  32.4059868  61.9388084
  44.1579208  69.1588898  12.5667744  44.9374504  69.6895523  12.7309818
  44.0716362  68.6119919  13.3476019  16.4867744  30.0600243  63.2019730
  17.3595428  30.3059711  62.8953476  16.2245121  30.7775421  63.7787018
  58.1499214  68.7328110  23.9389553  58.3909988  69.6411972  23.7574520
  57.4514618  68.7959595  24.5904121  47.6926003  18.7451267  35.3733521
  47.6661911  19.4098034  36.0616379  47.2161217  19.1383762  34.6422195
  18.1616268  52.1583214  88.5711365  17.9901524  52.8875046  89.1670532
  17.3188972  51.7116241  88.4905167  51.4498520  56.9946938  54.8694954
  52.0000725  56.2138710  54.9311295  52.0492592  57.7234001  55.0305328
  52.5811081   4.0543337  70.9753494  52.7843590   3.1235993  70.8823166
  52.9950638   4.4668303  70.2172470  11.5990267  63.5229988  26.5836849
  10.7842331  63.6253204  27.0754910  12.2604132  63.3407021  27.2511921
   5.4727478   7.3544612  59.2598305   5.1117663   8.2129488  59.4810181
   5.3156219   6.8206725  60.0386848  34.9945526  30.7461548  62.1474190
  34.5175667  29.9310532  62.3033905  35.8659744  30.4642467  61.8692398
  65.4152756  54.1590347  77.2591934  64.5432281  53.8370552  77.0309601
  65.8801346  54.2043076  76.4236755  63.3691978   3.5422587  82.5930557
  62.8714409   3.9063430  81.8609924  63.2543449   2.5953212  82.5133667
   4.5379052  12.2746820  55.4136772   5.2452726  12.7331305  55.8672066
   3.7881072  12.8659925  55.4799042  35.3750114   1.7608306  81.6281281
  35.4498138   1.6820474  80.6771164  35.2825737   0.8594248  81.9365997
  62.5722160  68.8017044   6.1325555  62.0426941  68.5003891   6.8708315
  62.9532471  68.0023651   5.7690845  61.5805473  40.8715935  38.6311607
  61.3553123  41.7442589  38.9535789  61.2465477  40.2751312  39.3011703
  14.3682156  48.9741592  11.8492117  14.1157990  49.6219482  11.1912718
  14.2829876  49.4348297  12.6839275  73.3678436  67.1183548  18.1378784
  73.5533676  66.4964981  17.4342384  72.8564682  66.6163788  18.7725029
  55.1155434  63.6886597  67.1937866  55.9878426  63.3696556  67.4252243
  54.5412254  63.3263283  67.8684006  34.9886093  35.8918762  76.8419037
  35.6467133  35.3358154  76.4248581  34.7722855  36.5463028  76.1777039
  21.7011986  39.2051125   8.7251835  22.0195427  39.9128418   8.1648207
  22.0948887  38.4135437   8.3582268  74.3774185  38.3835144  35.1892319
  74.0097351  39.2280006  34.9286919  74.3392334  37.8504181  34.3951416
  53.6271706  18.8652706  66.1605453  53.8223114  19.7288532  65.7967072
  53.2990990  18.3604183  65.4164200  71.7576904  40.0121880  81.5273209
  71.5208206  39.4299507  82.2492142  71.0379181  39.9240761  80.9025040
  -0.0021781  13.0994053   8.2821732   0.0062199  13.1059971   9.2393131
   0.9117858  12.9576111   8.0356035  78.8211441  11.2639914  48.9773788
  78.7447586  10.6354294  48.2595291  79.7116928  11.1439180  49.3071289
  18.0556564  26.6770134  73.0122147  17.5427742  26.2202930  73.6789932
  18.3537464  25.9840412  72.4230042  58.9534721  40.6423340  80.1565857
  58.2693825  40.2146263  80.6716690  58.7198563  40.4566956  79.2470779
  43.1295013  50.5820885  27.2945404  42.2248421  50.3111877  27.1382103
  43.0747070  51.5262756  27.4419727   7.6513290  39.2698898  83.3213959
   7.1915140  39.1610451  82.4889603   8.5512304  39.4803925  83.0722046
   5.5754566  49.4890366  36.6197128   5.7052207  48.5495605  36.4901810
   4.7679615  49.6869354  36.1453514  75.0156326   4.3981857  18.7133427
  75.0871887   3.5016582  19.0409851  75.7731400   4.5040493  18.1378384
  54.6017838  45.6672249  47.2424202  54.7432861  44.7905540  46.8851242
  55.2888298  46.2018356  46.8444328  82.0264587  69.6193008  59.4031410
  81.8409805  69.8555832  58.4942932  82.7423172  68.9865417  59.3447952
  42.9484253  49.6024475  86.9090347  43.6247330  48.9549408  87.1079712
  43.4237442  50.4298859  86.8338699  14.9474201  70.6996536  80.2035370
  14.7157907  69.9620209  80.7678757  15.4400644  70.3051682  79.4838715
   1.1478367  29.0647335  83.1843109   1.0818968  29.0502567  84.1391296
   1.8292307  28.4237823  82.9815445  73.2805176  32.5830956  19.3614426
  74.0532303  32.5778427  19.9263458  72.5515594  32.3898087  19.9509277
  48.7169228  26.8756905  14.0173740  48.2958984  26.9477005  14.8739872
  49.6145821  27.1729412  14.1659498  56.4303017  24.6122150  23.5675983
  55.8135414  24.4052525  24.2697430  56.5078926  23.7985687  23.0694122
  24.3236046  67.7242737  31.3450413  24.0536823  68.2025986  30.5610905
  25.2516479  67.9354858  31.4468193  56.1410637  71.0718307  27.6618481
  57.0914345  71.0191574  27.7631264  55.8338547  71.4582596  28.4819241
  13.3833113  70.4078445  58.7179222  12.7478580  71.0178528  59.0925179
  14.2353058  70.7720413  58.9581261  68.3594742  70.0530319  49.7402954
  68.8402710  69.2385635  49.8876724  68.9621277  70.5988770  49.2352219
  81.0004883   2.6311107  89.1508331  80.3604050   1.9489915  89.3538971
  80.4731598   3.3765333  88.8636017  83.8144608  39.8474922   6.6370440
  83.2532196  39.2723007   7.1570425  84.0875320  40.5319176   7.2479620
  13.0081367  30.8200493  57.7814255  12.3775511  30.6597271  57.0793648
  13.5782280  31.5083771  57.4387436  61.0245819  55.6927795  88.4382248
  61.5793457  56.4193001  88.1542587  60.1819000  56.0995178  88.6399307
  17.8148308  35.8433762  82.1783829  18.4905128  36.1838455  81.5920639
  17.3893375  36.6242638  82.5325089   3.7362218   9.9197960   8.9260244
   3.9698141  10.7508402   8.5124636   2.8568890  10.0648775   9.2752476
  42.9698715  58.8140068  11.1780329  42.3752594  58.1791534  11.5775728
  43.4884224  59.1496391  11.9092560  56.6721687  19.5569363  48.6046677
  55.9563560  18.9323902  48.4872322  56.8553925  19.8799076  47.7224274
  77.1974258  31.6624851  61.5480232  76.4616699  31.0608482  61.6617050
  77.3853607  31.6364384  60.6098137  62.7388878  -0.1248158  75.9294434
  62.6926155   0.6607323  76.4744263  63.4661598   0.0421100  75.3299026
  43.5602760   8.1965446  88.7004776  42.9760780   7.4629650  88.5086365
  44.0198860   7.9344478  89.4981613  70.7832718  33.1658401  67.4886780
  70.0362244  32.9182167  66.9438477  70.4627151  33.8970909  68.0166473
  54.4639244  36.2921715  56.3818550  54.2468681  37.2061157  56.1979523
  55.0571098  36.3331413  57.1319771  78.1151276  45.1336021  88.4490891
  77.3295822  45.6224098  88.2037048  78.4508743  44.7887802  87.6216812
  57.2290535  25.8388023  14.5582514  57.0853577  24.9694824  14.9322386
  58.0711212  25.7697906  14.1083708  78.8554611  65.1948471   6.0273318
  79.5444260  65.7990189   5.7506871  78.0702515  65.7388382   6.0885663
  86.0500717  70.6523132  45.0421143  85.5982361  69.8214188  44.8948555
  86.1854553  71.0101242  44.1646843  76.0657654  47.0489159  55.3309975
  75.4381104  47.7371445  55.5515022  75.6141205  46.5127068  54.6792870
  18.9456081  68.2671051  47.0001717  18.7175617  67.7522507  46.2261238
  19.4870281  67.6797409  47.5275269  35.9283981  52.0013809  72.3439331
  35.6877632  52.9273834  72.3730087  36.5519791  51.9385681  71.6204376
  57.1477814  30.5257072  53.9772720  57.3165359  29.9113312  53.2629242
  56.2273254  30.7669296  53.8732986  44.9856682  46.8060837   7.1329594
  45.2431221  46.5554695   6.2457495  45.5403252  46.2733040   7.7028151
  82.5832367  58.7185898  51.7268028  83.3379135  58.8953400  51.1651459
  81.8244095  58.8780746  51.1655769  48.8487816  43.8974991  21.9193459
  48.2443542  44.0553398  21.1940975  49.6553421  43.5998764  21.4984932
  83.7594528  18.4660015  44.2910843  83.3948822  18.2609444  43.4301109
  84.6759338  18.6812801  44.1180229  10.9384747  57.9677963  42.0890961
  11.1662502  57.6429520  42.9602051  11.5686407  58.6687813  41.9225426
   5.2475944  28.3779984   9.8917360   4.8209982  28.2173595  10.7334261
   4.5263262  28.5521927   9.2870378  82.7395630  13.8634491  32.3151398
  82.5505829  12.9886017  32.6544914  82.5340729  13.8078976  31.3819084
  75.7021027  25.4387131  18.4207840  75.5812988  25.4880238  19.3690491
  75.2034302  26.1798820  18.0769444  30.8009129  43.9896927  18.7751274
  30.4493713  43.1343307  19.0221252  30.2585793  44.2674408  18.0369110
  67.2291107  33.0087738  13.5770044  66.8026886  33.0694389  14.4318218
  66.5246811  32.7705078  12.9743099  69.4748001  30.8911171   4.4809766
  70.1449203  30.2597046   4.7426853  69.7263260  31.7033520   4.9205680
  75.3105087  33.6681061  30.6779194  75.1443176  33.2105026  29.8537750
  75.9413605  33.1134567  31.1368542  68.3226700  37.6922798  31.1683979
  68.9293976  38.3316841  30.7952118  67.7063599  37.5052567  30.4602871
  78.3432388  28.7414360  34.9211502  78.5374908  29.6714993  35.0372620
  78.5480042  28.5668488  34.0025520   6.6958251  38.7668877  51.5089760
   6.9182820  39.6823387  51.6783829   6.7756867  38.3392639  52.3616142
  66.5371017  34.1528587  84.4640427  66.0881500  34.9946251  84.5421448
  66.6917725  33.8791122  85.3681259   3.7549679  31.8323059  83.9895172
   3.7300379  32.7175179  83.6261826   3.8772144  31.2644768  83.2286835
  19.3215542  60.5340500  32.0272903  19.2967415  60.6423111  31.0765572
  20.2384319  60.6788063  32.2609863  73.9906921  17.5599937  30.8429279
  73.6472244  16.7592373  31.2392197  73.4113617  17.7268486  30.0994473
  60.0978355   4.5694642  58.0582123  59.1941566   4.7248831  58.3328819
  60.3728905   5.3957510  57.6609421  24.3195801  21.6949253  56.5635719
  23.7775517  21.5990849  57.3466759  24.9562244  22.3714561  56.7942657
  56.9566002  28.3507042  83.0164108  57.7616196  28.7560806  82.6941528
  57.2192039  27.4661865  83.2711639  68.8197327  45.3680801  60.2676582
  69.2883224  46.1777840  60.4702187  68.3084488  45.1837158  61.0555878
  22.1500912  55.7430611  64.6650543  21.6576328  55.7076912  65.4850922
  22.9463291  56.2268715  64.8845139  61.4927750  29.2663364   9.3665171
  62.1476440  29.7937889   9.8238735  61.9296036  28.4302807   9.2039595
  31.5824165   9.4480562  72.1175079  31.9676323   8.7215548  71.6275711
  30.7982941   9.0757675  72.5209732  17.4458961   7.5948272   2.6824050
  17.2543755   8.2444134   3.3588586  17.4309864   8.0902491   1.8635235
  28.0258446  41.0372620   4.3874927  28.4333401  40.2152786   4.6604776
  28.4770470  41.7094574   4.8981829  69.4192200  38.9977875  17.2979164
  69.9353104  38.9680595  16.4923115  68.8877563  38.2021294  17.2713909
  70.7874298   5.7026958  53.3398666  71.6214676   5.2550883  53.4822197
  70.9815369   6.3659267  52.6775398  50.9469299   5.5064292  84.8570938
  51.6827927   5.2219439  84.3150558  50.4534264   4.7048573  85.0307846
  39.2207222  37.4701805  80.0437469  39.2525978  36.5686913  79.7235413
  40.1345711  37.6944618  80.2192764  37.0080719  47.1597061  77.0221634
  36.4873047  46.6590500  76.3941650  36.9603119  46.6515656  77.8319397
   0.2980577  40.4510078  33.6951180   0.6346736  39.7819901  33.0990181
   1.0777572  40.8044128  34.1233749  64.8991699   4.2914648  32.3021049
  64.2497787   3.6831288  32.6548843  65.0421677   3.9945362  31.4034290
  35.1777267  61.6318970  40.8513298  36.1168976  61.7679520  40.7261314
  34.9292870  61.0223083  40.1564140  52.5922279  14.3539181  36.6576080
  52.4558411  13.4115658  36.5596161  53.4251022  14.4282150  37.1234741
  27.9623127   5.1206756  79.1555634  27.6577759   6.0207043  79.0396423
  27.5073643   4.6243773  78.4751663  61.0056038  71.1803207  15.7692318
  60.5260315  70.4945450  16.2339478  60.4587135  71.3826981  15.0101633
  44.0703201  49.2069283  83.8686066  43.5050163  49.8206177  83.3995132
  44.3553352  49.6891785  84.6447678  18.0535469  55.0049248  62.5723381
  18.2712002  55.4401588  63.3966141  18.5941257  55.4472923  61.9178772
  80.0250397  22.5413551  78.3461838  80.8409119  22.2337608  77.9512558
  80.2874527  22.8876667  79.1990891  73.0131302  65.3407135  84.1386185
  72.2841568  65.5223083  83.5454559  72.8093796  64.4837189  84.5131607
  85.7867584  25.8481731   7.0712714  86.1958389  24.9884357   7.1699481
  85.8751831  26.2557964   7.9328141   4.3915749  21.0270481  20.4864254
   4.9967370  21.0406933  21.2279263   4.8403640  21.5231953  19.8018398
  52.4543037  36.6131592  16.4051590  52.3274307  35.7560272  16.8119202
  52.3497238  36.4511757  15.4675789   2.2247534  20.0673847  38.0964699
   1.4320630  20.5950489  37.9992867   2.2291908  19.8093300  39.0182190
  68.5202484  16.5810261  45.4731483  68.3722992  16.3529491  44.5553665
  69.3564301  16.1689968  45.6905479  45.5124626  55.9211197  46.7814598
  46.0156898  55.4788513  46.0977974  45.1670952  56.7054863  46.3551750
  58.2068787  42.9628487  77.7767487  57.6001587  43.6889534  77.9213104
  59.0150337  43.2359390  78.2109604  57.3413734  54.9289398  21.4014759
  56.5710678  54.8284721  21.9607296  57.9766197  54.3060493  21.7546062
  11.6250105  71.6707764  88.6430130  11.5487041  71.0042419  89.3257523
  12.5434303  71.6356888  88.3756104  49.5542946  36.0374298  75.3921051
  48.7048225  36.0087547  75.8323364  50.1132965  35.4603195  75.9123840
  77.1602478  71.2679214   1.9563997  76.6295700  71.5735779   1.2207431
  76.9120178  70.3499527   2.0657039  40.3253822  35.1787796  62.6765518
  41.0889854  34.6565132  62.4308243  39.5853844  34.7262650  62.2717476
   2.8381371  26.3836288  63.8082047   2.0889468  25.8039017  63.6708641
   2.6724679  26.7918739  64.6579819  21.9950218  51.3852119  64.7537613
  21.2552433  51.4544716  64.1502991  21.6708641  51.7576370  65.5737915
  27.4601364   1.8479863  58.8144493  26.6198120   1.8927191  59.2706146
  27.5253716   2.6825223  58.3502007  43.5702171  57.0571175  68.4571304
  44.0991783  56.3489876  68.8245239  44.0080643  57.8577995  68.7459793
   6.3531833  45.8121033  58.9369049   6.2164631  45.9779510  58.0041466
   5.5009336  45.5137901  59.2545700  85.0747681   4.0691857  62.3407555
  85.1249619   4.2849498  63.2719688  84.8906174   4.9044085  61.9109612
  46.9856415   9.0614433  14.2851067  47.0749016   9.8164387  13.7035160
  46.7501144   9.4385958  15.1327591  18.3747673  13.5725403  84.8588028
  18.6823845  14.0561008  84.0921326  18.9915638  12.8458929  84.9469986
  28.5663147  40.8858910   1.7717682  29.5192661  40.7967834   1.7584423
  28.3596325  41.1128120   2.6784220  44.8221703  71.3553696  54.9647522
  45.7224617  71.0688782  55.1184845  44.6486969  71.1212158  54.0529900
  81.8158798  62.4851036   5.3807287  81.5949936  62.3239250   4.4634166
  81.0002518  62.7978439   5.7721071  53.0011330  49.4084015   7.7094750
  52.1933594  49.8770370   7.4994407  53.0653076  48.7289925   7.0382681
  65.5353622  12.3909616  69.9356995  65.0821304  13.2283974  70.0332184
  64.9221191  11.7445669  70.2854691   1.8872641   5.1951251  48.3352242
   1.9408616   5.8041420  49.0717392   2.6612668   5.3896894  47.8067398
  31.5176792  21.2291603  76.8769608  32.2014313  21.8333054  76.5876083
  31.9469891  20.3738937  76.8980255   7.2214074  57.1876450  73.0789413
   6.2938142  57.4180107  73.0266495   7.5949960  57.5106087  72.2589645
  76.7836304  63.3183136  80.2657013  76.8314514  63.8355675  79.4617157
  76.0509796  63.6974487  80.7511978  85.6981354  11.2885551  43.3849068
  84.7902069  11.3660297  43.0918465  85.6821213  10.5814857  44.0299110
  32.9767838  12.9732943   8.3756237  32.8082123  13.7425060   8.9197998
  33.4238396  12.3603239   8.9592676  83.9618683   8.3124475  75.8205032
  84.8839874   8.0606308  75.7703171  83.6948090   8.0683107  76.7066803
  26.8704586  60.6636848  79.1732101  27.8099976  60.5778732  79.3348770
  26.4778404  59.9311142  79.6480026   1.2886789  31.9866352  16.3434505
   0.4539843  32.4383202  16.4679413   1.5744965  31.7631187  17.2292175
  68.1884308  30.1254082  51.4982147  67.5585785  30.6323528  52.0105896
  67.9417648  29.2131062  51.6501846  22.5099945  56.7531090  48.2977829
  21.8669758  57.3061447  48.7415314  22.2259007  55.8583374  48.4846039
  45.0817947  50.5948143   6.6207986  44.4618301  50.1469841   6.0451918
  45.0354767  50.1109810   7.4454136  25.2759151  50.5898743  70.7218552
  24.9850864  50.1085739  71.4964447  25.9142513  51.2195969  71.0568314
   1.9875184  22.9308014  20.0137157   2.7131686  23.5212517  20.2162800
   2.2343135  22.0998936  20.4198189  53.5724411   2.3795226  77.5683517
  53.9287682   2.4733028  76.6849136  54.2482376   1.9022714  78.0497742
  70.5961533  28.9833565  55.1699905  71.1990204  29.6124077  54.7736702
  70.1044998  29.4948978  55.8125114   4.0203967  51.3463554  13.4205179
   4.8809757  51.1480713  13.0513039   4.2092390  51.8606262  14.2054348
  68.0849228  71.5626678  22.6105003  67.8552475  72.0314560  23.4128189
  67.2757645  71.1224136  22.3503571  43.9344215  26.8821259  66.2414017
  44.1177635  26.3350658  65.4776382  42.9822159  26.8522644  66.3343887
  56.6427269  51.2662010  59.1658134  56.3572617  51.7257271  58.3761444
  56.2690201  50.3890724  59.0808144  43.5458565  45.3531914  58.0437126
  42.7784653  44.7887993  58.1375504  44.0574379  44.9474449  57.3437958
  72.1272659  17.4234810  71.4106140  72.8524094  17.9033813  71.8107452
  72.3082504  17.4555340  70.4712296  19.1893864   2.3611650   1.6513205
  19.6141586   1.5268583   1.8506479  19.9134178   2.9743321   1.5246894
  18.1385193  21.5387707  21.3912601  17.6366291  22.0872211  20.7883186
  19.0341454  21.8705101  21.3277340   2.6444268  44.9362259  11.9800854
   2.1663606  45.5729256  11.4487686   2.0851259  44.7933693  12.7436333
  62.7468948  62.7482224  84.9720917  63.2396698  63.5686913  84.9873276
  61.8290977  63.0198441  84.9820328  75.7552109  47.8581467  39.0120239
  76.2802124  48.4475594  39.5535011  74.8979950  47.8417320  39.4376259
  57.7005005  53.0043602  19.0288010  58.3193283  52.7462730  18.3456650
  58.0755310  53.8016205  19.4029198  49.8894768  11.6387901  23.1934319
  49.5345192  12.4170694  22.7638779  50.5385246  11.2999382  22.5768700
  13.8152170   1.3831537  19.5348091  13.5205288   2.0821524  18.9510365
  13.9587469   0.6333905  18.9573269  67.6821823  31.0049839  48.9514771
  67.9191971  31.1855488  49.8611183  67.0757446  31.7077885  48.7179489
  78.5286865  26.5134411  20.0996799  79.1346970  27.2543697  20.1004696
  78.6362305  26.1169739  19.2351112  49.4994087  10.5958233  52.6133728
  49.1362343  11.0801573  51.8719139  49.6745377  11.2656584  53.2743416
   3.0966859  61.9067497  26.5510101   2.3702676  62.3023071  26.0692635
   2.6760132  61.3196220  27.1791420  47.9613457  64.8102722  13.1585941
  47.0689430  64.5137863  13.3373175  48.5147209  64.0725937  13.4151869
  15.3479948  65.4363327  60.9016533  15.0883999  64.5702820  61.2159691
  15.0602932  65.4560318  59.9889259   8.6375990  40.6828575  52.6048050
   8.8981657  41.0026321  53.4685669   8.1362247  41.4037285  52.2237549
  12.3061876  42.4854355  74.5264587  12.5453796  41.8932114  73.8135147
  11.3853636  42.6925583  74.3670425  45.7710533  71.6801910  42.3749046
  45.1031151  71.3670425  42.9848442  46.1595001  70.8828049  42.0150261
  73.3909760  50.8998108   3.1105998  72.6871719  50.6903419   3.7246146
  73.1747665  50.4046516   2.3204722  71.0158310  38.3721008  88.8311157
  71.9158936  38.3158188  88.5102692  70.7248535  39.2475433  88.5758438
  63.3833046   7.5563602   5.3152661  62.8591881   8.3059902   5.5973787
  62.8435555   7.1216178   4.6550398   8.3261147  59.1665382  64.5950165
   8.5998917  60.0509033  64.8382797   7.5748701  59.2989197  64.0167923
  18.0275288  69.5741272  44.3841476  18.0981789  70.1743393  45.1264343
  18.8492031  69.0832214  44.3940315  26.9624996  19.6414146  50.1943741
  26.9053612  19.7173805  51.1468430  26.9755707  20.5462151  49.8822937
  25.7514839  26.2612457  11.8136415  26.3943558  26.0194950  12.4803534
  25.0897274  26.7628670  12.2897558  59.1766205  15.5417862  81.6038437
  58.5438042  15.7031813  80.9040375  58.6489334  15.5127182  82.4019241
  48.6967316  64.8106995  18.0178623  48.2884064  65.6645050  18.1611309
  49.1576691  64.9025497  17.1839962  66.6305466  17.3308830  47.2678795
  66.2520981  16.6777020  47.8564072  67.1486359  16.8207550  46.6453133
  81.2376251  24.2567635  18.7429829  80.7926788  24.6347809  17.9844589
  81.5597153  25.0131569  19.2332497  47.0229836  30.0212498  67.2079544
  46.5010834  29.6373653  66.5033340  46.5268784  30.7932644  67.4801788
   7.5918541  67.6563492   9.2073317   8.0979118  67.1779709   9.8640623
   7.1872835  66.9733505   8.6724796  70.7685699   9.5206900   8.6416368
  70.3681259  10.3884764   8.5885077  70.9576797   9.4007444   9.5722713
  84.7752838  14.3407698  19.0893574  84.1439209  14.6581411  19.7350292
  84.3860092  13.5349455  18.7497311  82.3432999   0.3367926  49.6817894
  82.6915817  -0.1917556  48.9637566  82.3810959   1.2364677  49.3571548
  30.3193607  67.3074341  71.2804260  31.0733776  67.7680054  71.6486130
  29.7422562  67.1560898  72.0289459  57.4212189   0.8643510  10.8965178
  58.3291855   0.9247658  10.5995712  56.9257240   1.3769609  10.2578087
  65.9544220  43.7755051  30.5334339  66.7669678  43.2989044  30.3635769
  65.4242935  43.1686249  31.0500507  30.8741188  17.0872726  69.7218933
  30.3393707  17.8809700  69.7039337  31.1792297  17.0244637  70.6269836
  80.9845963  65.5665359  83.3451157  80.5734634  65.3764954  82.5018539
  81.0631332  64.7129440  83.7710648   6.7826018  66.6210251  68.7448425
   6.8482637  65.7886505  69.2128906   5.8914905  66.6296921  68.3954468
   1.3751864  35.1042519  16.8003216   1.2228903  35.7139778  16.0783310
   0.9502776  35.5142288  17.5537186   5.5291433  45.2148323  71.4378281
   4.8479352  44.9338531  70.8268967   5.2932920  44.7992363  72.2672195
  59.2753181  26.0112858  20.6791553  59.9030991  26.4576721  21.2473660
  59.8178215  25.5279007  20.0560493   8.6172228  64.1918411  39.5915985
   8.1828251  64.9778519  39.2603607   7.9110270  63.5543709  39.6971703
  61.7141304  25.3366966  14.4088650  62.5115738  25.3310680  14.9382830
  61.0136871  25.1332035  15.0287085  72.7253494  43.1142960  32.5577202
  71.9076691  43.5825958  32.3894386  72.4837570  42.1889038  32.5187645
   8.4169302   6.1590118   8.8127947   7.6600852   6.0867639   9.3943415
   9.1271591   5.7294278   9.2895164   8.3053570  70.4309235  22.4047146
   9.1737890  70.5908508  22.0352783   8.4597893  69.8166885  23.1224174
   0.4513673  34.4692001  27.8278656   0.7239426  34.7309151  28.7073193
   0.1107812  35.2722626  27.4337559  30.4324207  45.3619156  31.0662365
  29.9767551  46.1714020  31.2971745  31.0071049  45.6088982  30.3416901
  72.4877014  10.0822935  30.5872936  72.7751007   9.6367979  29.7903194
  72.5524292  11.0139751  30.3775024  82.5636597  29.0033493  13.7063704
  81.9857941  28.2427578  13.6446829  83.4232025  28.6351357  13.9108963
  60.0316429   2.2465127  54.9192123  59.1185341   2.2482722  54.6320610
  60.3607559   3.1119275  54.6763687  50.4211349  63.4939957  79.6060104
  50.7075195  64.3803177  79.8265610  50.5798264  62.9860687  80.4016647
   4.7472816  57.9779091  47.5126343   5.4684319  58.4522972  47.9263153
   4.0784612  57.9166107  48.1946564  76.0247955  46.9261131  88.0563202
  75.0849228  46.8140640  87.9138107  76.0847549  47.4737816  88.8390656
  14.8961391  31.5301514  86.1935272  14.2714977  31.3327007  85.4956284
  15.4904327  32.1738968  85.8079910  48.9719429  51.7560616  42.3833237
  49.4617767  51.4072227  41.6386032  48.3724327  51.0508270  42.6271896
  52.1858139   3.4353342  73.7794800  52.7609863   3.6312227  73.0398560
  52.4449425   2.5570936  74.0583649  50.6716843  23.9574547  79.2679596
  49.9301758  24.2476044  79.7991943  51.1075096  24.7672596  79.0024261
  53.7331467   0.9620782  54.9649734  53.4742699   0.9184632  54.0444756
  54.0971870   0.0969277  55.1526451  34.3915405  36.4953079  74.4339981
  33.9541092  37.2604065  74.0604858  35.1207199  36.3219070  73.8386307
  47.3153419   2.0337629  35.4524307  47.3878174   2.3750792  36.3437691
  46.3742599   1.9304080  35.3113174  35.6476479  49.4413376  19.3241253
  35.3179970  50.2669182  19.6790638  36.5933418  49.4798241  19.4670048
  83.1604309   5.3464108   3.8937166  83.7530670   5.9568229   3.4550683
  82.7153854   4.8898597   3.1797650  10.2247591  35.2182007  37.2407875
  10.6251898  34.8791046  36.4402237  10.4050169  36.1580276  37.2192383
  52.4270668  44.5472488  43.4421844  52.6911087  43.7881622  43.9620857
  53.2511101  44.9274712  43.1378555  37.4166527  40.1215439  52.4984055
  37.0246010  39.4873657  51.8981171  37.8169594  40.7766800  51.9267578
  59.6852951  10.6361113  26.0574741  59.3743134  11.3654423  26.5937576
  59.1129799   9.9054871  26.2917328  26.5689335  70.5259247  13.5119038
  25.6781101  70.6162872  13.1735249  27.0707970  71.1954269  13.0470047
  10.5685968  60.3439331  27.8427525  10.4724998  60.4495277  28.7892456
  10.4125290  61.2187920  27.4870853  79.3362885  17.1225853  82.8083344
  78.9762802  16.2873726  83.1067352  78.5684586  17.6728554  82.6538544
  65.6538849   6.8048825   6.4884248  65.7739487   7.3458929   7.2688890
  64.8429184   7.1277723   6.0956059  47.2720451  70.0157547  64.8244934
  46.3705406  69.8207855  64.5685501  47.1921959  70.7280884  65.4588699
  79.6093674  14.5676918  32.2052612  79.6878815  14.3471498  33.1333923
  78.6915741  14.3954725  31.9949646  18.7327614  11.8957462   1.3116904
  18.6074371  11.0792580   0.8280860  19.0893154  12.5048103   0.6650515
  32.9125519   4.2336826  21.4618855  32.0569420   4.1540251  21.8835678
  33.2916641   5.0282807  21.8375435  65.5801926  41.8705101  69.0305939
  65.8893509  42.3235283  69.8150864  64.6646652  41.6637878  69.2185287
  42.6590767   1.4810064  80.0347672  43.4334183   1.7212697  79.5259399
  42.5662117   2.1851287  80.6764984  18.1282368  52.8208656   7.2075405
  18.2059326  52.2702370   7.9866443  18.9018745  52.6079369   6.6856422
   3.2009258  36.3435631  60.9915771   2.9859776  35.6443596  61.6089478
   3.1885624  37.1416931  61.5198479  81.5657730  67.1903076  45.2214470
  81.3471909  67.1570282  46.1527634  81.1032715  66.4440765  44.8400612
  17.0777340  30.1507492  77.3724670  16.5353889  29.6495724  77.9814987
  16.7029972  31.0314274  77.3870468  49.7153969  18.9637699   5.4791894
  49.7940292  19.8128738   5.0443673  50.4789200  18.4699459   5.1801929
  85.0037231  63.3843956  18.0486774  84.6481552  64.2315140  17.7799969
  85.0193100  62.8652802  17.2446175  22.5500565  35.8857002  34.7681465
  23.1112347  36.0253143  34.0053787  23.1467628  35.5816879  35.4520683
  30.2286720   4.4180918  45.0093231  29.6399937   4.8119302  44.3654404
  29.6611786   4.1930532  45.7465744  60.4459343  14.9048519  59.7123604
  60.8064346  14.1124830  60.1103821  59.5389824  14.6782246  59.5066528
  12.3475790  40.8917809  61.2794266  12.7162533  40.7054825  62.1429100
  11.6565237  40.2388763  61.1681061  35.4985733  31.9443264   3.1317444
  35.7185478  32.0449104   2.2056096  35.7627411  32.7727242   3.5320027
  65.4500809  45.1289673   1.5360974  65.7864227  45.9880562   1.2810004
  65.8410492  44.9637947   2.3940551  59.1952362  68.3629761   6.3953896
  58.8446770  67.5057220   6.1536279  59.2597237  68.8377380   5.5667305
   3.0660429  71.5412292  68.0405121   2.3924634  71.0908127  68.5500717
   3.8873165  71.1343994  68.3166199  14.2286005  36.8311272  71.4038620
  14.7908831  36.3442116  70.8013840  13.9167528  37.5766373  70.8908386
  33.5771065  14.3438854  74.1202545  33.0253029  13.6067066  74.3816223
  34.3710251  13.9374228  73.7728195  72.6169205  17.7927608  28.3882332
  72.1222687  17.0940952  28.8165112  72.9621429  17.3885269  27.5922146
  45.1907578  48.1202736  87.1981430  45.7967072  47.9796524  86.4706268
  44.8517685  47.2480545  87.3995209  73.1629868  59.3911133   3.8838594
  72.3576279  59.3939209   3.3665369  73.3883820  58.4649315   3.9711015
  75.8264542  50.1321106  20.2123947  76.0138550  50.9936371  20.5850620
  76.3432922  50.1018333  19.4072952  17.2468529  71.1948776  11.1740084
  17.2582912  72.0899658  11.5130005  18.0990353  71.0878983  10.7514343
  62.8084068  68.6426163  29.7367458  63.1783524  69.5105133  29.5750713
  62.3330688  68.4313889  28.9332123  62.8898582  26.3339310  54.3272781
  63.1861916  25.7124901  54.9922791  61.9562263  26.1488991  54.2256508
  12.3655767  68.6071701  22.6223640  12.5517406  69.4508057  23.0344887
  12.5769196  67.9600525  23.2952785  46.4527092  70.7824097  39.2397957
  45.8495750  70.3430099  39.8392792  47.1871986  71.0497894  39.7923050
  43.2161407   3.3790917  38.4183083  42.4333153   3.6820419  38.8783531
  43.6130524   2.7435160  39.0139046  54.8345833  11.4789171   7.4318457
  55.2907028  12.3140316   7.5356174  55.2371597  10.9036703   8.0824251
  70.2117004   3.0182183  80.6084442  69.9029770   2.5107522  81.3590393
  70.6709824   2.3811691  80.0612106   3.8638501   9.7057505  62.8277740
   3.2069187  10.1661587  63.3499794   4.3995481   9.2421083  63.4714355
  55.0626678  39.1941910  31.8678074  55.5365791  39.5803108  31.1312256
  54.2577515  39.7083778  31.9307156  46.7274094  53.4795532   3.5366385
  47.2285461  52.6759262   3.3977916  46.2398262  53.6015320   2.7220113
  35.0457878  29.3965836  72.5570450  34.9157715  30.1407986  71.9692764
  34.2388992  28.8873196  72.4807663  58.4155960  70.9533157  68.2817764
  57.8496475  70.7176666  67.5466537  59.0435524  70.2333221  68.3410034
   2.2141991  52.2807121  32.1769066   2.0031641  52.9039230  32.8721123
   2.6050618  52.8157730  31.4861336  74.5864792  59.4852180   0.0566955
  75.1144638  58.6959152   0.1769729  73.6984634  59.2177582   0.2935932
  29.6110058  54.5230217  80.2634583  29.1392899  53.6901321  80.2608109
  30.5289192  54.2780418  80.3803024  57.6673355  43.0817566  57.2382317
  56.9280319  42.8922501  56.6605186  58.4069672  42.6239662  56.8387222
  72.7188339  62.5215073  58.0746384  71.9020844  62.9403458  58.3461723
  72.6850204  62.5283394  57.1180611  17.1427326  63.2669258  15.1588430
  16.5925102  64.0489883  15.2020454  16.5223255  62.5381851  15.1426573
  68.7053528  42.8213730  41.4762917  68.9721146  41.9022942  41.4953728
  69.5181198  43.3094711  41.6081696  73.2396622  35.2489700  25.8697491
  72.7651291  34.9197159  26.6330547  73.6612015  36.0513344  26.1775665
   9.4745426  56.8280296  13.4063339  10.2418013  57.2310791  13.0000124
   9.1001177  57.5206947  13.9506254   7.4736609  68.6763840  76.0433655
   7.4822974  68.0067291  76.7272644   6.8346205  68.3589020  75.4053497
  70.1271820  25.5815468  70.9047012  70.0002899  25.8622437  69.9984283
  70.3991852  26.3752613  71.3654175  28.8666344   0.6239604  80.1201477
  29.5647392   0.9559782  80.6846390  28.4978046  -0.1146405  80.6045685
  42.5017357  52.8652077  11.0313730  42.4776421  53.5020523  11.7455711
  43.4258652  52.8139191  10.7872734   0.8798460  41.1786575  20.1875343
   0.3927850  40.3711777  20.0232868   1.4417449  41.2799225  19.4192581
  37.5215607  56.9268188  15.2920780  37.3990211  57.4048195  16.1122799
  36.6397858  56.6514778  15.0412893   8.3853092  44.4918747  40.3546715
   7.6890640  44.4623070  41.0108757   7.9538083  44.8103294  39.5618134
  12.6582775   1.1742656   2.5476863  12.9356403   1.8066478   1.8848177
  12.6372623   1.6754695   3.3629069  69.7630997  12.1698046  59.0363007
  70.5470886  11.8886480  59.5080452  69.0398560  11.9598036  59.6271095
  53.1120071  19.8534908  51.4313049  53.3693428  20.2406406  50.5945702
  53.4282684  18.9512291  51.3850937   4.0113821  64.5886154  50.7717171
   3.8656235  64.5933380  49.8256912   4.9340987  64.8221817  50.8730583
  70.8175278   0.5349743  31.7238407  71.5523300   0.4134707  32.3251190
  70.1268005   0.9185669  32.2641907  55.6064262  53.3273125  74.1154327
  56.4355354  52.9008217  74.3320236  55.3636208  53.7978210  74.9128647
  46.9077606   5.7477217  53.1239319  46.7404366   6.6771660  52.9678345
  47.7545052   5.7283940  53.5699005  21.9698544  30.3417645  70.1264267
  21.1069965  30.1481514  70.4927902  22.0990849  31.2745571  70.2979736
  58.1995354  34.0807915  28.5863533  58.6155319  33.7199745  27.8034172
  58.8833084  34.6080513  28.9994965  64.0440750  30.9791546  31.3105106
  63.1044159  30.8286190  31.4135132  64.1098785  31.8854370  31.0095921
  68.9177628  65.2992859  84.8020096  69.3737183  65.7462845  85.5151215
  69.3121338  64.4275208  84.7748032  43.1005936  34.2542343  41.0528641
  43.8219604  34.8370285  41.2899513  43.3800278  33.8489304  40.2319641
  44.1059914  47.9372520  10.0919628  44.1629524  47.0158043   9.8391304
  44.9225044  48.3234634   9.7751331  85.0964127  49.9121132  84.4321747
  84.2274399  50.2985268  84.3235092  85.2210464  49.8656464  85.3800888
  42.4611702  33.7040977  11.1919842  42.2730026  32.8107986  11.4798031
  43.1763115  33.6074829  10.5631199  64.3620224  21.3311176  60.1870155
  64.4580383  21.3644562  59.2352295  64.2446365  20.4016838  60.3834953
  65.0558472  29.8231277  22.2889595  64.4705887  30.4818802  21.9151306
  65.8364944  29.8548412  21.7359543  71.2461700  71.3636169  38.7664566
  72.0031281  71.1347580  39.3057823  70.6031723  70.6796875  38.9536133
  49.9624596  65.1492538  72.0844269  49.1661682  64.8161926  71.6706314
  49.6863708  65.4037933  72.9648895  47.9790764  56.1027527   3.9230049
  48.8864555  56.1805534   3.6283178  47.8749657  55.1752739   4.1355548
  40.9107780  51.7595215  85.3475266  41.0394821  52.4045944  84.6521530
  41.7473259  51.7381744  85.8122482  63.8446503  13.9015198  84.1610641
  64.2855911  13.8051519  83.3169632  62.9667511  14.2114725  83.9386826
   0.7973958  24.6835499  49.9550438   0.6254686  24.1140842  50.7049637
   0.2651694  24.3169670  49.2489395  50.6469040  25.9390831  48.1620255
  51.4514923  25.4389305  48.2988510  50.8349152  26.8013248  48.5327339
  35.2913246  25.5733261  73.8721466  36.1262131  25.8421822  73.4888611
  35.1795082  26.1477146  74.6296463  59.1998482  17.2094231  56.3454475
  58.2836952  17.0361423  56.5619469  59.2018204  17.3367176  55.3967514
  29.3405876  20.6313114  82.7720490  29.9924107  21.2721443  83.0561142
  29.8433609  19.9774933  82.2862778  42.2734222  20.5472221  75.0307312
  42.1394119  19.7638683  75.5642395  42.7111702  20.2276649  74.2417526
  15.2305460  62.8147049  69.6863327  14.9868822  61.8966370  69.5679703
  15.8947802  62.7993011  70.3753815   5.0097461  44.8643723  86.6668015
   5.2008309  45.1800957  85.7836075   4.8628507  45.6596222  87.1788864
  17.7125015  65.3766327  64.1902161  18.3099079  65.9151077  63.6711922
  16.8714104  65.8301468  64.1343307  37.4265251  19.8031178  80.9334717
  36.9594955  20.0934677  81.7169342  36.9860687  20.2520733  80.2118988
  11.1235352  38.0852852  73.4525223  11.4717445  37.2933578  73.0428467
  10.6808519  37.7720909  74.2413025  22.1403942  26.1148376  72.1962128
  22.2943287  25.9879951  73.1324005  21.7079430  26.9667835  72.1378555
   6.1342492  42.7284164  21.7670212   6.1907887  42.3063660  22.6242905
   7.0305924  43.0051537  21.5767174  14.7407570  66.4274979  29.9663658
  15.3308096  67.0958557  29.6179886  14.4841938  65.9123154  29.2015190
  10.5457058  65.8739929  41.6109047   9.6352959  65.9771347  41.3338737
  10.8638067  65.1210709  41.1127548  66.7508545  18.5565166  36.7192879
  67.2324219  18.8097782  35.9317703  67.1304550  19.0931511  37.4151077
  11.6111498  24.1088581  67.8975906  11.5516500  23.1544876  67.9408112
  10.7800770  24.3833408  67.5100250  16.7850513  58.6062202  19.9421101
  16.2418289  57.9462013  19.5113964  17.6795464  58.3883400  19.6801167
   5.0081015  46.7090569  12.8471355   4.8070831  46.8998222  13.7633410
   4.7320127  45.8006477  12.7254734  75.0949478  70.3922272   7.2282348
  75.6976471  69.9775925   6.6109314  75.5197601  71.2182083   7.4595881
  23.8791847   1.7658414  77.8143921  23.2858829   1.4858373  77.1173782
  23.3895683   2.4363844  78.2907104  68.5893478  68.8477783  61.4268990
  68.3659439  69.7398605  61.1613808  69.0633392  68.4865417  60.6778526
  55.1071243  55.9401894  50.5607147  55.3237648  56.8625946  50.4248161
  55.2131119  55.5396233  49.6978455  80.9080963  28.0255642  77.9108963
  79.9679108  27.8806820  78.0171356  81.2997055  27.6421528  78.6956711
  83.2800064  15.0435562   9.1865139  83.9523926  15.1101656   9.8645191
  83.0906067  15.9507647   8.9470720  54.8434753  62.0119781  53.4964905
  54.7118378  61.0806694  53.6741714  55.7488976  62.0720406  53.1918106
  52.1074944  42.1764908  16.5084705  51.8283920  42.4654350  17.3772888
  51.4478493  41.5343590  16.2462406  42.8920708  52.1399536  58.2542496
  42.6395874  52.9882622  58.6187477  43.5519066  52.3500366  57.5934067
  59.7538528  30.2394981  84.1883011  60.0993500  31.0067272  84.6446228
  60.3310928  29.5232944  84.4530258  38.7166138  18.5427532  70.7878647
  37.8465195  18.5182571  70.3896561  39.3128586  18.3139553  70.0748596
  82.2430801  65.5137329   3.3075120  81.6006470  66.1161118   3.6825385
  81.7234039  64.7724152   2.9966900  18.6064262  28.7707806  65.5328445
  18.4557285  29.4756355  64.9030075  18.6062317  29.2068825  66.3849335
  76.8148346  40.6916466  37.9053307  76.0421371  40.1337433  37.9943199
  77.5534058  40.0831566  37.9273071  57.7064552  45.0697632  42.1624184
  58.1693687  45.1734657  42.9937935  58.2117462  45.5928192  41.5400620
  11.5978050  23.1857376  11.4484148  11.5502625  22.6895065  12.2655602
  11.1991692  22.6105480  10.7953615  63.4996376  49.4629288  78.6689987
  63.7469711  48.7575188  78.0711212  63.2034149  49.0133018  79.4604111
  12.2753000  55.0155487  25.1271019  12.6374474  54.1297569  25.1484661
  12.4125776  55.3087692  24.2263203  65.5190735  11.4150305  66.1863174
  65.0523148  10.7573814  65.6707001  64.9453430  11.5850916  66.9334106
  47.4256248  22.0836945  82.5945587  46.6618462  22.5644703  82.9135056
  47.7163658  22.5774040  81.8277817  81.0277863   6.9335194  38.3929405
  80.1894226   6.7839394  38.8299866  80.8551788   7.6504498  37.7826538
   9.3880129  42.1432877  41.0146408   8.7260513  41.8063583  41.6183929
   8.9900274  42.9271774  40.6360168  12.6957788  11.2881947  74.8412018
  13.1236973  10.9270763  74.0648575  12.3975945  10.5206127  75.3291931
  74.5707855  24.1960640   9.5147171  73.9460449  24.7071419  10.0292311
  74.3843155  23.2862492   9.7464466  50.1768684  29.8633652  71.3453522
  49.5761986  30.3893185  71.8733597  51.0406494  30.0395813  71.7182617
  67.7304916  57.9953194  20.8243561  68.6824341  57.8988762  20.7971382
  67.5753021  58.6479340  21.5071716  56.5884399  36.3011246  19.4066486
  56.0829086  35.7655869  20.0181007  55.9861679  36.9968681  19.1431274
   6.1795354  54.1124992  65.2790298   5.7013569  53.3719254  64.9060211
   7.0068650  53.7364693  65.5796280  66.2839050  68.8490906  69.4365845
  66.2217484  69.2088699  68.5517502  66.7726440  68.0330582  69.3295441
  28.6280422  20.2436543  66.8977814  27.7841873  20.6777706  66.7725449
  28.9820175  20.1485291  66.0135422  82.9958191  42.3002548  41.2867584
  82.8856735  41.5510483  40.7012749  82.4273987  42.1072044  42.0323143
   9.1122007  20.5116100  69.7923813   9.4692106  19.6320305  69.9153214
   9.8767118  21.0564461  69.6055374  20.3345337  40.5246582  80.5443649
  19.5772667  40.1504936  80.9946823  20.5288162  41.3270912  81.0287094
  64.9238663  30.1722984  12.4970560  65.8395920  29.9339848  12.6415577
  64.5182648  29.3726311  12.1620140  53.4584923  59.1933022  71.1455917
  54.0350723  58.5038795  70.8162308  52.6563873  58.7351532  71.3965149
  82.0447006  15.7016878  23.4709721  81.4478073  15.2911806  24.0966206
  82.4108582  14.9701920  22.9739037  42.8267403   1.0962638  21.9391537
  43.1940536   0.7766162  21.1150551  43.4427261   1.7681632  22.2312908
   9.0552521  37.4524345   7.2000370   9.5196972  38.2893867   7.1945095
   8.5809889  37.4471817   8.0314693   6.4744616  40.8790817  14.9125671
   6.9755731  40.0893326  14.7090578   5.6487494  40.7668114  14.4415827
  26.2675991  50.9413719  59.8812637  26.0084152  51.8430672  59.6915245
  25.7067623  50.4074974  59.3185310  37.3414268  53.5522842  56.6383781
  36.4685898  53.1845970  56.4998550  37.9338531  52.8071098  56.5384865
   0.0280705  23.3447800   6.4244165   0.4520311  23.3210506   5.5665550
   0.4210629  22.6168728   6.9060183  50.4084702  11.8594761  67.1501007
  50.3023872  12.8000355  67.2926712  49.6767235  11.6193619  66.5816574
  67.2501526   1.6739364  39.0321274  68.1946793   1.5427611  38.9491005
  67.0087891   2.1763172  38.2539291  64.5787659  55.6474991  24.0304928
  64.5571594  54.7973862  24.4698944  64.3961487  55.4473114  23.1124477
  34.1698647  58.6703186  77.8793945  34.9372864  59.1734695  77.6071243
  34.3012657  58.5209084  78.8156891  21.5192165  13.2250204  15.8301878
  21.1964626  13.9707632  15.3242931  20.8284492  12.5668135  15.7537994
  57.8244476   5.9392200  33.4038048  58.7375107   6.2116537  33.3125648
  57.3424950   6.7561288  33.5326996  68.0699768  22.5330734  35.6655502
  67.9856415  22.2163086  34.7662315  69.0038147  22.7164192  35.7683258
  64.6145935   3.7940779  13.2759743  65.3629227   3.5272765  12.7420712
  63.9299393   3.1600897  13.0625715  67.2080841  39.5147896  19.2563858
  67.6152115  39.7459755  20.0912685  67.8551941  39.7650032  18.5969353
  68.5242767  53.6336098  30.6333141  68.8973694  52.9758873  30.0464306
  69.2485733  54.2332306  30.8124142  10.8415842   5.4626408  75.4767609
  10.6473293   4.8089161  76.1484299  11.3352718   6.1406360  75.9380875
  85.3460846  17.4758339  15.0332012  84.7780533  17.8978214  15.6777897
  85.4344711  16.5751820  15.3450451  66.0994339  49.6585083  81.3376160
  66.9130249  49.3437462  81.7316055  66.3043213  49.7519608  80.4072876
  42.6887321   5.2489796  67.1614304  41.7693634   5.4462528  67.3405457
  43.1687355   5.6840186  67.8661118  34.6111374  68.0378494  22.1604614
  34.3614273  67.7068176  23.0231857  35.0791321  68.8526840  22.3428326
  39.7932816  46.3970528  67.4513779  39.8406258  46.4635429  66.4976654
  38.9548683  45.9671707  67.6201782  68.3709793  23.5126953  84.8831863
  67.6936722  23.0655365  85.3906708  68.0759277  24.4222164  84.8390503
  57.5729370  50.7175674  71.9712830  57.6206474  51.2351837  72.7750397
  57.0037460  49.9809799  72.1941986  66.1114883  41.4068222  78.2151260
  66.8659134  41.6711235  78.7416382  65.3617020  41.8125420  78.6503754
  41.8889160  62.0910225  54.9415665  42.6741524  61.9627647  55.4737206
  41.7038918  63.0277100  55.0095215   4.2811117  53.3479767  22.5471668
   5.1836920  53.5912781  22.3412857   4.3579879  52.7487755  23.2896461
  22.3016376  49.0499573  19.2645054  22.6920452  49.2497864  18.4136925
  22.4556999  49.8355904  19.7891788  60.4494019  40.9269447  26.0506401
  59.6116714  41.1937447  25.6721420  60.4927368  41.3903351  26.8870773
  82.1545105  38.6621971  50.1859932  82.1963120  39.4193687  49.6018867
  81.2332077  38.4026947  50.1761627  17.1233768  57.2466393  87.2465820
  16.8594265  57.1129608  88.1569061  18.0800934  57.2262535  87.2691422
  72.9046783  57.6856232   9.4318066  72.9045029  58.5406952   9.0015917
  73.8302536  57.4932175   9.5818968  51.0279579  30.9489498  28.8071232
  51.1149216  30.6942654  27.8885345  50.2547646  31.5128670  28.8271542
  70.1618347  35.4645042  83.2400284  70.7934875  34.9860077  83.7769547
  69.3946304  34.8931084  83.2063828  47.3786430  13.3882113  26.0840168
  46.5889015  13.8832817  26.3018379  47.1962013  12.4996395  26.3896103
  32.3953629  64.1971817  63.1396980  32.0306702  65.0562057  63.3525467
  32.3613701  63.7116432  63.9639091  46.9856758   7.8483033   0.1976583
  47.3745956   7.7598243   1.0677986  46.5607681   8.7059164   0.2113056
  72.8957901   5.2020497  24.6149540  73.1097260   6.1350303  24.6119423
  72.7096863   4.9960389  23.6988983  82.8302612  64.8933105  25.4959679
  83.4964981  64.8700409  24.8090744  82.1603699  64.2765427  25.2008820
   4.7642188  65.7161789  16.7286339   5.0717587  66.4197006  16.1570530
   5.4437313  65.0446701  16.6688328  32.8661690  52.9435120  71.7085571
  32.7026482  53.7102432  72.2577515  33.7461319  53.0828552  71.3585815
   2.2324007  45.2286034  38.2804070   1.3430223  45.5561218  38.4144630
   2.2543757  44.3955345  38.7513046  58.4737282  54.8964272  11.9006462
  57.5337601  54.8641548  12.0785465  58.6690674  54.0535812  11.4911537
  22.7136326  47.2307129  54.6988869  21.9421597  47.2733765  55.2639008
  22.4761486  46.6031418  54.0162506  84.0391235  31.8472805  15.7678499
  84.3398972  30.9452343  15.6579361  84.7054291  32.2563171  16.3200855
  31.3056126  20.6540127  10.1592722  31.4804459  20.1163139  10.9316349
  31.1281204  21.5267105  10.5101690  37.3727798   3.4697237  38.5124474
  37.1224556   2.8210275  37.8545990  37.3914909   2.9813089  39.3354492
  53.3496971  70.7330170  62.3455544  52.7838402  71.4794464  62.5427208
  52.9532166  70.3292236  61.5735512  26.9990311  60.9161873  87.6057968
  26.4269733  61.1334648  88.3418503  27.2857723  61.7642021  87.2668533
  55.9515877  49.7310028  30.9822216  55.2420464  49.1938095  30.6297894
  56.5023079  49.1141052  31.4642773  80.1441650  47.4883194  35.5070038
  80.4406357  46.6317558  35.1993713  80.8964233  47.8473206  35.9776001
  51.8349075  -0.1237300  85.0944595  51.9627914  -0.0007381  86.0350723
  52.6279030   0.2349275  84.6960144  48.2958374  59.8316689  77.0734482
  48.3141518  60.7097816  77.4540024  48.8150673  59.2987747  77.6756592
  69.6551971  36.9530716  47.1501160  70.1923981  37.7271233  46.9813232
  69.2895050  37.1008759  48.0222702  33.4320831  70.5195389  37.5943947
  33.0744400  70.9149399  38.3893661  32.6620102  70.2770920  37.0801544
  58.2305374  42.8627472  81.7540207  58.6185112  42.0689087  81.3858795
  58.4135094  43.5420036  81.1048965  44.2828751  36.2887650  64.9335251
  44.8277321  35.5850792  64.5811310  43.3986664  35.9224586  64.9484558
  10.5338831   7.2323556  65.7077942  10.4774828   8.1677494  65.9029617
  11.4644575   7.0253892  65.7939758  71.0442734  42.6876183  80.6765671
  71.5067062  41.9274559  81.0294724  71.2567139  42.6851540  79.7432404
  76.8807220  71.5261765  63.8738899  76.4596100  70.6780396  63.7340317
  76.6223984  71.7785721  64.7603455   2.4083791  48.1056137  55.4682808
   2.1514180  47.3159180  55.9442863   1.8473297  48.1110344  54.6927643
  21.0410347  52.2642288  51.1842461  21.4233990  51.4816132  50.7873306
  20.1769009  51.9826469  51.4846039  10.8545418  38.6984940  20.4017467
  10.9097757  38.3601379  19.5080490  10.1510763  39.3468132  20.3693428
  76.5678329  62.5862846   4.5514469  76.1606064  63.2635117   4.0112963
  77.4933395  62.6104050   4.3083720  21.7924538  63.9090080   0.5137575
  21.0122089  64.3824997   0.8022951  21.8536777  64.0964890  -0.4229036
  26.1813316  55.5419998  36.7204819  26.0848904  55.0445366  37.5325546
  27.1147099  55.4872169  36.5154572  28.0297146  21.7611160  54.7732735
  27.1167641  21.9404774  54.5483627  28.3638210  22.5957088  55.1019936
  14.5518551  34.7575760  54.2346268  15.1755905  34.1391449  54.6150589
  13.7508326  34.2472343  54.1156921  52.3649940  35.8004951  66.9492340
  52.2943726  34.8498878  67.0363617  51.8426094  36.0095062  66.1748581
  40.1941910  42.1503296  61.3962669  40.7829819  42.5139046  62.0576057
  40.3380508  41.2050667  61.4411888  14.4680634   7.7808027  44.3581505
  13.7211866   8.0402889  44.8976669  14.2238951   8.0411386  43.4699860
   7.7788925   8.4795828  21.4966869   7.2752061   9.0033875  22.1197128
   8.6927414   8.6443319  21.7289982  54.9563866  39.2584190  38.9198380
  55.1175041  39.2615547  39.8633766  54.5777779  40.1186867  38.7386513
  29.5077667  19.3815250  54.8672028  30.0880623  19.7328854  54.1918983
  28.7948761  20.0176620  54.9250793  59.4206352  70.1281204  87.0049515
  59.1725273  69.2187195  87.1712952  59.3287430  70.5605774  87.8539276
  63.5164261  67.7381134  59.1965561  63.2824478  66.9850235  59.7390938
  64.2372360  68.1572571  59.6666527  68.8325882  42.6381798  18.4833412
  68.5715256  43.4298019  18.0127964  69.7750320  42.7388687  18.6170845
  66.2293549  67.7935181  23.4034424  66.5547333  66.8972244  23.3197136
  65.5603333  67.7426605  24.0861244  41.9927979  35.1678276  81.6447678
  42.5122147  35.8877869  81.2868652  42.5823746  34.7288437  82.2578964
  13.4807596  58.3317871   3.4739280  14.2417660  58.0154915   3.9608140
  13.8421288  58.9533424   2.8420141  14.0170345  68.2761002  51.8080292
  13.3911934  67.9720612  51.1506729  14.8154192  67.7804642  51.6259155
  29.3610115  70.2567825  18.5610886  28.4104767  70.1440735  18.5577602
  29.5836220  70.3862610  19.4829941   8.9056864  10.6889172   9.1170607
   8.8635149   9.8989115   8.5782242   8.1004887  10.6693287   9.6342707
  76.3483963  45.6688271   9.5224791  76.4323425  45.8311043   8.5828781
  75.8624649  46.4241524   9.8535147  85.9638748  34.2931175  68.1247711
  85.8277740  33.5599670  68.7249374  86.3167648  34.9915695  68.6760178
  39.9124565  25.4957066  14.0012207  39.6114159  26.3547554  13.7051792
  40.8637695  25.5273361  13.9000540  37.8381500  59.8861923  57.4371338
  36.9017296  59.7518158  57.2912178  38.0041008  60.7754898  57.1243286
   7.2800612   1.3438519  23.1310177   7.7861514   0.5321888  23.1671791
   6.8521552   1.3213673  22.2750835  70.4377594   6.5645862  72.6544647
  69.6086044   6.6288724  73.1283875  70.8111267   5.7297812  72.9371872
  49.6929092  54.8038330  68.2998962  49.3537674  55.4948158  68.8688889
  50.0792961  55.2714310  67.5594254   8.2709675  62.4179955  88.7402878
   8.4700394  63.2450905  89.1790543   7.9811263  61.8373222  89.4438858
  36.9085732  39.7535591   3.3129251  36.7859001  39.8907547   2.3735845
  36.2721977  40.3376122   3.7254021  40.4253769  62.3493767  47.1782646
  40.4723549  63.2088623  47.5969696  39.7498665  62.4465256  46.5070877
  33.4503593  48.0311737   3.9757786  33.1457939  48.6130028   4.6721611
  34.4020767  48.1334610   3.9773362  65.6379776   0.8503944   4.2619286
  65.5285110   1.3148360   3.4321437  65.8781891   1.5329382   4.8885579
  56.4942245  40.1956711   9.7290888  56.5326157  40.7260933   8.9332190
  55.9596901  40.7099304  10.3341036  50.1721916  11.2489986  25.7280407
  50.0748367  11.3164272  24.7781944  49.4463005  11.7639532  26.0803642
  49.6012878  18.9597607  33.3543472  49.7978325  18.2636757  33.9813004
  50.4590683  19.2813549  33.0768204  29.9298820  12.0614529  63.5778275
  30.3064156  12.7431755  64.1343384  30.4827900  11.2951498  63.7304878
  80.9632111  46.5647774  27.5952969  80.0887527  46.8927155  27.8050880
  80.9101791  45.6224060  27.7545319  18.2614498  14.2665148  76.2228241
  19.1059933  13.8257761  76.1294022  18.4593906  15.1937904  76.0916214
   7.1742148  30.2160759  40.3813400   6.4741993  30.2218971  41.0341606
   7.9413500  29.8954430  40.8556061  63.0336227  54.9645157  65.5119171
  62.1353989  54.7800064  65.2373581  63.3589783  54.1280556  65.8446426
  29.6378098  14.0076456  75.6527176  29.8790874  13.2943935  76.2437286
  29.0189877  13.6114397  75.0392761   8.0661297  10.9860811   1.7674135
   8.1210117  11.0891800   0.8173658   7.4048071  10.3062611   1.8967522
  45.0670013  16.4336948  76.0238647  44.2609024  15.9942617  76.2946625
  45.5909538  15.7435951  75.6170807   7.8522267  14.0774822  60.7550545
   7.4611239  13.2711754  61.0914192   7.2751503  14.3430252  60.0390244
   8.2369356  57.9577751  45.1091461   8.1009293  58.0987358  44.1722031
   7.7427931  57.1619301  45.3058357  23.0557594  55.0406647  52.7363892
  23.3252888  54.2479897  53.2003403  22.9094963  55.6853409  53.4286575
  39.9210930   6.2294569  17.3674793  39.0435562   6.4392743  17.6870728
  40.5037804   6.4839988  18.0829601  84.7144775   0.0252299  28.5644970
  84.5047684   0.8132506  28.0632210  85.6353073  -0.1461636  28.3671856
  78.8149567  60.4545860  32.0543289  79.6197205  60.9428635  32.2280540
  78.1777267  61.1239738  31.8051567  77.6926498  32.3955154  59.0438919
  77.5419235  32.2799187  58.1057281  78.3598938  33.0797806  59.0967560
  11.3774252  24.8902664  87.1623001  11.7232618  25.5430222  86.5535812
  11.3300362  25.3472404  88.0020370  56.8994484   1.5559726  25.6857929
  56.5119781   0.7565264  25.3294430  56.9934196   2.1345234  24.9290371
  20.3508854  51.3718224  18.3947620  20.0209599  51.3553085  19.2931538
  20.0328426  50.5561485  18.0077801  45.3890991  27.5714741  10.1909485
  44.7558212  27.2239361   9.5629292  46.2414551  27.4063282   9.7878971
  50.5198364  25.0684910  89.1144104  50.1245003  24.2000694  89.0383682
  51.3420868  25.0006638  88.6290894  48.3542747  42.9505539  84.8179321
  49.1079521  43.5139008  84.6423187  47.8402328  43.4331169  85.4653320
  49.0330238   1.7440443  22.3535538  49.7667465   1.2221111  22.0287952
  48.6842384   1.2368639  23.0865936  59.4870529  31.4232979  47.5002823
  59.4233551  30.6503353  46.9393005  59.3408356  32.1613731  46.9085922
  25.1663036   2.6872966  86.9328003  25.4520111   3.4820397  86.4822617
  25.7124863   2.6475341  87.7178726  42.7511063   8.8958216  85.4061661
  42.4526558   8.5875492  86.2618103  42.6699715   8.1321573  84.8348007
  32.9372253  54.5938110  22.3633137  33.3333244  55.4299355  22.1178913
  32.6400108  54.7247124  23.2637367  59.6713371  15.3005724  70.1802368
  58.8972397  15.8572769  70.0960541  60.3278809  15.8636751  70.5902328
   6.3199058  48.3425255  65.7814026   5.6174436  47.8484764  65.3586731
   6.7995658  48.7443504  65.0570450  10.7926416  53.4455528  30.4748955
  10.8245983  53.8432693  29.6048203  11.5140896  53.8553314  30.9522038
  54.6218872  14.4422350  83.7076492  54.1238518  15.1710882  83.3375626
  54.8900337  13.9252090  82.9480286  78.3679886  20.1033707  23.3269730
  79.0356598  20.7848778  23.2495213  78.3865128  19.8538208  24.2508850
  46.4786491  69.5006485  59.1532822  47.3833351  69.5127640  58.8408241
  46.0057640  68.9876633  58.4979553  60.9309349  27.1250858  57.5548820
  60.8173790  26.7582016  58.4316559  60.9266891  28.0727749  57.6894073
  74.2639084  34.9718590  79.3440247  74.0703430  34.0699654  79.0883865
  74.4802475  34.9158058  80.2747726  54.6133995   2.9274683  50.5770912
  55.3081627   2.6631846  49.9740257  53.8396187   3.0265455  50.0224037
  67.1712875   1.7530814  83.4625092  66.8949509   2.5208795  82.9621582
  66.7381592   1.8511859  84.3104553  22.3089314   1.2514601  18.2573986
  23.2500248   1.2948625  18.0880051  22.0204277   0.4588422  17.8049011
  24.0686150  28.7821026  79.9149857  23.8286381  28.5846653  80.8203354
  23.2331371  28.8264046  79.4499664  77.1628723  38.3793373  33.5065727
  76.5452576  37.8885460  34.0487099  76.6137543  38.9772415  32.9994049
  58.1808395  35.7091179   9.7590284  57.4986229  35.4650383   9.1335392
  58.7320175  34.9296303   9.8285618  58.0327415  63.6055031   1.8824242
  57.2587585  63.6867104   2.4397271  58.4722900  62.8153725   2.1966312
  14.3217239  28.2498722  66.4165649  13.9872646  27.4798260  66.8763428
  15.0452194  28.5589066  66.9618073  86.5509567  46.4931946  37.8039932
  85.8909302  47.0615044  38.2009964  86.0852127  45.6774521  37.6199379
   2.9360855  67.3059998  11.0077400   3.5781174  66.8330307  11.5371962
   3.3990543  67.5093918  10.1950140  80.3469543  58.6686325  47.7958794
  80.8903427  58.4991608  47.0263023  80.3263702  57.8334961  48.2631645
  25.6866570  39.8543129  58.5262032  25.5816574  39.8463326  59.4775925
  24.8237000  40.0990067  58.1920433  52.3595772  48.6798363  77.2653198
  52.2487068  47.7944794  77.6118469  53.2948189  48.8594208  77.3617783
  10.9108725  47.7154503   8.4812031  11.6419573  47.1260834   8.2957478
  11.0564270  48.4661674   7.9054675  13.7441044  38.3161621  82.7009201
  13.6502447  38.5036812  83.6348648  12.8614817  38.0822411  82.4137115
   0.3874641  54.7016525  84.6613235  -0.1680837  55.0062790  83.9438324
  -0.1417736  54.0428734  85.1109390  35.2052040  52.3669205   7.3005099
  35.7691765  52.6955681   6.6003995  35.7666817  52.3571243   8.0756741
   0.8181534  65.7321243  46.6160355   0.5813516  64.8191833  46.4526367
   0.4347712  65.9297485  47.4705505  37.3653450  60.1377563   4.0452495
  37.8307800  59.4217682   4.4776430  36.5949631  60.2880325   4.5931215
  15.1125154  71.2681732  40.8660164  15.3024874  70.7027130  40.1174202
  15.2203503  70.7000275  41.6287880   8.2597828  24.4458179  70.4009781
   9.2048864  24.4848366  70.2543869   7.9042387  24.1024590  69.5812683
  57.2638054  30.6742096  62.7026825  56.7517815  30.1409912  62.0946198
  57.1177979  30.2693634  63.5576744  42.6383018  39.4375877  82.6564941
  42.0346947  38.8569870  83.1199493  42.0712967  40.0725479  82.2188110
  60.2840996   3.3177257  11.4804821  60.9282532   2.6809468  11.7900152
  59.4770164   3.0842688  11.9391193  74.6937408  22.7904739  45.0109482
  74.4795227  22.6470203  45.9327774  74.9843674  21.9343643  44.6965561
   8.5583916  42.4275284  59.5799599   9.3261080  42.6360931  60.1122589
   7.8375144  42.8894615  60.0079613  10.9532385  57.5986290  19.3044777
  10.1538496  58.1251373  19.3040199  10.9097853  57.0965118  18.4907074
  85.7826767  25.0090637  15.7571535  85.3815536  24.2920265  16.2482624
  86.6494217  25.1128883  16.1498508   5.5679398  66.4078064  46.3918877
   6.0349464  66.9315338  45.7408524   4.6980805  66.8044739  46.4391594
   2.1424770  57.9755554  59.7599258   1.1951538  58.0361137  59.6368675
   2.3727825  58.7703018  60.2411385  61.7370110  32.7393188  64.6012802
  62.1834412  33.4566307  65.0511627  61.9277000  32.8824463  63.6742477
  54.1052704  37.4521523  37.0193405  53.1640282  37.6139641  37.0834999
  54.5056267  38.1691284  37.5111618  50.6738243  28.5247383  57.8560257
  50.4098740  28.9603043  57.0455666  50.5896111  29.1999760  58.5292206
  76.5188141  10.5244036  39.1079712  75.8396072  11.1739388  38.9262772
  76.5493546  10.4705696  40.0631676  85.6492920  21.6017838  32.3929367
  86.4755173  21.9169083  32.7593880  85.1679916  22.3979626  32.1678123
  67.8815842  26.3158913  20.1652050  68.5348434  25.6322975  20.0162659
  67.5086594  26.4834576  19.2997131  65.1195374  58.3582726  62.2138557
  66.0620270  58.2377052  62.0980606  64.7389603  58.0870132  61.3785095
  42.7908745  17.3359280  80.7594376  42.8185425  16.4118633  81.0075684
  42.8881950  17.3312511  79.8072128  69.1429520  46.6388855  84.4862366
  69.7835770  45.9582863  84.2798080  69.6334686  47.2823029  84.9977493
  68.2255707  58.2826653  46.3472977  67.5348053  58.2488670  45.6855316
  68.3520737  57.3704605  46.6082802  51.7747765  41.9885597  72.3669434
  52.6063347  41.5152054  72.3409271  51.9801521  42.8532219  72.0114059
  32.3531075   2.2500141  53.3853874  33.2695961   2.1635640  53.6476860
  31.9823742   2.8717885  54.0116348  34.6906090  10.5407143  81.4311676
  34.6389236  10.8760614  82.3262177  34.2642479  11.2122889  80.8987885
  43.6936111  53.4213104  27.9018021  44.4818039  53.4986229  28.4393978
  44.0200653  53.3770409  27.0030804  24.6792164  26.3967400  88.7567139
  24.9013557  25.5194550  89.0685806  24.3407440  26.8473969  89.5303955
  13.2766323  24.8211784  10.0801678  13.1030712  24.4569454   9.2121563
  12.8926706  24.1880341  10.6867428  76.6668472  17.8572159  75.3313293
  77.3834991  18.1743755  74.7817383  76.3357239  18.6413422  75.7692032
  36.8289871  47.5910072  53.1890182  37.0348969  48.2242432  53.8766594
  37.6616592  47.1551056  53.0076942  62.2944641   5.0024018  16.8482876
  62.3681793   4.8882160  15.9007854  61.4270325   4.6599913  17.0640297
  52.2028923  23.9384785  49.3992538  51.4451065  23.4602757  49.0626259
  52.9129715  23.2966137  49.3936539  86.2250671  70.1403275  14.4824734
  85.8661880  70.6013184  13.7242346  87.1738586  70.1903610  14.3661814
  12.8676586  12.5031300  12.0893669  12.6242819  12.3916254  11.1703644
  13.7153749  12.9467249  12.0605135  58.2512016  44.0826683  36.2136421
  59.1103058  44.4548531  36.0145187  58.4240112  43.4316483  36.8937454
  29.0384178  15.4414520  43.7298317  28.8617306  16.3316574  43.4256172
  28.1838284  15.1074991  44.0025673  51.6713219  41.2036819   5.8650408
  51.9746399  40.8605766   5.0244999  52.1844406  42.0007820   5.9975867
  62.4769936   1.3906890  85.0420990  61.8826828   0.6561343  84.8889465
  63.0554047   1.3938297  84.2794266  79.7505341  35.8566551  23.3208790
  79.3639450  36.7188950  23.1681576  79.1351013  35.4190140  23.9090557
  65.6356506  32.6324081  71.2942200  64.7159271  32.7179871  71.5452652
  65.9077225  31.7925148  71.6640625  32.8016701  51.7532158  47.7954597
  33.1631279  52.2594833  48.5229721  31.9003220  52.0643120  47.7116699
  58.6168785  36.1597557  15.8188190  57.9182472  36.8083534  15.9052467
  59.3627815  36.6548653  15.4801083   0.3578719   7.1896515  52.4277267
  -0.5024431   7.5885820  52.5578957   0.9109704   7.5885782  53.0994186
  61.7421761  57.7581520  76.0036163  61.2885017  57.0709305  76.4916077
  61.0779228  58.1090508  75.4104309   9.0254002  67.0893936  88.7396545
   9.2244883  67.7421570  88.0684662   9.6688356  67.2513428  89.4295807
   8.2010717  19.2085457  25.1192799   8.8566484  19.6659241  24.5927296
   8.4720831  19.3610382  26.0245590  81.2329025  55.2088165  85.2573929
  81.7531509  55.1271744  86.0567169  81.1924820  56.1509476  85.0931168
  83.4780197  21.9851761  62.8343735  82.8990707  22.3616810  62.1715851
  84.1409683  22.6592064  62.9840736  24.6514511  18.1380558  71.9561157
  24.9241943  18.0299473  71.0449829  25.1267147  17.4561996  72.4309082
  37.8936386  71.4947739  85.2771225  37.8871384  70.5638657  85.4998322
  36.9830551  71.7717514  85.3788681  83.7797470  18.8738213  47.0367546
  83.7741776  19.8161316  47.2048378  83.7129745  18.7999420  46.0847473
   3.8395267  15.6694489  15.4135971   2.9181919  15.7192183  15.1588478
   3.9876931  16.4602432  15.9321737   4.3134046  27.2012539  69.3392715
   5.2168002  27.3762455  69.0756760   3.8356504  27.9950218  69.0986176
  55.8750534  48.3499603  37.1338425  55.6169205  47.7311478  37.8169746
  56.2215042  47.8001213  36.4310760   2.4644930  34.3097115  50.2153320
   2.9664078  33.4951401  50.1872978   3.0031221  34.9395332  49.7363358
  86.0697250  62.9559555  41.0651131  85.7883987  62.0411568  41.0804482
  87.0241776  62.9120789  41.0074768  55.4360657  45.6869812  69.3101807
  55.5161934  45.4110413  68.3971252  55.2423058  44.8805199  69.7879944
  -0.1950447  49.6009560   0.6268980  -0.2129248  48.8637619   0.0166056
   0.7180514  49.8881569   0.6288847  75.0931931  37.9779968  40.4741936
  74.9941025  37.0423050  40.2984428  74.8770905  38.4019051  39.6436310
  37.1744232  13.0019865   6.2033839  37.4208298  13.5052996   5.4273729
  36.2252541  13.1084309   6.2664719  48.8129997  43.9634476  38.5465317
  49.0999794  43.0593987  38.4177971  48.3700790  44.1927795  37.7295494
  57.8293877  25.5570927  51.2390976  57.1358643  25.5049591  50.5814247
  57.8400993  24.6903305  51.6451073  55.5335007  55.7960548  16.9735527
  55.8744392  56.1828423  17.7800179  56.2437134  55.8982582  16.3400059
  55.0823059  44.7573242  72.4703140  54.1651917  44.9099350  72.2426300
  55.1285210  43.8209496  72.6634521  56.1385269   8.6032381  48.0782814
  56.2602577   8.4843531  47.1363258  55.4321289   9.2452555  48.1493492
  21.4457455  26.1154690   0.4416503  21.1979427  26.3999367   1.3213681
  21.7340584  26.9160995   0.0033625  85.5930557  57.5060844  43.0110626
  86.0670776  58.3293877  43.1281509  85.0998383  57.3959846  43.8239899
  21.8052578  60.7294693  58.7703667  22.6339359  61.1657448  58.9683266
  21.1351910  61.3758774  58.9926186  73.5699921  50.3387375  36.3156967
  73.9044876  50.6531410  37.1556358  74.0165863  49.5034485  36.1775627
  36.2766800  20.5995045   2.4018483  36.2349396  19.6683636   2.6197183
  35.3696556  20.8998623   2.4594624  48.4708099  34.2539139  42.5590401
  48.7616348  34.2414627  43.4709091  48.9416008  34.9896431  42.1675186
  26.4962521   7.8738480  10.0797663  25.8907433   7.7770824  10.8147678
  27.3477802   8.0264702  10.4894466  80.6776886  17.4946728  48.1104279
  80.5341873  18.4347668  48.0015068  81.1673279  17.2351151  47.3299675
  54.6995201  33.9806862  34.0432281  53.9288406  33.7030945  34.5384293
  54.5105972  33.7219810  33.1412239  28.3495903  69.0834274  15.0153980
  27.9833355  68.3382111  15.4915724  27.6297054  69.3939972  14.4662685
   6.4536219   1.5863992  49.6511040   7.1041827   0.9462029  49.3627472
   6.6522150   1.7295080  50.5764771  47.5084534  61.1470337  70.3341141
  48.3730659  61.0946922  70.7414703  47.6507950  61.6531143  69.5342102
  28.5195255  51.8962593  23.6273041  27.8743572  51.4926682  24.2079105
  28.7329178  52.7289581  24.0483856  54.7248116  11.1862974  27.5622215
  54.3573189  11.3528290  26.6942062  54.7293396  10.2323895  27.6414146
  56.4464455  20.7786922  69.1987457  55.8837624  20.0941410  68.8367920
  57.1345558  20.3023472  69.6633224  30.3537922   9.6511421  13.4194841
  29.7965164  10.4229660  13.5193024  30.7641525   9.5394907  14.2770214
  63.1735725  22.7940998  80.6729660  63.4659119  22.5702820  79.7894135
  63.3322906  22.0015545  81.1857224   5.1098256  45.0691986  16.6567078
   4.3046079  45.0912209  16.1396294   4.8417721  44.7092590  17.5021801
  44.2620544   3.6699321  29.3518066  43.4882584   3.1941886  29.6536961
  44.2045517   4.5209765  29.7861443  39.0240021   1.2330192   2.0525646
  39.9640160   1.1852583   1.8784389  38.9574890   1.7115703   2.8788800
  80.9204559  14.7127628  25.8074379  80.1535492  15.2705059  25.9378834
  81.0661469  14.3026476  26.6599693  38.8779030  50.3844223  50.8316154
  38.0393486  49.9826050  51.0587769  39.1030083  50.0049858  49.9821548
   6.8177805  28.5264893  24.3497124   7.3182578  28.6977444  23.5519505
   6.0210438  29.0473671  24.2490749  14.6595707  35.1628151  59.2115326
  14.3172903  35.9562111  58.7997093  15.1516409  35.4793587  59.9690933
  41.5397491  40.9775429  76.0961761  42.2523346  41.5986938  76.2465973
  41.4226189  40.9728775  75.1461792  72.4631271  23.8402996  66.6531296
  72.0808716  23.0236320  66.9743118  72.3754044  23.7877865  65.7014008
  40.8788300   7.2133632  14.9418592  40.2589455   7.0971050  14.2218180
  40.4483757   6.8104210  15.6958990  17.8315048  69.7016907  60.1820412
  17.4086533  69.0566940  59.6151085  18.6920452  69.3272934  60.3705330
  60.3893013  46.4432030  17.5819149  60.2902718  46.6889420  16.6621113
  60.3344574  45.4875755  17.5817623  77.2211609  49.8204727  53.4380531
  78.0339813  50.0590096  53.8837700  76.8929443  49.0654221  53.9263191
  68.8934326   7.1163740  84.2263184  68.0927658   6.8250360  84.6625366
  69.4991226   6.3813214  84.3215637  57.7089577  47.4687119  22.0798206
  56.8942680  47.6100121  22.5620537  57.7502708  46.5209961  21.9518986
  80.2640152   1.4998782  13.6491337  80.4319382   2.2451088  14.2259045
  79.7833939   1.8725929  12.9099989  17.5480595  27.7135143  61.2442474
  17.4043636  28.4674072  60.6722069  17.9092674  28.0879269  62.0477257
  55.2728767   5.2413778  69.0216522  55.2854767   5.9734788  68.4051285
  54.4735870   4.7607174  68.8064117  32.8886986   7.2796569  70.8399734
  32.5721169   6.8052721  70.0712280  33.4928017   7.9326048  70.4864960
  23.7368736  10.8572330  78.0540237  22.9207916  11.2669973  78.3409653
  24.3876019  11.1455040  78.6940842  21.2458439  63.9836082  32.3686485
  21.3963108  64.7091751  31.7627239  20.4195728  64.1998672  32.8007851
  18.6968498  40.7946701  85.7383270  17.7741985  41.0354805  85.8217392
  19.0765800  41.4855690  85.1954727  18.6769123  39.0856323  64.4766235
  19.2964554  39.6640778  64.0318756  19.1306534  38.8177261  65.2757339
  58.0906219  14.5549393  50.2100601  58.1635857  15.5092926  50.1992226
  58.7765961  14.2554903  49.6134033  59.0215340  59.5851974  64.4411469
  58.2078896  59.0972176  64.5679855  59.5820541  58.9907913  63.9424133
  66.3112793  27.2230358  26.5965958  66.4833374  26.3939190  27.0429058
  65.4711151  27.0890770  26.1579571  81.8990555  33.5450020   8.4821415
  82.3548126  32.8862495   7.9581547  82.1649933  34.3812141   8.0996962
  60.2831268  47.1802826  14.6767263  61.0279503  46.6686592  14.3609638
  59.5159416  46.6637115  14.4301252  62.8148880  13.8981991  78.2619781
  62.9756355  14.7049694  78.7513809  62.0692749  13.4936161  78.7053757
  78.6475296  34.2743073  17.2142735  77.9694824  34.4202042  17.8739700
  79.1341705  35.0980415  17.1847515   7.1612725  10.4545393   4.8288317
   7.6973295  10.8227854   4.1265006   7.2571816   9.5071211   4.7317119
  65.2938843  63.2035789  27.7260704  65.8242645  63.9087601  27.3550701
  64.5812683  63.6533127  28.1801071  53.2612457  36.1885071  70.9071884
  52.8858910  35.3089905  70.8648911  52.5097237  36.7742882  70.8160400
  43.1339912  39.9522820  55.2477455  42.1936302  39.8196144  55.3675575
  43.2277069  40.1809502  54.3229980  79.4929123  24.0583935   4.5604415
  79.8380661  23.2931995   5.0204186  79.2298508  23.7239285   3.7030261
  61.3053398  10.2574472  44.2079659  62.0718002   9.7115116  44.3832550
  61.6686859  11.0984526  43.9306183  43.4111290  17.8202553  11.2533722
  43.3011513  18.7515068  11.4454803  43.0397072  17.7107887  10.3779898
   3.6063838  13.9007807  67.3424911   2.6558127  13.8628092  67.4483490
   3.7525358  13.7017164  66.4177017  48.0946693  50.4596367  34.3977928
  47.6966934  50.5569382  35.2628860  48.9433937  50.0515442  34.5691261
  81.7534561  45.4873123  65.1620026  81.2903137  46.1715889  65.6452255
  81.1856079  45.2948570  64.4158478  51.6632347  70.3421555  18.0910034
  51.8021507  69.9827805  17.2147694  51.7397423  69.5871658  18.6744194
   7.4200697  12.6384001  51.2085571   7.2158856  12.8778534  50.3045616
   6.5916309  12.3166132  51.5640450  10.2652378  20.1155262  61.2606277
  10.6779346  20.1894608  62.1211205  10.7029638  20.7789612  60.7272568
  79.2772064  69.6984711   4.7390609  79.5296478  69.6088715   3.8201051
  79.7804565  70.4495163   5.0535574  66.2388306  38.3296661  55.5333366
  66.6371231  39.0761871  55.9808884  66.5718155  38.3820000  54.6374512
  56.1192245  41.5633087  54.7282600  56.4427147  42.4249039  54.4651299
  55.7881355  41.1743088  53.9187584  85.2878876  27.2986374  49.9792099
  86.0875931  26.9166069  50.3408089  84.8735657  27.7356682  50.7232361
  37.9841728  69.4529266  43.4149017  37.1580963  69.9274139  43.3216553
  38.4202843  69.5629654  42.5699539  69.0985489  45.5680885  51.0822182
  69.2385941  46.4904480  51.2964096  68.1467896  45.4717407  51.0490685
  14.1317625  63.8627319  84.0701141  14.0407820  62.9584656  84.3705444
  13.3142872  64.0444870  83.6065063  58.6893883  19.1360016  69.9194031
  59.5146751  19.6173534  69.8608170  58.7605095  18.4562092  69.2492905
  25.3200836  52.4260368  48.5145531  25.0988598  51.9711571  49.3271866
  25.8458080  53.1752014  48.7949028   2.3901958   3.9494631  63.7822380
   2.2739396   3.1713305  64.3274231   3.3000963   4.2092519  63.9265366
  25.3943672  49.0604477   1.9908861  25.8372822  49.0416451   1.1425318
  26.1036797  49.0200043   2.6323466  51.7327805  10.9082022  28.0362167
  51.3732300  10.8334036  27.1522694  52.6631393  11.0887966  27.9018650
  14.6934900   4.7984829  23.4927330  14.9029646   4.2439218  22.7411919
  14.1125984   5.4719820  23.1389027  71.1706619  55.2387238  60.3270111
  70.6742859  54.6148300  59.7972984  70.7206421  55.2469826  61.1717873
  68.4620819  21.4954109  33.2844353  68.2477646  22.3800335  32.9882202
  68.9790497  21.1224003  32.5704079  83.3766022  13.0663357  85.4672470
  83.3653107  12.2721634  86.0014725  82.5044632  13.4440136  85.5811157
  22.1837063  16.4743233  56.1996117  21.6576519  16.9196053  55.5353699
  22.3625412  15.6118383  55.8249512  11.8277407  42.6442757   8.0705204
  11.9589357  42.9403038   8.9712906  10.9106646  42.3718491   8.0391054
  71.8000717  36.2321281  73.3512268  72.2288818  36.7896156  74.0005035
  72.5203857  35.7889023  72.9029694  80.7935486  69.1075668  13.0063257
  81.6930084  69.3401031  12.7758083  80.3457794  69.0195236  12.1649084
  47.5229454  53.1189308  56.8061333  48.2813644  53.6560478  56.5769234
  47.6101799  52.9707489  57.7477608  62.7754936  32.2273064  53.5072823
  63.4314003  32.3822403  52.8275681  63.2632828  32.2864189  54.3287468
  38.1071854  45.7571411  62.9353714  38.6843987  45.9346199  62.1927032
  37.7614822  44.8807755  62.7659531  79.8011932  34.9094200  74.7794266
  80.6861267  35.2651558  74.6983871  79.2626648  35.6610107  75.0270920
  60.5865402  30.9851551  78.1065598  60.8248291  31.6714268  78.7298355
  61.4123878  30.7469330  77.6852951  72.7998123  15.7319469  64.6753769
  73.0972290  15.7312984  65.5852051  73.2736511  15.0068712  64.2679825
  39.3422241  45.9731293  52.6227646  39.9850998  45.8063660  51.9334679
  39.8202782  46.4809418  53.2783737  60.5252686  11.0512066  35.1740265
  61.4291840  10.8160114  34.9646187  60.1099701  11.1880198  34.3225327
   5.8601928   5.6016927  73.4476471   5.9535418   5.6181555  72.4951553
   5.5746112   4.7096434  73.6449356  78.9553528  57.9459686  10.6923752
  78.1646271  57.5452805  11.0535307  79.2295837  57.3492661   9.9959745
  77.2241821  61.6041985  23.9926872  76.2842255  61.6606178  24.1645088
  77.5771027  62.4327583  24.3169880  32.7384224  64.4418335   8.3655128
  33.2614059  64.2852478   9.1517706  32.6559181  65.3943176   8.3184986
  33.4166870  54.2449455  66.9653397  33.0759125  54.7907906  66.2567062
  33.3399658  53.3494720  66.6359940  57.6642876  64.1438293  32.6513405
  57.5648232  63.5001297  31.9499187  57.8477898  64.9663086  32.1973763
  79.9797134  67.2866364  20.9570255  79.5048523  66.6121445  20.4714317
  79.9943085  66.9668198  21.8590984  79.5077515  59.4544449  62.6728745
  79.3982315  59.8797188  61.8223572  79.9626617  60.1041756  63.2087288
  52.1562271  46.5724754  57.5571861  51.4208641  46.8636169  57.0180130
  52.7136650  47.3461990  57.6399193  39.6154709  10.6572418  12.7107172
  38.9024963  11.2958832  12.7168779  39.3782310  10.0400839  12.0185719
  38.9333572  67.8786240  72.8106537  39.6688499  67.3728943  72.4649353
  38.3511009  67.9980698  72.0603638  46.9644432  31.6904297  10.8324537
  46.7946014  31.3947258   9.9380569  47.5753441  31.0441227  11.1864576
  49.9953575   1.5227485   5.2454381  49.0623398   1.3089417   5.2466116
  50.4232483   0.7260605   4.9317050  63.2365417  30.8270321  57.0130119
  63.3587990  30.3315582  56.2032051  63.5628281  31.7035007  56.8091202
  36.5432167  46.1923904  86.5534363  35.9633675  46.2665863  87.3113937
  36.5749855  47.0768013  86.1886978  27.2418213  46.5027962  12.4371948
  26.8081894  46.4974327  13.2905226  27.6934299  47.3460846  12.4033184
   3.7769530  45.9345360   4.7296162   4.2086902  45.2389412   5.2255802
   3.6226699  45.5523758   3.8656821  16.9890347  17.5561142  87.6630096
  16.9668369  17.1863880  86.7803802  16.5007000  18.3762627  87.5914841
  14.2392025  44.0228195   1.8091456  13.7258320  44.6062775   2.3679471
  14.3184462  43.2144928   2.3156662  61.5472870  46.7225533   2.3404751
  61.5136261  46.5166473   3.2746601  61.1227417  45.9773064   1.9155040
  48.8096428  31.0617638   6.6845350  49.2200012  31.0901299   7.5488453
  48.0785027  31.6764679   6.7462392  10.7387009  38.6523056  61.4442024
  10.6034517  37.8771706  60.8991318  10.1238251  38.5450439  62.1699142
  77.9678345  11.3446560   4.2348647  77.6917572  11.9021816   3.5074208
  78.4177322  11.9393177   4.8350372  81.4122314  56.3537216  41.1646309
  81.8923035  56.4415932  40.3412018  80.4921417  56.3191872  40.9029388
  70.3973618  12.6130981   6.6860313  70.5021057  13.2590408   7.3846145
  70.0843735  13.1195383   5.9365044   2.2538953   0.7561253  28.6473713
   1.7136446   0.4101306  27.9369850   3.0399492   1.0856943  28.2117863
  26.5151424  36.5824051  56.4917145  27.3445892  36.2457008  56.8306580
  26.5214996  37.5113335  56.7225456  75.8549423  58.0346031  19.0309830
  76.0851288  57.7227745  18.1557617  75.5964279  58.9468651  18.8999157
   6.1512947  58.1292610  40.1900864   5.6680503  57.3347893  39.9631119
   5.6880088  58.8305054  39.7319870  59.6884079  31.5727730  62.0253258
  60.1176109  30.7599850  62.2925148  58.7548752  31.4036465  62.1523819
  46.5955009  50.3226509  89.1857300  47.0201607  49.9918404  88.3942413
  46.0669441  51.0611038  88.8831635  57.5880661  31.8029175  18.1853542
  57.4728546  31.6703491  19.1263027  57.8160553  32.7286453  18.1000443
  49.2956200  45.5412865  65.3224640  49.3962097  45.1730614  64.4446716
  49.0535774  46.4551659  65.1725464  83.4745178  34.8163757  49.5086136
  82.9767761  34.3019753  48.8730965  84.2558365  35.0956764  49.0313606
  63.0188446  27.0513515   8.3017378  62.7555542  26.2286530   7.8893347
  63.1781349  27.6463337   7.5690341   7.0209403  24.4720230  54.6453781
   7.0183210  25.3175945  55.0939713   7.5331964  24.6238270  53.8511620
  29.1293926  10.1908464   6.9526801  29.3880215   9.9819546   7.8502917
  28.2620125   9.7978077   6.8557196  10.9465313  27.7122040  61.8273125
  10.3070889  27.2622986  62.3795166  10.4460869  27.9925060  61.0610123
  60.9259300   2.9992731  40.4673882  60.5826912   3.4947059  41.2110023
  60.6906853   3.5230584  39.7015266   3.9833891  15.0139208   5.9843721
   3.5332835  14.6561632   5.2190967   4.8515987  15.2543592   5.6609011
  15.3446922  28.3685665  17.4001637  15.4680023  28.4619446  18.3447838
  15.6992130  29.1775303  17.0312138  22.5495396  47.3632736  39.9280853
  21.8543892  47.5428314  40.5611382  22.0865307  47.1159058  39.1276703
   6.2029371  45.5846443  24.1630726   7.0228357  45.0936470  24.1090622
   5.5585833  44.9427719  24.4614639   5.1747332  50.4713478  86.1614151
   4.4418244  50.3840942  85.5519409   5.1916680  51.4021645  86.3839569
   3.7275422  31.3108101  42.3223991   3.0017283  30.7222633  42.5298538
   4.4547853  30.9918728  42.8568382  31.7765694  66.9096451  74.7802429
  31.5896015  65.9843979  74.6215210  31.8949604  66.9709015  75.7281189
  75.9071045  13.9364548  21.5853176  75.2754059  14.2229557  22.2449455
  76.7541885  14.2283316  21.9221992  58.2666550  19.6101818  72.5187302
  58.2758446  19.2487335  71.6324463  57.5196190  20.2086163  72.5256042
  42.2735214  45.0436783  74.7795105  41.5178528  45.4878426  75.1641159
  43.0095711  45.6309929  74.9513397  79.2527390  65.8365250  30.1247330
  79.7308350  66.6533966  29.9820213  79.1072235  65.4874115  29.2454262
  52.2962074  44.7125206  71.7676315  51.7594414  45.2324753  72.3657608
  52.1594238  45.1162834  70.9105988  82.3225632  46.5434952  71.9517822
  81.9771423  47.4184647  71.7747421  82.8513641  46.3344345  71.1817780
  66.7755508  18.1434536  25.4689522  67.1415253  17.2798653  25.2778854
  67.5142288  18.6459465  25.8125782  35.8129807  43.4757690  21.1959000
  36.5504570  43.7024155  21.7624645  36.0886726  42.6729240  20.7535572
   0.6267651  15.6707354  70.7306671   1.2341388  16.2819843  71.1474457
   1.0939425  15.3603182  69.9550247  61.3783798  38.5955276  59.7024918
  61.1489372  38.6323013  58.7739220  62.2227402  39.0429153  59.7584724
  42.7414970  24.0409069   0.3087060  42.0715714  23.5271816   0.7598352
  42.4956665  23.9963264  -0.6153130  80.5587616  19.7007637  83.6311722
  81.4532394  19.9767227  83.4312210  80.4403381  18.8924141  83.1323929
  58.0298996  63.8643188  39.2631569  57.4249954  63.4965897  39.9074326
  58.8170090  64.0738678  39.7659264  26.6665707  52.3797493  72.0972214
  26.3562527  53.2832527  72.0370712  27.5773163  52.4577179  72.3812866
  75.8993301  21.4027309   3.8571773  75.9847031  22.0133591   4.5893502
  76.6954880  20.8725815   3.8933682  34.7328110  66.6022720  40.9196320
  34.3094940  65.7482986  41.0077057  35.6620636  66.3990784  40.8127327
  72.3152084  62.1098175  46.1656380  73.0689468  61.7569885  45.6927567
  72.6949005  62.5569534  46.9220352  56.2581558  13.9060173  79.7420044
  56.1484795  14.8073578  80.0449677  56.1990967  13.9649935  78.7884521
  55.3957748  45.9694901   6.0820637  56.1174469  46.1665459   5.4849143
  55.0957146  45.1001968   5.8164968  58.2069321  17.4883881  44.6740913
  59.0018501  17.9088211  45.0020676  58.5208511  16.7147026  44.2060127
  71.5290298  12.0794992  79.2377625  71.9916153  11.5424080  79.8810196
  71.0006866  12.6804466  79.7630692  85.8251953  37.3809814  81.1173782
  86.1125946  37.5434341  82.0158463  84.9759979  37.8182144  81.0547943
  57.3823929  42.4327621   8.2588730  57.2275963  42.6431160   9.1797533
  58.2767029  42.0921593   8.2380486  24.9329739  10.7857599  73.3311615
  24.4235649  11.1099072  72.5884247  25.5376987  11.4988298  73.5362778
  51.2180290  10.8180199  37.6240234  51.2405396  10.2853632  38.4190102
  50.2859154  10.9433041  37.4459763  22.1885509   2.3471794  84.6375732
  21.3729801   2.4285727  84.1431503  22.1072712   1.5118382  85.0978241
   6.0583229  62.0735474  22.6947994   5.8963428  61.9914436  23.6346149
   5.7603106  62.9566269  22.4766426  44.3748512  42.5360756  68.5905991
  43.6600761  42.6168556  69.2221069  44.6856422  41.6367035  68.6943741
  69.2907715  42.1353951  26.0786705  69.1660690  42.7786636  26.7764416
  68.4170761  42.0121498  25.7075863   8.3345881  17.7051506  56.6887436
   8.8674965  17.2553005  56.0330925   8.6087284  18.6205692  56.6331482
  68.3450623  51.3313904  20.0932198  67.4546585  51.3751297  19.7446404
  68.5980072  50.4140434  19.9896793  60.3796425  56.3353767  16.8230686
  59.8771667  55.7461128  16.2604694  60.9606667  56.8023224  16.2225609
  29.9136715  61.5957260  13.0824156  30.0513382  62.2385635  12.3866844
  30.4716377  61.8960609  13.7998457  33.1035233  50.9499359  28.2325821
  33.6980972  51.6997452  28.2549229  32.9088478  50.8262253  27.3035889
  78.2874680  55.6603775  46.5711594  77.9591522  54.9789772  47.1577835
  77.5509186  56.2629395  46.4680290  65.8456879  60.6967506  28.1279716
  66.6619034  60.7389946  28.6262035  65.5874710  61.6113014  28.0132942
  56.9730949  61.9777832  41.0705490  57.7575798  61.4888268  40.8220787
  57.1029854  62.1847649  41.9960327  35.1143188  46.5801277  67.1021500
  34.5952988  46.0640259  66.4853134  34.7590065  47.4661255  67.0314865
  35.9923363  32.8480263  75.8365250  36.4680824  32.1059685  75.4633560
  36.6690598  33.5009766  76.0152206   8.4521084  36.4674416  72.1865540
   8.6715393  35.7605591  72.7935181   8.5999460  37.2688255  72.6887054
  32.5132370  40.7938576  29.5318298  32.7304192  41.3635597  28.7939262
  32.5448036  41.3693047  30.2960911  36.4418297  46.4316292  15.4466400
  36.3062820  46.9602242  16.2330513  37.2802200  46.7332764  15.0968618
  17.2515163  33.9805641  17.9520359  16.9837303  33.9813805  17.0330582
  16.5017548  34.3477287  18.4203110  37.0043335  54.3572426  15.3211794
  37.7399788  54.9507866  15.4720497  36.8704185  53.9228439  16.1635551
  57.7099953   0.0698486  83.1416473  56.9647789   0.6662354  83.0694809
  58.3906593   0.4705242  82.6009216   2.0423238  64.5523529  19.8547707
   1.1335717  64.8349457  19.7520771   2.3539767  65.0239944  20.6272087
   4.0871406   4.8960309  33.3354874   4.5596709   5.2119427  32.5653267
   3.2478919   4.5891647  32.9923744  21.7706928  32.1008568  10.0627632
  21.7894363  31.7032280   9.1922626  20.8686295  31.9830952  10.3604975
  49.1570663  59.1792603  85.3079376  48.3471184  59.6247978  85.0595245
  49.8466644  59.8185120  85.1289291  20.0942307  64.5761795  81.7935257
  19.7351360  63.6957245  81.9034576  20.5671310  64.7454376  82.6083527
  35.7372971  51.9560013  20.5128193  34.7989426  52.0752945  20.6594334
  36.1480408  52.6751060  20.9928246  55.6584358  66.7635880  41.7738113
  55.1859016  65.9333115  41.7139282  56.1273880  66.8327942  40.9422302
  19.2215061  38.0034561  17.7878075  19.2948666  37.0491486  17.7756710
  20.1060448  38.3091354  17.9887714  63.7577934  67.0997086  62.1291351
  64.3766708  67.6193237  62.6421738  63.6238174  66.3062515  62.6475105
  83.7938004  46.6284447  69.5595093  84.7409286  46.6912918  69.6829224
  83.6162033  47.1687698  68.7896194  79.7421036  32.1610794  88.1152039
  79.3489151  31.7700462  88.8954163  78.9965515  32.4700890  87.6005173
  61.4440651  70.7114944  21.4994011  60.7856789  71.1372147  22.0485039
  62.2000351  71.2976303  21.5338764  78.5494537  63.5261574  47.2571259
  78.7666931  62.6663742  47.6174202  77.8671417  63.8636055  47.8374748
  55.8387642   3.5763030  15.7044802  55.2716904   3.4279170  16.4612103
  55.2432480   3.8601151  15.0109072  23.4181061   6.3490849  84.0466385
  23.1695805   6.3289099  84.9707947  23.6894779   5.4520407  83.8519592
  46.1595573  67.9842148  34.0846558  45.2811317  68.1029892  33.7234192
  46.7469749  68.2677078  33.3840790  15.4255066  67.1395950  78.6071472
  15.7825413  67.9835815  78.3306808  15.6393299  66.5426178  77.8901215
   3.8527503  60.5152588  57.3713531   3.6338780  61.3413239  57.8025703
   4.5293069  60.1272888  57.9263153  77.3567810  64.4250793  49.4649582
  76.5879745  64.9223022  49.1857872  77.4321136  64.6064606  50.4017906
  76.7132645  64.1708298  84.4868774  75.9972076  64.2980957  83.8645477
  76.9670486  63.2545853  84.3758850  62.4974976  13.6756506  75.6465683
  62.6724930  13.7220640  76.5864868  63.0900955  14.3206234  75.2604752
  69.3091278  30.5360317  78.1522293  68.5095520  30.0277843  78.0158615
  69.0928726  31.1357479  78.8662338  84.7339401  65.2131119  55.7214279
  84.8460312  64.3688660  55.2844963  84.2386703  65.7424316  55.0963173
  51.3976288  57.9554443  74.4651489  50.7654419  57.6673660  75.1236191
  51.3468208  58.9110603  74.4862747  47.5779495  62.8729897  29.6405296
  47.2873268  61.9674950  29.5317020  47.2854729  63.1144257  30.5193920
  68.7258835   5.9999094  18.3889771  68.0482178   5.8579483  19.0499268
  68.7964401   6.9519320  18.3189335  15.9933262  56.4559631  57.1368828
  15.8598480  55.8183670  57.8382263  15.1127615  56.7638550  56.9223137
  63.2580643  71.0023575  13.4155617  62.9533081  70.0982056  13.3389473
  63.8202171  71.0007858  14.1902971  46.0353699   2.0266564   6.0640473
  45.8217773   1.1066351   6.2195172  45.7239532   2.4804833   6.8471770
  18.3455715  49.0072403  78.2376480  19.2246971  48.7108002  78.0020828
  18.4698124  49.5087585  79.0434265  56.5394936  64.8385925  -0.1430241
  55.8041534  64.4816818   0.3550985  57.2950821  64.3265152   0.1452405
  60.1055603  66.5005417   9.1139841  59.2585754  66.2807693   8.7259750
  59.9047623  66.7052460  10.0272255  73.8532257   4.2260966  62.5017204
  74.5890198   3.6144679  62.5289459  73.3104553   3.9157128  61.7769470
  14.0320873  60.6490936  51.9538155  13.1478949  60.6222610  52.3194885
  14.2503128  61.5805702  51.9228706  81.9704132   8.0811653  82.3652649
  81.3042145   7.7175870  81.7819824  82.6439590   8.4218845  81.7766342
  54.4207039  25.4586449  57.3729858  54.3024025  26.2593555  56.8620110
  54.2534447  25.7246075  58.2771530  80.7389679  63.8137321  63.8239708
  80.0528564  64.3457870  63.4209862  81.3448792  64.4508286  64.2024155
  34.5172157  35.3619347  65.1635056  34.1177864  36.2197914  65.0193939
  34.2200546  34.8320656  64.4237976  84.1245956   7.9378724  49.5823135
  84.6338425   8.0133324  48.7753372  84.4138565   8.6764994  50.1180229
  61.7706909  44.7651863  59.8553123  61.5558205  44.2149429  60.6084976
  62.5930786  45.1913033  60.0968399  27.7674332  21.5545940  84.6862640
  28.3730145  21.2684155  84.0024490  27.2580032  20.7723045  84.8977737
  10.8282890  53.3997803  69.8004837  10.8651009  53.0947456  68.8939362
   9.9448042  53.1757469  70.0928802   0.5895164  68.1633301  70.3277206
   0.6934828  67.5440140  69.6053162  -0.1359457  67.8106384  70.8430328
  70.4008865  43.4236298  61.6086769  70.0087509  43.5554543  60.7454948
  71.1184311  44.0561256  61.6449013  81.3882980  41.8419991  65.2668839
  81.9559937  41.5437241  64.5562668  80.5619125  42.0621376  64.8369370
  65.8862991  61.1643867   6.0094900  65.6359634  60.4031067   5.4860215
  65.5026550  60.9994431   6.8707948  45.7570038  52.3674774  35.7649460
  45.3050766  52.6935043  36.5432129  46.1430969  51.5367622  36.0425644
  51.2216835   4.8930731  19.5825939  51.3917618   3.9538038  19.5113392
  50.6004295   5.0780916  18.8782883  59.2553253  55.0238190  56.4102478
  59.2843246  54.4363136  57.1653824  59.0934258  55.8891335  56.7860870
  14.2704573   8.5901365  79.1328583  14.7571630   7.7670755  79.1766891
  14.5233679   8.9735174  78.2930450  57.3516273  19.7690907  58.0754967
  57.0193253  19.1581917  57.4177666  58.3027573  19.6686306  58.0368309
  18.4864388   6.2902932  75.9181137  18.4543629   5.4846978  75.4021454
  17.6012669   6.6493821  75.8568192  71.3235855  20.7341518  10.3037958
  70.4549179  21.1023159  10.4653654  71.6755142  20.5587940  11.1765108
  71.1030960  17.4855785  11.1120510  71.4706802  16.6046238  11.0411158
  71.8562241  18.0447025  11.3028660  54.9177780   1.8588862  87.3683853
  54.2316055   2.1382129  87.9745026  55.4875641   1.2973419  87.8939743
  64.8450317  42.3735924  26.7490730  64.1285782  42.8000259  26.2788754
  64.4647293  42.1264725  27.5920067   9.1985168  45.1056824   2.5759690
   9.4730816  44.9795914   3.4842343   9.2614899  44.2348633   2.1836205
  24.8994884   5.1191993  53.9219894  24.1860237   5.7304268  53.7386894
  25.6112862   5.6717887  54.2448196  72.0939407  54.8386269  53.6027298
  72.2428741  54.0074615  53.1519318  71.5466995  55.3429222  53.0006981
  34.0596428  33.5788460  85.1984253  33.9216766  33.3540306  86.1185684
  33.8177185  32.7862625  84.7193451  40.1132660  47.9463654  12.5153790
  40.6400299  48.7003822  12.7803450  40.3259430  47.8186035  11.5908918
  34.5467224  68.8509674  30.1342659  33.6256523  69.0878448  30.0258713
  35.0269241  69.5406342  29.6760159   5.2741561  10.4530354  39.2034721
   4.4147196  10.6722832  38.8435669   5.8910770  10.9614372  38.6770058
  52.8921814  54.4938850  50.8148460  53.7546120  54.9091492  50.8138924
  53.0072060  53.7016983  50.2900200  35.6011887  53.8581047  22.8669605
  35.9533234  54.7328682  22.7025795  34.6618462  53.9435272  22.7039738
  51.2433357   8.0124941  25.9963436  52.0343437   8.4740744  25.7179852
  51.0918922   7.3618956  25.3107643  37.8611984  68.5001526  11.3325720
  37.7918091  68.8151093  10.4313393  38.5804214  69.0074539  11.7088661
  56.5949059  37.8502274   7.1344190  56.4343681  36.9532700   7.4275546
  55.7242546  38.2444839   7.0818710  80.5914001  40.9374542  50.9783554
  80.0881042  40.7247238  51.7642746  79.9454193  40.9339104  50.2720070
  34.3403740  47.5657730  23.9874344  33.6565208  47.2134933  23.4178066
  33.9324455  47.6101036  24.8522243  13.6950617  45.3253860  47.2704964
  13.5874910  45.6307220  48.1712914  13.0947409  45.8688278  46.7600899
  10.4570389  68.5344315   4.6548395  10.1687098  69.4450684   4.7167988
  11.3918753  68.5648193   4.8582811  50.9034958  51.0513077  32.3218422
  51.2273178  50.4767456  33.0155602  51.0758972  51.9361267  32.6437225
  80.2142792  16.2755241  67.0107651  80.2221909  17.1856689  66.7144470
  79.8629379  16.3162689  67.9002228  68.9973755  57.4169693   2.4322772
  69.3798294  58.2453537   2.7216699  69.2378235  56.7906799   3.1150475
  27.9138966  33.1497231  61.4250832  27.8820953  32.8546066  60.5150681
  27.6262150  34.0620422  61.3912048  58.2795143  14.9727430  57.6585007
  59.0508194  15.4626818  57.3734093  58.6045074  14.0869455  57.8196602
  57.4098091   4.9860001  53.2728767  57.5916214   4.9166803  54.2100945
  57.9254532   4.2838144  52.8762932  27.3548813  14.8225203  82.9309769
  27.3406830  15.7058544  82.5625381  27.7220592  14.9346151  83.8078156
  10.2101336  43.7593307  44.4015350   9.5256767  43.1940613  44.7596169
   9.8543177  44.6445885  44.4786339  66.4666824  30.1747818  40.2630310
  65.7201920  29.9972134  39.6908035  67.1937637  30.3418884  39.6633148
  68.1239700  70.9508972  45.0331612  68.1395340  71.8921661  44.8599205
  67.2054138  70.7568665  45.2197952  41.4435577  56.8814163   5.9516072
  42.3607140  56.8845367   6.2255526  41.1509209  55.9829941   6.1046901
  13.0965719   8.0951633  55.6031075  13.8942413   8.1843948  55.0815773
  12.8274040   7.1855121  55.4753723  41.7762146  22.4500313   4.5613914
  41.6236343  21.5834484   4.1845789  42.7259445  22.5002956   4.6696424
  15.3222246  43.6004410  14.9541674  15.2870741  44.5373230  14.7611809
  14.7151861  43.4834938  15.6849613  67.7677078  13.2504377  83.2484512
  67.0739441  13.8779659  83.0456390  67.5837555  12.9716482  84.1454849
  33.2731552  19.6974773   5.4028831  32.4441948  19.2291088   5.3044519
  33.0208321  20.6177654   5.4779530  55.7998886  36.2207336  35.4565201
  55.4156723  36.6208839  36.2365799  55.2819901  35.4284706  35.3139381
  36.0718422  28.8783875   9.8482056  36.0328178  28.9719906  10.8000183
  35.3459549  29.4121571   9.5250826  41.6561737  64.4292374  73.8145142
  42.5327644  64.8047409  73.8971024  41.4714661  64.0599518  74.6780853
  65.4114075   9.6031885  45.8779526  65.7613831  10.4917164  45.8126106
  64.9111862   9.4828320  45.0707817  59.8325500  26.4856682  85.7863388
  59.2399979  27.0492477  86.2838287  60.4836349  27.0852051  85.4218140
  43.9582176  39.9536095  12.9048119  43.7384949  40.7394066  13.4052830
  44.5767632  39.4803810  13.4613085  30.5996838  37.7418060  75.2092590
  31.0808086  38.2576637  75.8562851  31.0631371  37.8973389  74.3863068
  58.7545280  31.5684605  81.9788589  59.2833595  31.2057800  82.6895142
  58.2205391  32.2432861  82.3980255  68.3633423  52.7020035  23.6399975
  68.1441650  53.5267181  24.0736389  68.5779572  52.9533958  22.7416801
  27.5849133  21.1270142  80.7382431  27.8645973  20.7102203  81.5532837
  28.3857708  21.5059185  80.3759003  61.0862732  43.8313408  77.8855362
  60.7698097  44.7076950  78.1048203  61.3485489  43.4543076  78.7253494
  54.3668709  35.7086601  21.5440731  55.2572098  35.4351807  21.7648392
  53.8155899  34.9777031  21.8233948  69.8905334  15.0895700  13.1351814
  70.0445175  15.9664793  13.4866762  70.5334778  14.9970322  12.4321241
  81.1585159  66.5374756  27.0359898  81.7531586  65.9926987  26.5203800
  81.6554108  67.3371353  27.2088013  36.9248428  48.8301163  59.3619041
  36.6803741  47.9251862  59.5557251  37.5797844  48.7578201  58.6675987
  57.9739799  39.1051483  77.8010712  57.6461906  38.2668571  77.4754105
  58.0440216  39.6545334  77.0203629  77.7282867  36.0039444  25.6378746
  78.4350357  36.5563812  25.9718685  76.9445419  36.3196983  26.0876217
  55.5527878   1.0786295  61.4597092  56.2735825   0.6058630  61.0435562
  54.8116379   0.9556962  60.8665657  85.0331955   3.1257789  25.7113667
  85.2944336   2.2508080  25.4242935  85.2267532   3.1380548  26.6487103
  74.4676666  54.4618645  42.9526482  75.2862854  54.2917671  43.4186554
  74.6486588  55.2412186  42.4272156  67.5187378   0.8305086  25.0160789
  67.9207230   1.3559775  25.7078323  67.2828140   0.0085469  25.4461384
  22.1221867  52.5942879  83.6910400  22.7237244  51.8883057  83.4544678
  21.6257248  52.2475967  84.4323654  43.2175789   2.9434252  82.0474548
  42.7280998   3.0153825  82.8668823  43.9618034   3.5347188  82.1603012
  81.8132095   2.8826196  28.8272858  81.2049713   2.1881907  28.5742207
  81.8627396   3.4497945  28.0578117  14.5388985  46.6670418  89.0732422
  14.2498455  46.0758171  88.3781586  15.3461809  47.0558929  88.7366104
  56.0067062  59.4202271  37.0725861  56.5062180  59.3278503  37.8838768
  56.2479057  58.6526184  36.5540924  73.8959961  28.5644817  80.0883484
  73.8218002  28.4464531  79.1413574  73.4587173  27.7984791  80.4601746
  64.0972900   5.4135938  66.5215836  64.1842041   4.9026804  67.3263474
  64.4626007   4.8500853  65.8395004  80.1653290  29.1569309  42.6033859
  81.0438614  28.7778263  42.5770912  79.5807343  28.4188976  42.4308128
  49.7041817  43.0442352  27.6351013  49.0176163  43.5261726  28.0961781
  50.5196953  43.4533157  27.9246254  47.4764061  40.2398376  80.6098862
  47.3957710  41.1219292  80.9727097  47.9277115  40.3645859  79.7750244
   2.1012709  16.5297432  38.2710724   2.6510305  16.6368084  37.4948425
   2.7157414  16.5518818  39.0046730  78.5550079   0.3723661  26.0921764
  78.0737534   0.8842645  26.7422466  78.0035400   0.3990410  25.3102512
  48.5343666  65.4200668  25.1865482  48.6834641  65.0303726  26.0480251
  47.8974533  66.1166458  25.3457584  39.2501297  52.6218376  87.8019791
  39.7892723  52.1299438  87.1826248  39.3296280  53.5325050  87.5180817
  37.0984116  38.1702728  85.4312592  36.1417084  38.1599045  85.4602814
  37.3325958  37.3678284  84.9649124  12.8691874  69.1975937  87.8528442
  13.0052528  68.8719254  88.7425995  12.2006989  68.6191864  87.4856949
  82.7506866  43.2729073  35.9124374  82.5249023  43.7156258  36.7305145
  82.3766174  42.3965149  36.0032272  25.5137119  26.7482433  84.1327896
  24.8676109  26.9829769  83.4666901  25.3263359  27.3349857  84.8654938
  63.9474487  39.4812241  16.0065250  63.2442856  39.6884995  15.3910360
  64.2316513  38.6015968  15.7580900  25.6538811  34.2012711  12.6141996
  25.6586208  34.3887558  11.6755524  26.1922474  33.4149437  12.7041025
  30.5944519  43.0813828  87.8259735  31.4193382  43.4864655  87.5582047
  30.5556355  43.2200050  88.7722931  84.3892593   9.3295841  37.9959984
  83.6898117   9.8641443  38.3718376  85.0560455   9.9617720  37.7277412
  20.6410694  20.4136505  72.1204453  20.3796062  19.7294044  71.5042648
  21.3217545  20.0062408  72.6560898  30.8164501   8.0508223  58.3037109
  31.0136852   7.1402383  58.5231781  31.5478573   8.3280401  57.7519608
  60.0652046  42.9075241  43.5256577  60.5141373  42.4909096  44.2612686
  59.1761398  42.5541878  43.5564651  22.7768002  54.6834106  15.1302948
  22.8020496  55.4473495  14.5541115  21.8821468  54.6693420  15.4703341
  10.2216549   4.9972301  47.2160149  10.1924839   5.3624411  46.3317070
   9.3747873   4.5644679  47.3244781  49.7990341  62.0997124  35.1614799
  49.1496658  62.6977005  34.7913971  50.3111420  61.8061066  34.4079704
  64.4312286  43.2926292  82.4428482  63.4982910  43.5065727  82.4331436
  64.8703995  44.1291542  82.2892761  59.9393349  18.2209511   9.2794771
  59.9579811  18.0901070   8.3314447  60.3147850  17.4174633   9.6395826
  37.9629860  23.7676544  75.3005447  37.9768867  24.0954933  74.4013443
  38.7348289  23.2049084  75.3622665  65.9387512  37.9967461  65.0455017
  65.6014252  37.1259499  65.2556305  66.6092911  38.1603088  65.7087173
  52.2892990  27.3378944  51.6363640  52.4646301  26.4122162  51.8055077
  52.1299934  27.3831253  50.6935997  39.3117561  56.0628662  82.5294647
  39.5127373  55.2480698  82.0690918  38.3652802  56.0319519  82.6689682
  80.4716415  18.8005867  58.7672539  80.3796844  17.8576145  58.6309509
  80.8140488  18.8816490  59.6574326  68.5971832   0.3654004   8.4216385
  67.8478470   0.5578182   7.8579893  68.2081375   0.0667769   9.2436485
  58.1429291  22.7757263  81.9485855  58.6729393  23.3071499  82.5426483
  58.5756721  22.8622475  81.0991898  24.3506374  38.1587753  10.3969374
  25.0705357  38.7849808  10.4734030  23.9224987  38.3856621   9.5714369
  76.5632401  16.0089855  64.1145782  75.8173676  15.9299526  64.7092743
  76.9359741  15.1280384  64.0794830  69.2763519  16.1878433  58.9491043
  69.2941666  16.8844395  59.6053543  68.5317001  16.4058456  58.3885651
  67.7034912  26.4111595  14.4325542  68.3927765  27.0639343  14.3100958
  66.8888779  26.8937817  14.2921314  73.8622360  56.6422806  26.9541798
  72.9618607  56.3709183  27.1328316  74.3814468  55.8482971  27.0816422
  18.1128578  18.1730194  81.2744827  17.7735786  18.8181362  80.6540451
  17.3369560  17.8505116  81.7329483  33.4594498  69.7569046  32.8698540
  34.1088104  69.1675720  33.2535820  33.9525070  70.5482864  32.6534309
  17.2964306   8.3116207  70.7512131  17.6438866   7.8563662  69.9842453
  17.7978363   9.1258669  70.7939682  52.2184639   7.2044210  69.4828110
  52.1849327   8.1474695  69.3222885  51.6227112   6.8297024  68.8340454
  76.1727142   6.4361734  60.1956100  77.0957565   6.4580617  59.9431458
  75.7008133   6.3320832  59.3693504  60.0237236   0.7693691   7.3630753
  60.2430801  -0.1165513   7.0745268  59.6295624   1.1810319   6.5940480
  62.1374969   6.4054203  44.1287918  63.0713844   6.2364817  44.2534637
  61.7300224   5.5402532  44.1698112  86.5308914  66.8617554   5.3576307
  85.7141724  67.2919312   5.1043358  86.8230743  66.4155350   4.5628057
  56.3557472  24.7367973  55.5800285  56.5895653  25.4916954  55.0399437
  56.0146294  25.1176853  56.3892212  44.8962555  48.7968559  75.5295715
  43.9965553  48.9639778  75.2487717  45.4330368  49.0569878  74.7809525
  56.6128426  70.4095840  70.2771378  57.3136902  70.3149490  69.6320877
  56.8047752  69.7448654  70.9386063  53.8201370  42.9572563  66.9157104
  52.9154968  42.9030151  67.2237930  53.8520317  42.3686142  66.1615753
  78.3221359  41.7118912  29.9157906  77.6818237  42.3557549  29.6130238
  78.7035294  42.1043930  30.7011013  52.4308853  52.7585907  17.1025162
  51.7550278  53.4248466  17.2272053  51.9894562  52.0560150  16.6252785
  66.7769775  10.0962410  74.9314194  66.4585190  10.5632105  74.1589203
  66.1563187  10.3260145  75.6229553  61.6651802  51.0794029  40.1688576
  62.4570465  50.5418091  40.1820183  61.9158363  51.8860893  40.6190414
   4.8426700  19.4581280  79.1457901   4.8430400  20.2505150  78.6088028
   5.0556931  18.7538166  78.5335846  52.8684464  65.8754730   4.4901519
  53.6051788  65.9566956   3.8844609  52.6345139  64.9477997   4.4597297
  66.7390442  70.3436127  15.8838921  66.0060272  70.8648071  16.2114277
  66.3376770  69.7187424  15.2800131  36.4477921  43.2434540  15.8425598
  36.3733368  44.1590080  15.5734005  37.0305710  43.2635956  16.6016350
  75.6524734  39.3076553  53.0371399  75.2594376  39.7547264  53.7867279
  75.4777374  38.3795700  53.1932030  60.5391655   8.3745060  38.6012764
  60.1586838   7.8199205  39.2823792  61.4791870   8.2000704  38.6477661
  52.2970695  22.9403820  72.1145401  51.8144875  22.3517151  72.6949005
  52.1539383  22.5831261  71.2381210  45.4423828  28.9630547  65.4542465
  45.1167221  29.6242561  64.8435135  44.6825943  28.4099350  65.6359406
  70.0561295  24.5009575  59.3007164  69.7529144  24.9611187  58.5180664
  69.4221191  24.7368088  59.9779434  74.5615463   8.2633591  82.0645142
  75.1098709   9.0372047  82.1938705  74.1742935   8.0978041  82.9240799
  58.5802307  33.9997406  39.7321625  58.0661354  34.7663155  39.4785881
  59.4743118  34.2115135  39.4638290  53.2255478  12.3312273  22.5745907
  52.9253273  13.1798515  22.2491112  53.0292625  11.7194881  21.8650265
   9.0668297  60.5164833  21.1110859   9.1134768  61.1902733  21.7893639
   8.8831120  59.7077751  21.5890751  10.3999767  56.3129997  81.3515701
  10.4116640  56.0692749  80.4259872   9.8231649  57.0758591  81.3910980
   3.1305616  43.9336166  51.3099861   3.4290390  43.2607765  51.9218903
   2.2154279  43.7119064  51.1379166  31.3226204  47.5329552  23.5491238
  30.7200298  48.1648026  23.1568432  31.4120121  47.8196373  24.4579983
  23.3917522   0.8199242  39.6174812  23.6997128   1.6084057  39.1706161
  23.3622837   0.1522876  38.9321899  17.6736546  64.3513489  28.1877918
  18.3901558  64.2679596  27.5585823  16.8889732  64.1247101  27.6886539
  37.2589188  43.7474861  69.9606018  36.5242996  44.1976051  70.3776932
  37.5093498  44.3192749  69.2349472  34.8914490  61.9614258  24.2987156
  35.7052841  62.1183815  24.7775402  34.5068626  62.8310127  24.1885357
  22.0894852   0.7475361   6.3384628  21.8794975  -0.1595561   6.1163793
  22.0006752   0.7877045   7.2906871  51.9199066  64.2659836  31.0820866
  52.5266876  64.8665924  31.5148830  52.4731941  63.5495949  30.7708168
   7.1243734  50.2622337  25.4189167   6.3982573  49.8377647  25.8758774
   7.2842569  51.0642853  25.9162903  35.2084198  50.1588936   9.7831087
  35.9433060  50.7722206   9.7812576  35.0101280  50.0198936   8.8570461
  45.7461777  35.7889137  11.3179483  46.5482216  36.3097076  11.2763357
  45.0612717  36.4209290  11.5363293  37.2918129  18.0036392  84.0195694
  36.5574036  18.4235115  83.5717010  37.0905037  17.0684910  83.9848785
   0.3920347  46.3402519  46.2708168   0.2031996  45.5201111  45.8148079
   1.2144144  46.6440659  45.8866005  68.0881348  54.2537231  47.9596443
  68.8837891  54.7851067  47.9879112  68.3750153  53.4115181  47.6066208
  65.0427094  58.6898460  48.6631546  65.1123505  58.2661667  47.8076553
  64.7703400  59.5858765  48.4652138  77.1223221  24.0101910  39.8874168
  77.4614410  23.1170788  39.9472847  76.3240814  23.9288101  39.3654785
  13.0167999  17.5384865  77.8774414  12.8712502  16.7610950  78.4166183
  12.1403418  17.8050232  77.5999298  29.9473705  61.8352699   4.8164620
  30.4444103  62.4003067   4.2249260  29.1051407  62.2782822   4.9195161
  51.9543800  23.6216240  56.2994995  52.6513100  23.6291542  56.9555969
  51.9852142  22.7402325  55.9274330   8.4226151   4.9366660  61.4516869
   7.4694901   5.0053406  61.3962936   8.7230778   5.8410144  61.5417290
  54.1209412  22.7548714  57.7221603  54.8805733  22.2920589  58.0757027
  54.3422585  23.6818275  57.8116150  52.1895752  34.5325584   6.0130935
  52.8496971  34.6351700   5.3275685  52.0147400  33.5917969   6.0383534
  75.4751358  41.7462311  34.3923492  76.3904800  42.0189285  34.4556885
  75.1113129  42.2891693  33.6930046  30.0513840   3.1632423  10.3385000
  30.9644070   2.9722567  10.1236801  29.5446301   2.6261082   9.7294683
  84.6722488   7.8997560  52.8780174  84.7609024   8.4728222  53.6395721
  83.9760437   8.2998219  52.3569756  25.9956627  15.6906872  55.9828110
  26.6678429  15.0103722  56.0225410  26.4761391  16.4897690  55.7663765
  63.3312035  38.9680367  88.2673874  63.5141830  39.6821213  87.6567841
  63.5739861  39.3178177  89.1246719  54.3340836  69.3023605   6.3972363
  53.8867035  68.6128006   6.8877435  53.6789551  69.9940872   6.3047414
   3.4052663  13.2969084  85.7599640   3.5842986  12.5559750  85.1809998
   2.5966535  13.0572176  86.2126465  63.4360847  41.6914215  29.0854263
  63.4025803  41.2378616  29.9276810  62.5519905  42.0378418  28.9646072
  74.7634354  12.8270903  38.0617180  75.0896530  12.6596994  37.1775284
  74.9027710  13.7646799  38.1949158  40.6924477   0.6287838  88.0005493
  40.5052490   1.1834173  87.2432098  39.9286194   0.0564545  88.0729294
  37.1920891  47.5662880  73.2455673  36.6849098  46.8213921  73.5682526
  36.8675690  47.7099113  72.3565826  47.4282455  46.5145302   9.1978731
  46.6535187  46.6495857   9.7435741  47.1624756  45.8467216   8.5657120
  63.3110771   4.6030459  54.0350266  62.4109421   4.8123031  53.7856369
  63.7278671   4.3273320  53.2186317  49.1786919  23.0232944  73.3917542
  49.9757462  22.5648785  73.6578217  48.9826660  23.6076431  74.1241074
  10.5532465  16.6105614  81.0513687   9.8569889  16.9607716  80.4956665
  10.1220598  15.9406872  81.5820084   1.1381820  65.6976547  84.1987915
   1.9287522  65.3554611  83.7815018   1.0099670  66.5581589  83.7996445
  63.6115990  44.0474815  85.5309906  64.3193817  43.4451599  85.3018951
  64.0092697  44.9164124  85.4757538  23.7118740  66.9690857  80.7410660
  24.2755318  67.5963898  81.1938477  23.9054184  66.1291885  81.1574097
  52.2882690  15.2152157   7.8100357  51.5544243  14.6008596   7.7937222
  51.8950653  16.0635128   7.6050668  76.0349197  16.2623215  36.1972847
  75.0981140  16.3867798  36.0452003  76.4291534  16.3245354  35.3272629
  71.2631836  12.8321123  27.9666958  71.5112000  13.4171476  27.2508354
  71.4934540  11.9578533  27.6522465  63.0215111  61.6397400  13.1847382
  62.9316597  61.9206238  12.2740993  63.5844803  60.8667526  13.1425228
  86.2177582  54.4920082  59.8106995  85.4008865  54.9086189  59.5361252
  86.5751724  54.1132050  59.0075798  53.1435204  43.1608086  55.9721375
  53.6585999  43.3643646  55.1914368  52.2869873  43.5531960  55.8029938
  42.8187370  32.3201103  59.7890053  43.0889091  31.4204540  59.9730148
  41.9323273  32.3815575  60.1450043  67.4185410  64.4534836  75.3485565
  67.0689392  65.0730362  74.7081146  66.6434326  64.0513992  75.7406769
  14.5469160  55.2636719  35.5029182  14.2742929  55.5832367  36.3630257
  15.4980669  55.3709984  35.4979744  28.8751736  17.7385712  65.7714386
  28.4580994  18.3403111  66.3880310  29.6030712  17.3582611  66.2631302
  27.9570370  30.2849598  69.5387497  27.4519997  29.8347378  68.8616486
  28.3717575  31.0165462  69.0815659  78.1293869  63.2843819  56.1527557
  77.2064743  63.1458168  56.3655319  78.3310623  62.6059990  55.5082779
  19.1302357  25.9440155   9.9759398  18.4745293  25.8954353  10.6715851
  18.9571857  26.7792549   9.5415878  56.4520073  61.6768608  76.3585052
  56.7868271  61.3671532  77.2000504  56.9201050  62.4969254  76.2016373
  82.8842926  25.7418022  45.5250435  83.0798492  25.3080769  46.3556290
  83.5444565  25.4064388  44.9184608  59.4474297  54.3784904  15.2774067
  59.2681274  54.5532188  14.3535280  58.8649635  53.6526642  15.5013266
  30.0017281  43.2383194  59.9334030  29.7577686  43.9297371  59.3180542
  30.6352978  42.7040482  59.4544716  68.5446625  53.8850479  21.1879044
  68.3456726  52.9617157  21.0326939  68.8363266  54.2134514  20.3374233
  50.5623436  38.4638023  74.3721085  50.1576653  37.6215630  74.5797043
  50.9876480  38.7323875  75.1864853  85.3222198  11.1625891   3.9912488
  85.7382050  11.7047186   3.3209624  84.3922882  11.3820162   3.9336362
  25.0740986   4.2970796  24.6910000  24.7409935   3.5383408  24.2118473
  24.4452229   4.4270711  25.4008236  79.0625229  67.8645935  47.8229179
  79.3463821  66.9977112  47.5328064  79.8662033  68.2942429  48.1157150
  36.4367714   8.4180603  15.0703297  35.9827042   8.7730331  14.3060980
  36.1920357   7.4928079  15.0859623  80.0872726  46.4511642  79.6901779
  80.6278610  47.2399559  79.6476898  80.7040100  45.7308273  79.5598755
  44.6037445  17.0118465  71.9966354  44.8910103  17.9081879  72.1706619
  44.8260765  16.5301380  72.7933578  47.5603142  11.0490646  12.0161114
  47.6428490  11.8664122  11.5248232  46.7252235  10.6800575  11.7285633
  38.1390038  24.5972786  10.3414631  37.7340546  24.9606056   9.5539093
  38.2872963  25.3557510  10.9062290  14.1857796  70.5983963  14.8601475
  14.4160566  70.1321564  15.6637831  14.4143515  71.5106125  15.0386019
  75.9639816  66.8197479  50.9888802  76.3044891  66.2384186  51.6688385
  76.2976837  67.6853638  51.2246590  74.4460526  34.8424034  72.3262787
  73.8814850  34.0715408  72.3834305  74.3973618  35.1073761  71.4077759
  14.3366175  54.2923355  74.8300781  13.6947203  53.6729355  75.1772690
  14.0499115  55.1441574  75.1593628   8.3560400  63.8094597   8.5552454
   8.0557833  63.4214897   7.7333241   7.5994973  63.7499771   9.1386290
  70.2520294  48.2915344   7.9604712  70.4343719  48.5735245   7.0641084
  70.9851456  48.6327057   8.4727011  61.3582382  23.4437275  43.1693649
  61.0103912  23.0013733  42.3950539  60.6094589  23.5143967  43.7614517
  41.6378250  56.4821167  34.8168983  41.8058548  56.4899979  33.8745918
  40.6862984  56.4079475  34.8899002   8.1307344  54.3739624  69.2769547
   8.0031090  53.5217552  69.6937103   8.2468538  54.1716042  68.3486176
  75.8065796  42.4362297  71.0176620  76.2813187  41.6050758  71.0237350
  76.0665207  42.8664932  71.8322372  14.3690224  20.2139282  81.3721619
  14.0115747  19.3789558  81.6742859  14.6222963  20.0512886  80.4635162
  52.9306030  55.0514030   3.2306776  53.2598190  54.6373863   2.4329057
  53.5130157  54.7363663   3.9218915   4.1548924  21.3888664  35.9585648
   3.4531212  20.8913422  35.5387802   4.8409014  20.7422123  36.1242790
  35.7831154  57.1354065  73.1476212  35.3936272  57.5271111  72.3658981
  35.2450485  57.4579391  73.8705978  41.1116447   6.9445529  19.7686424
  41.5834770   6.2533984  20.2333069  41.1241875   7.6891370  20.3700333
  72.5753098  62.8957863  72.1395340  72.5505219  62.1793022  71.5052872
  72.1173630  62.5524483  72.9067535  37.7646294   5.0269866   2.8992724
  36.8967628   5.1123838   3.2939212  37.6004257   5.0315142   1.9562725
   4.2467465  22.3416443   9.3808622   5.0024629  22.5644741   9.9244356
   3.8627031  21.5754509   9.8071127  41.9306717   9.9342384  17.4099121
  41.1033478   9.6133423  17.0510426  42.5116119   9.9986305  16.6518917
  26.7530518   5.4146757   9.0017757  26.5489616   6.3315468   9.1859674
  27.6729660   5.4225206   8.7373333  61.4529152  20.1320438  71.3418198
  62.0395126  20.1365261  72.0982056  60.9317245  20.9291019  71.4381943
  51.5300636  45.2678947  20.2507133  51.8110199  45.4237480  19.3490448
  51.6753693  46.1033745  20.6946640  33.5147095  55.1688156  57.4587631
  33.9836502  55.9055710  57.8505707  33.1398125  55.5246925  56.6531372
  41.9300652  32.7709084   3.1665647  41.0698891  32.4001579   3.3637264
  42.3025284  32.9805870   4.0230327  59.3163872  38.8758202  50.0165520
  59.1170235  38.0223618  49.6317291  59.2432480  39.4906693  49.2865906
  62.4651909  17.7274475  20.0066090  61.9006119  17.2898655  19.3694248
  61.8661880  18.0308723  20.6887836   4.8546715   1.1520000  57.5583534
   3.9909818   0.7518795  57.6592255   4.8607469   1.4856884  56.6612206
  32.8404312  40.1826591   8.2101851  33.1201973  39.2680130   8.2474947
  32.2044983  40.2677765   8.9205170  17.1679058  28.7709045  11.8190947
  17.3481770  28.6765900  10.8837662  16.2130127  28.7503796  11.8822355
  64.4917755  17.5411549  27.4769592  65.3097382  17.8874416  27.1202259
  63.8361435  17.7387524  26.8081264  60.3441658  55.3392296  40.5250778
  60.9041748  55.2781334  41.2989578  59.4524574  55.3065720  40.8715210
  73.4480515  48.5798035  24.2009068  73.5593872  48.4863014  23.2548122
  72.5193863  48.7823563  24.3139324  53.9750900  26.4771652  11.6115408
  54.8448334  26.8694038  11.5345478  54.1444626  25.5539703  11.7993097
  19.2937603  50.4088707  33.7322273  18.6867886  50.2019882  34.4428711
  19.2370567  51.3597336  33.6380005  63.8744812  18.9098663   8.1499758
  63.1499634  19.1422520   7.5691986  63.6348152  18.0519848   8.5004473
  44.7374725  46.8460655  12.8892183  44.1711235  46.8715706  13.6604700
  44.3554077  46.1664658  12.3338747  73.5644073  48.7571945  21.4996433
  73.0891800  48.1651039  20.9167004  74.2353287  49.1533432  20.9436150
  80.8305054  28.7319622  85.2108612  80.2014084  29.4211369  84.9975433
  81.4134750  29.1313038  85.8565369  64.7020569  32.8069344  40.3988800
  64.4673996  33.2462082  41.2163200  65.4387970  32.2425423  40.6331978
   2.0328698  41.4756088  35.6640244   1.2323540  41.3549194  36.1747475
   2.2728455  42.3910484  35.8076019  50.0531807  70.5011749   4.4233294
  50.6087608  70.6955719   5.1781631  50.3100357  69.6180801   4.1579876
  50.9327698  26.9315319  86.7979202  50.3339958  26.7551289  87.5235825
  51.6636696  26.3297215  86.9387894  12.5563726  51.8214569  46.9248543
  11.9300699  51.8444290  46.2013550  12.8894339  52.7170334  46.9818497
  16.4884186  61.3747940  46.4155159  17.0873432  61.7147064  45.7506981
  15.6330948  61.3670883  45.9858704  15.4745197  66.8270798  35.0725021
  15.0852413  66.9472351  34.2063293  15.3290663  67.6615448  35.5183105
  49.4409981   2.4221754  60.8126335  48.6587830   2.7784860  61.2338333
  49.2338142   1.4995538  60.6640511  26.4707031  54.1457100  20.6939144
  27.2271862  53.5600395  20.6630058  26.0902119  54.0919647  19.8172321
  51.8503380  60.6031609  49.5222816  51.9637527  59.6555672  49.5960274
  52.7416878  60.9520416  49.5256233  63.7578583  39.7760735  59.8529243
  64.2047119  38.9432907  60.0046616  64.0569611  40.3415909  60.5649376
  34.6335945  66.5803146  51.4901657  35.1240959  67.3609009  51.2326088
  34.5978508  66.6243515  52.4456825  82.4760742  31.4860630  12.7422018
  83.4160767  31.6586227  12.7955456  82.3959503  30.5452957  12.8995867
  77.5387726  36.0823746  38.0690842  77.9233398  35.5153770  38.7375565
  77.8795242  36.9541245  38.2695045  55.9653015  21.3613720  43.0378799
  55.9540138  20.4052010  42.9949493  55.2695923  21.6361713  42.4406319
  68.7960205  21.7776222  69.5479660  68.0917282  22.2673473  69.9726639
  68.3679810  21.3231030  68.8224182  59.2943153   5.9438787  13.1884031
  59.2221184   6.2487073  14.0928917  58.8134651   5.1163249  13.1754513
  84.5401459  52.0093613  34.3412285  84.3665619  51.0767670  34.2133026
  85.4768448  52.0545273  34.5330353  73.4894485   0.7522765  24.0172024
  72.5688324   0.5020436  24.0952473  73.7150955   1.1065718  24.8773136
  28.0356064  69.0479965  57.4592056  28.4292393  68.5754318  56.7257423
  28.7724667  69.2544327  58.0342293  27.7175808  10.8886900  23.9700527
  27.1975842  10.7746553  24.7655602  27.2501698  11.5596676  23.4725113
  36.3931351  51.0775566  15.3580770  35.4707298  51.2680779  15.5286732
  36.4297752  50.8917847  14.4197922  20.1415291  48.6349716  69.0559082
  20.8265610  49.2509232  68.7959747  19.3231373  49.0805893  68.8370667
   3.8359101  46.6513824  61.9859581   4.4439626  46.9516449  61.3104248
   4.1534772  45.7803421  62.2240143  83.0292053  26.9126606  87.9342194
  82.4216690  26.3344421  87.4729233  82.5152969  27.6975327  88.1242371
  20.3704586  57.3452988  78.9337463  20.6456661  58.1617432  78.5167236
  20.5655594  57.4729271  79.8621216  77.4879837  57.8656502  27.0470905
  77.6735992  57.9040909  26.1088467  78.1706085  57.2969208  27.4031849
  41.8680382  61.8562889  20.4899597  42.6339149  61.9039955  21.0621395
  42.1541862  62.2634773  19.6723118  45.6000137  57.7098427  42.5494652
  46.1352386  58.4433174  42.2465134  45.3584442  57.9437141  43.4456711
  61.5029335  41.7763824  83.1018753  60.8318787  41.1587944  83.3925629
  62.2683678  41.2308044  82.9210739  77.5186081  54.9367180  40.1380043
  78.1059875  54.4264297  39.5804939  78.0903244  55.5700760  40.5718613
  70.8011856  44.5099373  87.0456848  71.1268616  43.8967857  87.7046356
  69.9422684  44.7782936  87.3719864  25.5861473  40.0295067   8.6549673
  24.8647499  39.8802109   8.0437975  25.4172554  40.8993759   9.0169506
  28.8536606  55.1974869  67.4997330  28.4658813  55.9780121  67.8955154
  29.3586559  54.7960739  68.2069016  51.0520515  45.5328941  67.2387924
  51.0069847  44.5792961  67.3084412  50.3056641  45.7683334  66.6877060
  48.7673912  38.7869720  54.7676010  48.6193886  38.7361488  53.8232803
  49.5141106  38.2090073  54.9244499   5.7874389  18.1682739  69.9711990
   6.2432160  18.7630157  69.3755646   5.1379948  17.7298813  69.4214172
  42.9044189  60.3455353  42.4669571  42.4260559  60.5770569  43.2630730
  43.7767410  60.0994186  42.7747078  82.0329285   9.3157978  27.1647835
  82.0257568   8.4314337  27.5309525  81.2852325   9.7507915  27.5746098
  40.7046013   7.9992208  64.9436340  41.0109367   8.1474981  65.8382874
  41.2557907   8.5665636  64.4046173  59.4595222  10.6244955  37.7245903
  59.7736588   9.8436499  38.1804695  59.9525681  10.6375122  36.9042435
   7.0728092  30.4397526  55.8367882   6.6227231  30.5367813  54.9975967
   7.9327383  30.0870419  55.6079903  27.3452568  10.6319847  86.1240616
  27.0435848  10.8522358  87.0053787  26.6675949  10.9805775  85.5448532
   4.7904344  38.8771782  74.7196884   5.3030705  39.6796989  74.8166122
   4.2082701  38.8716125  75.4794769  80.8714676  71.8624344  75.6551971
  80.8309937  70.9067230  75.6899109  79.9780273  72.1324387  75.4428101
  67.4742508  48.6966400   6.8103714  67.3603210  48.5712395   7.7524581
  67.7270279  47.8335266   6.4826994  59.9809151  24.2328472  83.8344803
  59.8395882  24.7578888  84.6222534  60.9254379  24.2747612  83.6849670
  63.5962296  22.2692127  35.4139366  63.7009583  22.7717953  36.2218208
  62.7175674  21.8947716  35.4770012  43.1324234  58.2228928   3.1013443
  43.7029419  58.8214684   3.5834773  42.2901649  58.6758156   3.0601864
  28.6097507  58.8806343  88.9342422  27.7253399  58.5284309  89.0342484
  28.4797115  59.8188057  88.7958298   3.3717256  53.1507835  40.2421150
   2.8035312  52.5451508  40.7181396   2.8856804  53.9752998  40.2293549
  53.9906540   0.3300045  18.2408352  54.3621559  -0.5123994  18.5026970
  53.0445595   0.1846244  18.2398758  37.6222229   8.8400803  75.3367310
  36.8128662   8.4302559  75.6420517  37.3312492   9.6095839  74.8474121
  29.3278008  70.8987122  59.3988380  29.2226315  71.8496399  59.3685837
  30.1348839  70.7313995  58.9121628  64.3080673  36.8120041  36.8667145
  64.8355560  37.4538078  37.3421822  63.6068764  37.3269043  36.4674072
  62.9225006  48.7881584   0.5083554  62.0733871  49.1926651   0.3305596
  62.7628250  48.2161827   1.2590767  47.2713547  42.8699760  80.8837509
  46.7553902  43.2951508  81.5687637  47.2003632  43.4571533  80.1311493
  71.1311264  71.4278183  84.8542862  72.0312119  71.1596832  85.0391769
  70.7209396  71.5001450  85.7161102   7.4910479  56.7478065  65.7189178
   7.1697216  56.1507149  65.0432968   7.9135728  57.4553452  65.2320023
  27.0186825  41.5845108  83.1947250  27.9189186  41.2617760  83.1541290
  26.5380363  41.0316696  82.5786285  61.6171150  41.0425453  35.9451637
  61.6427422  41.0237923  36.9018402  60.7111549  40.8252068  35.7255325
  72.5771637  49.6027489  18.6132050  73.3020935  50.0888557  18.2202549
  71.8806534  49.6399231  17.9576721  43.5489807  52.6052666  77.1979141
  44.0163574  52.2126274  76.4606018  42.6257172  52.4278564  77.0180817
  28.4456978  19.0465584  77.4760666  28.3138847  18.6729755  78.3474426
  28.6114998  18.2899570  76.9136658  12.2534208  28.1618252  19.5709782
  12.4652824  28.3774853  18.6627731  12.7752352  28.7735100  20.0903854
  45.5376320  29.8600597  80.9334641  44.8973656  29.8758392  80.2220993
  45.0595055  29.4949360  81.6779861  50.9083748  60.3075523  19.7295094
  51.0309029  59.4427147  19.3380051  50.9339294  60.1490860  20.6731548
  12.3016481  43.8012276  52.2354431  12.1975803  42.9753609  52.7080383
  11.5700760  43.8179131  51.6183891  72.0327072  20.2711887  85.3244781
  71.9569626  20.7555389  86.1466064  72.0911026  19.3538303  85.5914459
  86.5197601  58.3089333  23.1290054  86.0448303  58.1422119  23.9431782
  87.4026260  57.9782829  23.2947083  75.6015472   8.0762119  33.4971123
  75.1037903   8.0482807  32.6799850  74.9443283   8.2449903  34.1722527
  32.6335258  44.7917519   7.4632912  33.3009605  44.4059105   8.0306425
  32.2784538  44.0504417   6.9727654  34.2598038  20.2329674  12.0071554
  33.8194313  19.3831596  12.0184860  35.0911331  20.0779305  12.4555836
  28.4328365  67.7702713  77.1810989  28.2143059  68.4865570  77.7772598
  28.8205299  68.2020569  76.4198532  61.2973137   8.8804998  13.8679113
  60.6035767   9.5338774  13.7781305  61.3194122   8.4365892  13.0201578
  21.6060066  60.2971382  68.1020203  22.2903118  59.7449493  68.4802322
  21.8021927  60.3138542  67.1652908  29.6290855   2.2261512  60.6887779
  28.9183731   2.2053947  60.0479317  29.1919136   2.3795257  61.5263901
  34.1820488  15.1498508  83.3636017  34.1655922  14.8935776  84.2857132
  35.0939484  15.3889093  83.1976929  42.8250656  17.1071835  62.8435097
  42.9642105  16.6361427  63.6650887  42.0447311  16.7025261  62.4646149
  10.6867104  14.2322989  12.3486423  11.4708824  14.6043730  11.9450750
  10.4495115  13.4995556  11.7802629  60.6396523   4.9836321  54.6047478
  60.6473618   5.7010484  53.9711189  61.2392616   5.2671704  55.2948952
  57.3370476  15.0265703  36.4210396  56.7851334  14.7193708  35.7018394
  57.1461525  15.9622450  36.4866409  59.4825783  10.7012806  56.7314644
  59.7915154  10.6289892  55.8283768  58.6883545  10.1675949  56.7563515
  25.4538059  53.5368538  65.0551682  26.1430092  53.4618073  64.3951721
  24.6510162  53.6644287  64.5497131  10.1779165   6.9177027  81.0002975
   9.2816029   6.5902524  81.0753403  10.0938702   7.7355719  80.5101395
  33.2391891  44.0471458  13.7214260  32.7464104  43.5161247  14.3470631
  33.6216774  43.4113998  13.1166449  24.3118687  17.0322418  58.0505638
  24.6007233  16.6427670  57.2252731  23.3753052  17.1869812  57.9275322
   5.7131920  18.5650387  82.7991486   6.6493416  18.7407856  82.8938522
   5.2856731  19.3241024  83.1957321  76.1520386  18.6943855   6.8046532
  75.8094864  18.9766254   5.9565768  77.0084229  18.3170624   6.6035061
  82.3786469  33.9076118  15.8351851  82.1990738  33.7468376  16.7615414
  82.9105453  33.1604729  15.5611362  48.7551041  21.1360836  63.1343727
  48.8627357  20.1892719  63.2248993  49.2770042  21.3639946  62.3650169
  63.6731300  20.4172649  19.7361736  63.1689186  21.0651379  20.2283783
  63.1854973  19.6008682  19.8454609  74.5802536  33.4482651  55.1234512
  75.4403458  33.3447990  55.5305939  74.0808182  33.9733200  55.7488441
  37.4730415  36.8070984  54.5605736  37.6190376  36.7974358  53.6146240
  36.6813469  37.3327141  54.6753731  86.3142776  19.6264153  71.2046585
  86.1938858  19.7478065  70.2628555  85.4251328  19.5665607  71.5540390
  51.8824272  40.4186707  57.5772285  51.1836853  40.2356796  58.2053299
  51.4246559  40.6090050  56.7584190   6.3225546  62.5226898  39.9577713
   5.7482429  61.9144821  40.4230461   6.2049451  62.3035851  39.0334396
  46.9332314  60.0470428  41.7211151  47.8866768  59.9833984  41.7769661
  46.7763786  60.7060165  41.0448151  79.3904648  58.1622505   0.5675647
  78.7537231  58.3728409   1.2505255  80.1718216  57.8848839   1.0458847
  58.6680794  68.1242599  21.3646317  58.3445892  67.2337265  21.2285004
  58.3244286  68.3754807  22.2219677  51.0843430   2.2680929  19.2461796
  51.4792862   1.7745397  19.9649677  50.3925858   1.6957519  18.9143200
  12.6999302  40.7529907  17.7367802  11.7611179  40.5846519  17.8175716
  12.9273424  40.4284477  16.8654652  55.0751801  53.9789200   1.7269562
  55.3844337  53.3211060   2.3497488  55.6835632  54.7107315   1.8297030
  59.9546547  12.7162628  30.3895855  59.7349014  13.5241642  29.9256516
  60.4178581  13.0091467  31.1743774  65.4385300  55.0209846  58.2536240
  65.7224121  54.5371170  59.0291977  65.2880478  55.9121017  58.5690536
  83.2276077  41.7507439  51.1613617  83.0028534  42.6234627  51.4839745
  82.4867554  41.2020569  51.4188843  72.0774002  41.4676857  60.0943642
  71.5159760  40.9971848  59.4781952  71.4696503  41.8557587  60.7238617
  71.0918655   6.4271698   2.5871921  70.4430847   5.7286205   2.6728716
  70.9929276   6.7368250   1.6868823  80.5407104  22.2441463  22.0674229
  80.4243469  21.7030773  21.2864399  79.7232590  22.7365894  22.1416149
  50.9045677   9.9365044  40.4448509  50.9297447   9.3460274  41.1977997
  49.9721794  10.0890055  40.2911415  66.5677185  65.5070877  65.1116714
  66.9037781  65.5831146  64.2186356  65.9656448  64.7636948  65.0785446
  51.9817619  55.3164520  45.4635696  51.3214760  55.0780144  44.8128738
  51.7530785  54.8008041  46.2369041  27.2593651  34.2573547  74.8489456
  26.9592609  34.6250381  75.6801987  28.1015186  33.8523788  75.0563202
  18.8808212  61.4154816   0.2440527  19.5421047  61.9200020  -0.2296520
  18.0509663  61.8342590   0.0155804  58.3374557   2.0196443  69.8495026
  57.8829002   2.8398991  70.0413132  57.6871872   1.4868129  69.3918228
  65.5233536  30.9630318  65.8377457  65.4134445  30.0881042  66.2101059
  65.1059113  31.5469952  66.4709549  29.5108528  51.0254059  13.7269382
  28.7854767  51.2337074  13.1381502  29.7250004  51.8583374  14.1471691
  30.3989010  54.4061661  44.4294548  30.3895397  54.4089317  43.4723053
  30.0593510  55.2668381  44.6747818  33.1831131  70.5993881  59.9711266
  32.8113976  71.2323074  60.5855103  32.4500237  70.0275421  59.7435265
  32.1289558  39.6875954  55.5444946  32.5830994  39.2711945  54.8119698
  31.2009163  39.5277100  55.3729973  61.6115341  32.5063057  35.1811714
  62.2750626  33.1712151  34.9971581  61.0326385  32.5283203  34.4191818
  64.8727493  10.7213097  26.8603764  64.1896820  10.0595980  26.7518158
  64.5398026  11.2987661  27.5473423  17.1536846  33.3412132  79.5980301
  17.5313301  33.1037827  78.7511292  17.9005356  33.6360474  80.1191101
  60.3182793  51.2573090  31.0181751  59.6475792  50.8246269  30.4897995
  59.8963547  51.4083023  31.8639965   9.0666704  48.9063530  28.7422638
   9.3721542  49.7330894  29.1156502   9.1819029  49.0129204  27.7980213
  25.8541851  63.2226181  69.8824539  25.2592182  63.6991425  69.3035126
  25.2845936  62.8437843  70.5519943  38.4813805   7.1657457   4.5938859
  38.8568840   7.5235395   3.7893901  37.8844070   6.4797473   4.2951260
  13.0960188   8.8698549  64.6613541  13.9055471   8.5427227  65.0536270
  13.3149624   9.7517977  64.3605728  48.1583672  37.9440155  64.4519958
  48.1792412  37.6037292  65.3464279  48.8948059  37.5157585  64.0155563
  12.8617620  45.6509399   3.5373659  13.5118542  45.9455223   4.1752005
  12.1803789  45.2341957   4.0648808  51.7645950  35.8516998  57.2939835
  52.6233940  35.8500328  56.8712616  51.4150314  34.9759064  57.1296158
  66.2597351  16.5628052  65.1703491  66.7727661  17.3604641  65.2998505
  66.8841553  15.8510056  65.3106155  10.9454460  43.3309555  60.5691795
  11.4438534  43.9652405  60.0539131  11.5567217  42.6093674  60.7171249
  63.2506447  21.6934719  11.3343124  62.4721718  22.0877838  11.7276726
  62.9135666  21.1764431  10.6026773  34.2347145  45.0617409  57.1591682
  33.4126740  45.4785690  57.4174995  34.5631218  45.6039047  56.4419250
  78.9912186  44.4951134  85.6941757  79.0763092  45.1326180  84.9852448
  79.1417465  43.6482811  85.2741241  26.9015255  35.9544754  66.3993683
  26.8743343  35.8242188  67.3472748  27.3779411  36.7766571  66.2841568
  75.4160309   6.9732485   2.1973526  74.6783066   7.5111103   2.4849329
  75.1342316   6.0731673   2.3606808  70.7425766  50.7357140  44.0676918
  71.3924484  50.1229706  44.4118462  70.8890381  50.7339096  43.1217651
  86.3997116  44.6984024  67.2961578  85.7208099  44.8924446  66.6498871
  85.9290543  44.2898712  68.0226669  38.8614082  47.1035881   2.2221880
  38.7199669  46.8276749   1.3165953  38.5256500  47.9993706   2.2548637
  51.6241074  28.9776649   0.8081063  50.7063141  28.7100677   0.7603227
  51.8106117  29.3487244  -0.0543101  52.0407219   0.9676007  12.3223982
  52.3591499   0.7859241  11.4381886  51.3954849   1.6649965  12.2060213
  85.6146240  41.0660019  82.7995224  85.6580048  40.2687263  83.3274460
  86.3186340  41.6176567  83.1405106  58.6028252  55.3508720  36.3432503
  59.2578583  54.7230988  36.0381813  59.1001854  55.9826508  36.8625946
  65.7874908  55.9513016  46.4622383  64.8335037  55.9114113  46.3948479
  66.0403748  55.0898857  46.7942696   2.7017827  62.4167252  64.4050446
   2.9964719  61.6114311  63.9797325   3.1281266  62.4048500  65.2619705
  73.5784378  10.8289413  33.1863174  73.5433731  10.0560303  33.7498856
  73.2472000  10.5245295  32.3414192  26.3244781  43.7192078  19.6271229
  26.1810989  43.4365921  20.5303402  25.4485149  43.9182854  19.2965336
  24.6718369  21.3737717  53.8773689  24.3851528  21.5608044  54.7712746
  23.8788967  21.0817699  53.4276886  83.9307175  56.2240143  37.3755646
  82.9931793  56.0843849  37.5087929  84.0232391  56.3427925  36.4302788
  27.2662735  38.2440987  61.4722633  27.4753284  39.1653900  61.6263618
  27.5787468  38.0729485  60.5838356   7.5559235  51.9106064  27.7087936
   8.0452557  52.6727066  28.0186138   7.3180723  51.4381714  28.5065804
  54.3670769  35.9516449  39.9986534  53.6300621  35.4115181  40.2837944
  54.1290016  36.8403664  40.2627144  10.7461500  71.4543457  41.2086563
  10.3362999  71.1782990  40.3888664  10.8213091  70.6497269  41.7216682
   2.7093749  56.3258514   9.8096857   3.5684114  56.6618500  10.0654078
   2.6154757  56.5819054   8.8921614  13.3908195  62.0035973   5.2700672
  14.2159939  61.5185661   5.2621574  12.8051567  61.4889488   4.7147579
  24.3341999   8.8386374   5.3187151  23.6947689   8.4551268   5.9189477
  24.4112930   9.7499599   5.6011682  48.4502754  23.7085133   5.8720613
  48.7616005  23.1949596   6.6174283  48.5480423  24.6189556   6.1509352
  45.3215981  39.9833031   2.7455788  44.5726471  40.2791634   3.2630441
  46.0497971  40.5274239   3.0453906  30.8857918  49.6334839   2.6016378
  30.8640289  50.5902519   2.5828054  31.8055744  49.4178162   2.7556493
  86.6765289  65.6502838  49.4014397  87.2110519  65.3835297  50.1493416
  86.1839981  66.4079056  49.7171364  22.3923321  67.3301392   6.2657695
  22.4413681  67.3999557   7.2191601  23.2852077  67.1163483   5.9950318
  26.6875076  53.1631088  17.7148781  26.7890663  52.2384109  17.4893875
  27.4135208  53.5994835  17.2691021  17.4822521   3.9317973  63.0431480
  18.4356480   3.8541179  63.0782509  17.3128071   4.8642378  63.1775894
  33.3179970  16.6646900   7.3252106  33.8548965  16.4812908   8.0961418
  32.6556892  17.2819710   7.6359272   0.5494428   7.5889649  70.9712524
   0.4114766   8.3298969  70.3811493   0.7259156   7.9901390  71.8222198
  38.9744797  67.7908325  27.6059875  39.3880501  67.8916473  26.7486496
  38.0625038  67.5775604  27.4083920  34.3941269  13.6435385  60.4761467
  35.3236885  13.4152136  60.4728241  34.3823853  14.6002445  60.4477310
  65.6797867  28.4142303  66.7926865  64.8511887  27.9377918  66.7410965
  66.1813736  28.1047535  66.0384598  77.5165710  34.3742485  80.0615311
  78.4486618  34.2031174  79.9268112  77.2322159  33.6890068  80.6663666
  16.5737820  48.5812073   9.1992044  15.7177343  48.9917107   9.0771475
  16.9545460  49.0394974   9.9483509   1.9295567  65.8478241  16.8806934
   1.6116194  65.2805405  17.5830765   2.8322389  65.5649643  16.7344437
  72.9004745  32.3387718  51.1119728  72.6620789  32.5889740  50.2193375
  72.0627136  32.1987457  51.5533028  86.3432159  65.9498978  38.8326454
  85.7180939  66.3743820  38.2450562  85.8661041  65.8469696  39.6560516
   5.3324318  33.6464615  44.3367920   5.5637102  32.7298737  44.1864395
   4.4178081  33.6197052  44.6178246  34.0142899  63.9835777  22.6224651
  33.9086952  64.2842331  21.7198639  33.1292953  63.7492599  22.9019489
  80.4125824  71.2008286  45.8238983  79.7945786  70.6562042  45.3363762
  81.1040726  71.4016724  45.1932297  18.4083042  51.5840225  38.8148117
  17.6286507  51.1307220  39.1355782  18.4899807  52.3507004  39.3820572
  14.4329624  38.4928513  20.6503239  15.0765905  38.3463287  21.3435097
  14.3031769  39.4411621  20.6405430  31.9453945  15.9662886  85.9677658
  31.7452145  16.4858265  86.7463760  31.8508282  15.0581102  86.2549896
  11.9002924  60.9487114  57.7802162  11.3431339  61.6547623  58.1077805
  12.7717304  61.3399963  57.7191696  71.9830322  45.8486595  62.9551430
  72.8018646  46.3429756  62.9177628  72.0738831  45.2929153  63.7291756
  15.0851040   8.3161850  53.0579185  15.8316059   8.5907660  52.5254021
  15.4165897   7.5815773  53.5743484  18.0936337  33.4286766   1.8502465
  17.5856590  34.0999832   2.3058105  18.6377544  33.9177551   1.2330230
  65.4162903  35.4561272  65.6862869  65.3568344  35.8323097  66.5644531
  64.5413437  35.1076088  65.5152817  66.6553192  30.2774830  31.5675774
  67.0059204  30.1169891  32.4436760  65.7319031  30.4832783  31.7131329
  27.9345074  65.5381012  53.7096558  27.8930302  66.0036697  52.8743362
  28.0254898  66.2297440  54.3650818  32.1530647  65.9115067  37.1074791
  32.8209686  65.2370071  37.2307358  31.8096848  66.0719986  37.9864349
  14.7416162  34.9162025  18.7774944  14.9781933  35.0862770  19.6892719
  14.5371990  35.7794838  18.4180603  15.2062006  70.2016296  75.7073822
  14.6787119  69.4704514  75.3858719  15.6214848  70.5604324  74.9231415
  50.6652985  27.1016865  22.3309174  49.7780418  26.9134617  22.6368294
  51.0880241  27.5335197  23.0732460  16.0130310  41.9628754  11.7044773
  16.4088345  41.4139442  11.0275383  15.1235008  42.1259308  11.3908234
  35.8593826  39.9438515  11.7397413  35.8162651  39.4967613  12.5850134
  36.6782036  40.4385490  11.7719450  46.2421837  15.5451393  69.9388885
  45.7556496  14.7214251  69.9070969  45.8445091  16.0304585  70.6617661
  77.5502472  43.2251930  49.5884056  77.7772598  43.9246101  50.2011986
  76.6166458  43.3498497  49.4178619  56.2424850  63.4565353  19.2697220
  55.8680916  63.1307755  20.0882225  56.0592270  62.7671623  18.6314335
  25.9032669  46.7254295  68.5739059  26.2761326  45.9742851  68.1124039
  26.1413898  47.4798889  68.0350952  70.9502106  13.2263784  52.4665184
  71.1564713  14.1559067  52.5648232  70.7343216  12.9339905  53.3520317
  73.3024673  28.5901871  28.3180542  72.6806335  27.8885498  28.1250095
  74.0330505  28.4341011  27.7196274  76.1742783  32.4726067  89.2606659
  75.4743271  32.9324837  89.7241516  75.9712296  32.5991211  88.3338470
   2.1019390  39.5403137  89.3432236   1.8666693  40.3860550  88.9616470
   2.9931755  39.3777351  89.0341949  33.3398018  65.2910080   5.1698217
  34.0389519  65.8266449   4.7949800  33.7223816  64.9200745   5.9649792
  11.6116495  49.9878464  59.1455078  12.1023540  49.2052612  59.3965073
  10.7909403  49.6509285  58.7861328  15.7327642  47.6867828  26.4254894
  15.5536709  47.7845192  27.3606930  15.0065174  48.1371040  25.9942036
  59.2203140  44.5063477  16.0833015  58.4471931  45.0462646  15.9189768
  58.8785477  43.7241821  16.5164833  45.1809425  44.4497147  56.2267990
  45.5063705  43.5737457  56.4341850  45.3042450  44.5333900  55.2812691
  54.0512543  67.1941986  58.4505081  53.8864326  66.3730240  58.9138985
  54.8206558  67.0141144  57.9103012  11.8421183  64.0854340  51.0640030
  12.2618732  63.3747139  50.5793266  12.5616140  64.5218658  51.5201645
  73.0170135  38.0899315  19.9332218  72.2150345  37.5723686  19.8611813
  72.7241364  38.9415932  20.2574482  67.0157242  70.7192688  39.9575920
  66.5365448  70.1325150  39.3724899  66.8204956  71.5969162  39.6291771
  31.8007088  63.4715614   3.6474392  32.4890022  64.0061035   4.0433478
  31.6159973  63.8996658   2.8114736  58.6653633  41.0686150  51.8368835
  58.6056595  41.7538490  51.1712074  58.8494225  40.2698669  51.3425636
  84.0277786  37.0726967  84.6821976  83.7221680  36.3330231  84.1571121
  84.2876587  36.6827583  85.5168533  18.1610050  43.6233673  12.4093552
  17.5830421  44.3152695  12.7310143  17.6576328  43.1927605  11.7183952
  36.6889267  46.7175674  22.8319283  37.3378868  47.1352043  23.3982010
  35.8728218  46.7611046  23.3302326  56.4441376  61.0325317  58.5135384
  57.0039749  61.0121651  57.7373924  57.0517120  61.1478539  59.2441444
  12.7754917  58.0521889  73.8069000  13.1998415  58.7064705  73.2518616
  11.9975119  58.4944839  74.1465378   1.7270634   3.5278978   4.1290908
   2.0437241   3.7814119   4.9960904   1.2276098   4.2859030   3.8254364
  37.8503799  63.4313736  22.4698620  38.4845848  62.7475510  22.2544613
  37.7569847  63.9347763  21.6611004   6.7713418  26.4416275   8.2352505
   5.9544053  26.0099716   7.9852095   6.4938130  27.2022209   8.7458458
  18.1181660   3.0448658  38.8980522  17.3975658   2.7809098  39.4701500
  18.7307987   3.4974387  39.4777870  76.9018097  39.7860260  42.6077614
  76.3194809  39.3736267  41.9697571  77.4612579  39.0735512  42.9170036
  40.1790161  57.6567688  15.1694326  40.4558830  57.9925919  16.0219574
  39.3356133  57.2373238  15.3396435  72.4159241  62.0458946  26.4126186
  71.9334869  61.4180679  26.9505043  73.1536865  61.5454750  26.0640144
  39.4585190  53.9845200  16.9770947  39.1250038  53.3520355  17.6134586
  39.6306381  54.7734261  17.4911308  14.0625696  40.8417358  66.0932999
  14.9840851  41.0889893  66.1701584  14.0738306  39.8855133  66.0515518
  43.7436600  27.3965359  72.8376236  44.6245117  27.6180325  72.5355072
  43.8390045  27.2698822  73.7816010  57.0380859  27.2814140  54.5831261
  57.8539314  27.3056278  54.0830917  56.4082947  27.7516937  54.0368385
  83.5574341  70.5371475  30.8233013  84.0168228  70.7668076  30.0155582
  82.7658310  71.0751266  30.8098812  36.6212692  57.9195786  49.7316322
  36.9468918  58.8174477  49.6681099  36.7030716  57.5717506  48.8436241
  60.7789001  39.4695969  41.0962257  60.9702072  38.6740074  41.5928879
  59.8652267  39.3709068  40.8284645  81.2569656  11.7536697  24.9294624
  81.3137665  11.0596056  25.5861835  81.1084290  12.5517397  25.4366627
  38.6380730  49.7682266   5.6160598  39.1953354  49.2024803   5.0816250
  39.1701126  50.5480537   5.7742858  58.6991844  58.8361702  78.8228683
  59.6005287  58.7103043  79.1194687  58.6242752  58.2851868  78.0437393
  67.8303223  61.0145798  47.1192818  66.8938751  61.0616798  46.9267159
  68.0725021  60.1121597  46.9113960  64.4419632  27.2713146  62.9190750
  64.7375946  26.3809166  62.7292671  65.1642075  27.8298683  62.6316376
  82.7674637  28.1483650  46.9386826  82.9158249  27.2653980  46.6001701
  81.8758850  28.1249599  47.2862167  16.2147408  37.6514435  83.3873978
  15.4108324  38.1006966  83.1263733  15.9130020  36.8779488  83.8637314
  68.8180389  57.8097305  71.6290359  68.5749435  58.6961937  71.3619766
  69.4377365  57.5194206  70.9597626  59.9884720  67.7746201  88.5466003
  60.4581566  68.0519943  89.3331757  60.6291237  67.2624054  88.0532150
  17.9479866  26.0142136   2.3279490  17.0909004  25.7349167   2.6498654
  17.8116398  26.9149895   2.0342760  57.0942993  48.0342484  79.1257629
  57.5532150  48.7613411  79.5464325  57.4000587  48.0506477  78.2188568
  36.4913368  33.6511803  86.4499435  35.7713890  33.4070015  85.8683243
  36.0926552  34.2405777  87.0901718  64.8885422  44.7819748  46.7102432
  63.9408951  44.6474037  46.7007523  65.0690765  45.2709160  45.9073906
  72.8810196   0.8108189  63.1697578  73.7450562   1.0958185  62.8723679
  73.0628204   0.1195507  63.8064117  10.0528870  69.4407120   9.0830822
  10.1553402  69.3008804  10.0244541   9.2321205  68.9999084   8.8633909
  13.8360996  65.1196213  52.7722931  14.1475677  65.8928680  53.2427254
  13.4857006  64.5484314  53.4558105   5.8257790  16.8834572  86.9972382
   5.5209084  16.2642612  86.3339996   6.1067142  16.3326893  87.7279663
  64.5881958  20.9348125  39.4706001  63.8019142  21.3907890  39.7707138
  64.2828674  20.3757668  38.7561226  27.5255394  30.9728355  74.6809769
  27.7143841  31.9084320  74.6086731  27.5107613  30.6608524  73.7761688
  24.5747471  34.4210281   7.9008842  23.9512157  33.6954079   7.9312119
  24.6356735  34.7225113   8.8073206  64.3430099   9.8534155   8.1534986
  64.2339706   9.2784872   8.9109955  63.7912292  10.6113424   8.3466749
  29.9912663  66.4485321  18.0855560  29.0835514  66.5135117  18.3823109
  30.1730099  67.2977219  17.6829720  31.0525723  31.3789959  13.6055079
  31.8184872  31.7325935  14.0578089  31.3245659  30.5068302  13.3198853
  77.6059570   6.5341744   9.6810436  77.8347702   5.9712625  10.4206429
  77.4721527   7.3983908  10.0702190  80.7592850  14.4813261  85.7134323
  79.8430023  14.7359972  85.6047592  81.0246735  14.8879519  86.5383301
  32.6203957   5.8901658  16.3838921  31.8317261   5.4507909  16.7019825
  33.2718697   5.1923170  16.3144817  56.2861061  17.8526611  56.3446121
  56.0496368  17.5558052  55.4658661  55.4511528  18.0816593  56.7528305
  26.1354427   1.1407222  31.3412075  26.9561539   1.6174611  31.4652462
  25.6554966   1.6549679  30.6920261  49.9069138  32.1995964   9.1630993
  49.1413460  32.7678795   9.2479124  50.5853195  32.6327744   9.6811266
  80.5041656  46.7228737  31.1204453  80.7328262  45.8237457  30.8848267
  79.6651764  46.8781738  30.6866245  81.9765015  66.5601501  15.8044806
  81.4085312  65.9166641  16.2282276  81.7855072  66.4701996  14.8708515
  17.4730988  48.2224426  82.4348755  17.9110184  48.9027710  82.9463501
  17.0203896  48.6996574  81.7394943  82.6137695   6.5913410  78.2172165
  82.1721420   5.8901668  77.7381058  82.8996506   6.1806722  79.0332184
  40.6446304  70.5274200  10.3372440  40.7016068  71.4786377  10.4276457
  40.3483925  70.2226334  11.1949053  48.9486885   7.8426032  20.0528870
  48.3450356   7.4416537  20.6782475  48.4379311   7.9277372  19.2478352
  61.9020119  34.3693619  21.7044868  61.3479691  33.8228531  21.1471729
  62.3000298  34.9986992  21.1030369  19.0288544  30.1621380  67.7550735
  18.7258854  30.3384876  68.6457672  19.7130909  30.8136349  67.6014252
  26.2208443  54.9656334  84.2328568  26.4473915  54.4675636  85.0182495
  27.0453339  55.3661537  83.9571228  66.8939743   6.4622030  50.5356064
  66.9772797   7.0832930  49.8120461  67.2532043   6.9260254  51.2919502
  76.0484085   9.3232460  27.0447407  76.0635834   8.5473900  26.4843407
  76.3614426   9.0115147  27.8938980  13.0148535  71.1298599  76.7275925
  12.4467926  70.9822388  75.9714584  13.8989954  70.9690094  76.3979721
  56.1551552  28.3661137  11.0411415  56.3206902  29.1788063  11.5190134
  57.0265198  28.0259533  10.8380489  57.7861710   9.3881521  19.2560577
  57.2588539   9.3694973  18.4574223  57.5217400  10.1945114  19.6988831
  22.0129738  67.2821121  48.2420349  21.5650139  66.4953918  47.9311752
  22.2357788  67.0869980  49.1522675  15.5587454  65.1000290   4.4912400
  15.7608147  65.6088791   5.2764006  14.8954763  65.6175003   4.0345869
  19.6592827  29.9358196  62.0964203  19.7899818  30.8692341  62.2634087
  20.2098198  29.4970856  62.7449989  50.8424110  49.7761116  20.9831200
  51.3049812  48.9612236  21.1786003  51.5314255  50.3844872  20.7159691
  16.2227058   1.8427657  79.8830643  15.4875250   1.2396744  79.9927063
  16.9878101   1.3415257  80.1652069  63.8957901  45.3342896  41.4557381
  64.5641403  45.7823753  41.9741554  63.6472321  45.9698906  40.7845764
   6.9905224  46.8270874  21.8952599   7.2057900  47.7460289  22.0547581
   6.6934443  46.4998283  22.7443066  42.2585411  54.6060410  25.0788956
  43.2106133  54.5384102  25.0066948  41.9295769  53.8093567  24.6625900
  29.4884529  68.5512695  29.9875031  30.3938751  68.8236084  29.8382702
  29.5341148  67.9761963  30.7513313  58.2441826  56.0062408  69.6830750
  59.0152397  55.6028748  69.2843323  57.6334534  55.2804260  69.8112793
  70.0487900  11.8314505  16.4691048  69.7341919  11.0750170  15.9740610
  69.4205246  12.5257740  16.2705421  72.1914749   4.8797116  22.0490952
  72.2413025   3.9239497  22.0654640  72.4087830   5.1154666  21.1471920
   0.6014940  43.7501183   2.9553752   1.0100969  42.8987656   2.7989368
   0.2840451  43.7013588   3.8570850  61.5478249   8.3244896  86.8684998
  60.7701073   8.1488218  87.3981476  62.1877327   7.6749768  87.1598434
  23.8992691  43.9362831  41.7698708  24.3919926  43.1266937  41.6356430
  23.0128536  43.7290459  41.4739799  33.8156891  58.0061913  75.0264053
  33.7171326  57.8171120  75.9595566  33.1630325  58.6835480  74.8490448
   9.8954248  33.4052238  81.1922455  10.7656393  33.0203896  81.2964554
   9.3208141  32.6573410  81.0287628  48.9339027  57.6680946   9.2978058
  48.9573784  57.2792969   8.4234409  48.0641327  57.4508400   9.6332626
  54.6496429   7.6765575   3.2158017  54.9555588   8.5703411   3.3700640
  55.3720245   7.1219487   3.5104208  27.4446831  27.9879608   7.3089914
  28.3629055  27.7215557   7.2628598  27.1245251  27.9005089   6.4111705
  69.8013382   8.5198460   4.4328756  69.1039200   8.0985098   4.9351931
  69.7935028   8.0698032   3.5881083  21.9614048  43.7724228  68.4345245
  21.7994385  42.8596878  68.6731033  21.9928207  43.7679634  67.4778519
  30.4230099  66.1379776  63.9028664  30.7924023  66.3910675  64.7488708
  29.5348186  66.4946899  63.9129715  15.6977911  70.2873001  67.9975586
  15.6703920  70.2371216  68.9530487  15.7735815  69.3768463  67.7119827
  74.2345657  54.3428230  48.5669403  74.5547638  54.2451515  47.6701889
  74.0888824  53.4460411  48.8682556  58.2739830  29.4842262  31.5084705
  57.3542480  29.5224686  31.7708759  58.5277367  30.3996429  31.3907776
  84.9343872  25.9722710  43.5372887  84.8805771  25.0869312  43.1774139
  85.4221497  26.4687042  42.8801193  72.5386353  40.8056335  71.5123062
  73.0168991  40.5869255  72.3120956  72.0549774  41.6017418  71.7325821
  28.1222534  69.0267105   7.2832384  27.3919640  69.3016586   6.7288809
  28.2923336  69.7813416   7.8470154   4.3087311  23.8134232  70.9320755
   4.2908082  22.8642120  70.8099594   4.7096863  23.9366951  71.7924652
   0.1542415   7.7668543  28.0221138   0.2723441   7.0169945  28.6052036
   1.0132239   8.1884680  27.9971466   5.5318308  51.0364037  81.6148148
   6.0231428  50.7837067  82.3964767   4.9049640  51.6891556  81.9265518
  54.5249825  22.5734978  49.6184578  54.7047348  22.3852310  48.6973305
  55.3241768  22.3132572  50.0764961   8.0060711  47.4741859  77.4511185
   7.2008467  47.7157059  76.9933929   8.6457453  47.3343658  76.7529068
  79.9235916  41.1266212  26.0719795  80.8516464  41.1559677  26.3045521
  79.4895782  40.7985229  26.8595142  68.0079346  56.7346077  56.6757927
  68.7778015  56.7472458  56.1071320  67.2688141  56.8624001  56.0811462
  43.3513451  26.4670391   7.5896893  42.8186722  26.1803799   8.3315229
  44.1620674  25.9642963   7.6685109  58.1775513  44.8238564  21.1870785
  58.6006279  44.5591087  22.0038681  57.5237198  44.1438866  21.0246601
  20.0796394  33.4637184  86.9296036  19.5946541  32.6410027  86.9941177
  19.8282986  33.8238487  86.0790939  82.3967896  61.9079399  87.2745743
  82.7616425  62.1765404  88.1177597  82.9167633  61.1454849  87.0205612
  67.8574448  59.3111458  26.9607487  67.0740585  59.8036652  27.2056293
  68.0035324  58.7134628  27.6940041  65.4988632  64.7091064  12.6708136
  65.4617691  63.8975334  12.1646481  64.6102295  65.0616989  12.6235466
  35.3541451  12.3516760  31.7241783  34.5473213  12.7436218  32.0583153
  35.5144958  12.8032370  30.8955593  54.1936035  24.6476192  25.8769855
  53.7615166  25.4468575  26.1782341  53.4784050  24.0272579  25.7360077
  21.2502136   0.4503676   3.0039270  21.6670532   0.5215344   3.8626530
  21.9112949   0.7694418   2.3896041  67.4141998  54.6668320  37.9346619
  68.2727356  54.7706718  38.3449707  67.0705795  55.5578423  37.8694115
  83.1343002  24.7247868   9.4426613  83.3246918  24.9432220  10.3549490
  83.7967606  25.1984825   8.9396820   4.3388162  64.2522736  53.6573143
   4.2127576  65.1262436  54.0267906   4.3466477  64.3914337  52.7103157
  63.0652046  62.4947739  36.4276314  63.3822289  62.7217865  35.5534515
  63.4983673  63.1195564  37.0092239  59.9037552  55.9736786  29.5393581
  59.4439240  55.1809006  29.8155575  59.2100372  56.5600586  29.2374573
   8.4553175  37.1027145  10.2596178   7.9502950  36.3560066  10.5815096
   7.8347149  37.8314552  10.2642021  12.8027563  24.8088055   4.3376069
  12.8189678  24.5276737   3.4227655  12.4211798  24.0682621   4.8090158
  76.8984222  64.7094421  77.8843613  76.1843719  65.0060349  77.3201065
  77.4698715  64.2071686  77.3034973  39.0344505  22.1875153   6.6476316
  39.9498520  22.4541206   6.7324600  38.5471382  23.0107861   6.6162567
  66.8454971   0.8176900  77.2250748  66.2157669   0.4503139  77.8453217
  67.6966400   0.5116251  77.5383148  25.9724503  71.7346878  83.2616806
  26.0519295  71.7760544  84.2146759  26.3412857  70.8830643  83.0273132
  77.3904953  25.1695900  35.6073494  77.8918304  25.4006538  34.8253632
  77.0896530  26.0088825  35.9556541  75.9204178  66.6460266  83.1123428
  75.6097488  67.4250107  82.6509323  75.9218903  65.9580841  82.4467926
   0.8527033  61.1876602   4.8190031   0.8114843  62.1246300   5.0103736
   0.7683582  61.1336975   3.8670547  57.3213692  22.7780609  57.7059746
  56.9792061  23.2517071  56.9478111  57.3005180  21.8579426  57.4429512
  41.9206772  30.5329094  16.6237049  41.6064148  30.8391037  17.4744205
  41.8303490  29.5808144  16.6635284  77.8618546  52.8009033  76.2095566
  78.3515396  53.5531578  75.8770599  78.5316315  52.1437531  76.3987198
  49.1961823  29.6660767   0.4853674  48.7711487  29.9001846   1.3104560
  49.7960243  30.3912830   0.3107369  70.8369293  60.4516258  73.2157211
  70.1807556  61.0393600  72.8412399  70.6428757  59.5980911  72.8283539
  85.7389221   6.6590991  23.3871784  86.4589310   6.7753758  22.7672615
  85.7455215   7.4579191  23.9145069  43.3521080  60.2255630  24.4612637
  43.0991516  59.3869095  24.8471432  43.9849930  59.9951019  23.7811356
  47.0477562  43.1836510  12.9967279  47.9513702  42.9685135  12.7655869
  46.9844055  44.1290588  12.8609943  62.2640419  69.8504333  38.6272354
  61.8163414  70.6963425  38.6423264  62.5456886  69.7123413  39.5315781
  20.4043865  56.9754601  81.6794205  19.8277836  56.3289452  82.0865860
  21.2825489  56.6065826  81.7742462  73.3222961  26.5873127  17.3191738
  72.4452591  26.6879272  17.6891842  73.4143448  25.6457062  17.1737881
  60.4498901  21.2149086  76.4261856  59.7716446  20.5615005  76.5972900
  61.2734070  20.7482414  76.5685730  69.0321732  39.9222450  61.3716621
  69.7555771  39.2966919  61.4116859  68.8981552  40.1918869  62.2802658
  51.7081909  49.6941414  44.2174110  51.5464706  50.5776443  43.8865051
  51.7202454  49.7933998  45.1693726  68.7989197  33.9884186  51.0439110
  67.9441757  34.2547913  51.3825798  68.7385788  34.1344147  50.0998383
  10.1018038  15.3607836  59.6139603   9.7828207  16.2522469  59.7545815
   9.3922281  14.8002071  59.9277878   1.5794070  20.1756973   0.3593458
   1.8375434  20.9796543  -0.0914844   2.1543288  19.5021629  -0.0040390
  11.6736593   1.3826898  43.5427971  10.9978857   1.1607041  42.9022636
  12.4190159   1.6692877  43.0150299  77.1377869   5.6351752  14.6656933
  76.2057800   5.6321063  14.4475765  77.2324142   4.9450221  15.3221741
   2.9762092  33.9235992  41.6650810   3.1103299  34.4495888  42.4534836
   3.1621468  33.0261993  41.9413681  69.1885910  49.9219131  38.2738953
  68.9089584  49.1782265  38.8077164  68.9951935  50.6893616  38.8122749
  85.4444656  60.5514603   6.2029567  86.1690979  60.9100151   5.6905355
  85.8287277  60.3572121   7.0578485  67.4399109  42.2848892  32.9509506
  68.0610962  42.0948944  33.6539917  67.7037582  41.7064362  32.2354012
  10.1912498  16.9393845  23.6448460   9.7862997  16.1674538  23.2494106
  10.0342178  16.8378601  24.5836048  19.7542477  23.0822315  72.9495926
  19.9823093  23.8784809  72.4697952  20.0091343  22.3687820  72.3645630
  24.3592014   2.7676125  38.2875862  24.7598057   2.9739389  37.4430885
  24.8658047   3.2734561  38.9229660  85.1378479  43.7341537  40.9182854
  84.4092712  43.2649498  41.3248062  85.2901764  44.4842453  41.4930801
  46.5864525  62.4169197  14.7130356  47.5373001  62.4269142  14.6033726
  46.4187050  61.6646194  15.2806044  83.8374863  68.7721481  86.5322342
  83.1176605  68.2376480  86.8674774  83.4880905  69.6632004  86.5188293
  51.4605827  30.5969334  26.0000305  51.6356850  29.7430153  25.6045628
  52.2967224  31.0601540  25.9497547  86.2429581  40.8560219  62.0992012
  86.6245728  41.0910606  61.2534103  86.5667496  39.9717102  62.2706070
   1.9358747  22.6157837  12.7431192   2.5371017  22.0825977  12.2230520
   1.5446143  22.0000896  13.3628531  58.9984741  52.5288544  22.5019093
  58.7112160  51.7763481  21.9847507  59.3949013  52.1447487  23.2839203
  30.6807766  60.2996521  44.3375778  31.5545673  60.3443680  43.9493484
  30.2544861  59.5719604  43.8848381  53.3934479  13.5778646  48.7946396
  54.2699661  13.5956860  48.4104080  53.3637466  14.3501472  49.3593788
  86.0599060  16.1679382   7.9280210  86.2194290  15.3183460   8.3390875
  86.8441467  16.3315868   7.4041762   1.9120557  37.0739784  85.6479492
   2.7598455  36.6949310  85.4159775   1.8343736  36.9280815  86.5907669
  54.8560295  37.9158173  50.9578705  53.9672470  38.2061691  51.1627960
  54.7349625  37.1734505  50.3658714  50.9405975   3.2105832  43.6286774
  51.5328712   3.9553766  43.7322502  50.8657455   2.8399987  44.5080490
  14.6594992  10.8982782  68.3210526  14.4032640  10.1272802  68.8271484
  14.2020845  11.6251316  68.7437668   7.9841194  20.1657715  62.9096642
   8.6554823  20.0506172  62.2371712   7.3674221  20.7904377  62.5279465
  52.7150459   0.3184308  25.7308331  52.0240517   0.9477144  25.5240383
  52.5700455  -0.4053594  25.1214619  82.5395508  53.3614883  13.8616762
  82.6269608  52.5133171  13.4267044  82.9935760  53.2502098  14.6969671
  37.6898880  24.6559963  83.4538727  37.3727455  23.8750172  83.0003052
  38.4259567  24.9592953  82.9224167  78.1711349  43.9702454  19.5817890
  77.2214813  43.8885536  19.4939537  78.3155518  44.8980598  19.7676258
  62.8149834  23.5590305  73.7352600  61.8790703  23.6810474  73.5758514
  63.2389870  23.9081974  72.9513321  24.1501122  66.7392731  66.0748901
  24.6358700  67.2788391  66.6987000  23.6093292  66.1692200  66.6215439
  75.8039398  44.4238815  12.1230040  76.4604263  44.8390083  12.6824017
  76.1571808  44.5066147  11.2372227  33.2606964  32.4261131  76.2527847
  32.9307137  33.2344589  76.6451111  34.2122574  32.5298462  76.2550430
  54.4964447  45.3799591   1.6559001  54.8424225  46.2320023   1.3902855
  53.6319847  45.3345604   1.2473880  49.7290802  25.6004906   4.1398983
  49.3009148  24.7454929   4.1833668  50.6306915  25.4041824   3.8853588
  15.8791523  22.7236576  69.8328629  15.4767036  21.8553009  69.8180161
  16.3718929  22.7733173  69.0137329   7.3126349  32.1078873  75.9230194
   6.5852327  31.6852703  75.4663925   6.9104614  32.5115662  76.6921310
   1.4467840  52.1130104  17.1008511   1.8685787  52.6057281  17.8048077
   0.6154402  51.8229637  17.4763126  64.9312286  26.8960934  85.0615158
  64.8114243  27.7646408  84.6774521  65.2763824  26.3630409  84.3453064
  46.2859459   1.9847536  32.2969131  45.5250816   1.7276872  32.8177147
  46.4487228   2.8951101  32.5438652  45.3565941  63.7960892   4.5402279
  45.8251266  63.5680771   3.7372844  44.9183693  62.9857597   4.8001494
  39.8855324   2.2025349  81.8182831  40.2700729   2.0388477  82.6794281
  39.6798439   3.1373677  81.8216019   6.2042603  22.2995262  18.6394634
   6.7234330  22.8570232  19.2190228   6.0075102  22.8553791  17.8854427
  29.8117447  59.2204170  82.9373474  30.5100269  59.1370163  82.2879868
  30.1706486  59.8098907  83.6006317  34.3944893  46.4817238  88.5555115
  34.3192291  47.0980873  89.2839813  35.0607414  45.8557625  88.8392639
  61.0697403  34.8072472  39.3011627  61.7013779  34.0944405  39.3969193
  61.6031990  35.6020088  39.3042755  18.5991058  52.6109695  45.1388931
  18.8835735  53.2684097  45.7737808  18.5990543  53.0722313  44.3001633
  73.4409180   0.5603026  36.5857353  73.6110458   1.5015413  36.5488892
  74.0728302   0.2274616  37.2230301  50.5262222  54.0412560  40.8924294
  50.0310555  53.4383011  40.3379135  51.2484245  53.5141182  41.2341537
  68.3695908  41.6355362  44.3249817  68.9992599  41.4775963  43.6215630
  68.1840591  42.5732155  44.2742844   7.6681552  21.9778404  71.9115601
   8.1489801  22.8027287  71.9793777   8.2358046  21.4120541  71.3882141
  11.4926214  52.7622910  59.2270012  11.4458466  51.8062439  59.2316246
  11.1418648  53.0151253  58.3730240  37.1296921  10.4729958  63.0828476
  37.9086266  10.1507711  62.6293488  37.0884056   9.9541197  63.8861504
  18.5809803  57.7768364  10.6841278  18.5687466  56.8592949  10.4117317
  19.3571243  58.1423798  10.2596149  81.7073898  42.5089607  20.8100376
  82.4495850  42.6438942  20.2208271  81.8848419  43.0840416  21.5543633
  58.0610886  17.2379837  77.5104218  58.2861137  16.3829918  77.8772812
  57.1043205  17.2420750  77.4818954  69.4343948  22.4243202  11.2961216
  69.0250473  22.8095760  12.0708733  68.7098007  22.0214882  10.8176680
  64.9934387  45.0845184  74.6755829  64.7594223  44.8789825  75.5806885
  65.9497299  45.0456619  74.6607132  81.6919861  35.7772102   6.6945415
  81.4069366  35.8322639   5.7824302  82.6464691  35.8345795   6.6510630
  85.3467865  43.7215881   5.6760893  84.9972687  42.9765396   5.1872435
  84.8970566  44.4820099   5.3076725  50.6024666  56.4015350   2.7602465
  50.8124084  57.3267555   2.6332641  51.4441338  55.9895515   2.9554374
  31.5324078  36.7410927   9.1073303  31.5513916  36.8881607   8.1616869
  30.6067333  36.8080139   9.3415947  25.2457523  26.4847565  75.0290833
  24.3195877  26.3220692  75.2079239  25.4902229  27.1771793  75.6431046
  16.5107384  11.8945332  74.9355698  16.2030735  12.6061087  75.4970245
  17.0969620  12.3197012  74.3096237  71.3621445  18.5968380  75.4711685
  71.1216660  17.6850433  75.3067551  70.7424011  19.1059399  74.9487152
  52.7789612  34.0851974  82.8480988  52.7181664  33.8388557  81.9251328
  51.9258385  33.8527985  83.2147141  65.4910202  16.2006340  84.9025345
  64.8946915  16.9061375  85.1533279  64.9806747  15.4003344  85.0262451
  46.3812714  52.8171883  12.9431076  45.9068604  53.2906723  12.2597485
  46.7879753  52.0809746  12.4861469  66.3098068  27.5860138  55.0615730
  66.0355148  27.5158463  54.1472054  66.4356003  28.5243816  55.2025604
  50.3063011  23.2068272  59.0535507  50.8408318  23.2924061  58.2641296
  49.7367287  23.9760323  59.0416870  11.9220753  31.0565186  55.0435410
  11.8878794  30.1148071  54.8754883  11.1790714  31.2234612  55.6234589
  19.8273468  23.9920044  62.7428207  19.3860950  24.5969105  62.1464882
  20.6220913  23.7329617  62.2764397  79.6241150   4.4756207  20.5800076
  79.5894623   5.2560835  21.1330986  80.4498138   4.5568056  20.1026669
  37.9724426  34.3535576  15.0120802  38.5139885  34.6364822  14.2752542
  38.4229736  34.6938667  15.7850246   9.3447552  51.2196121  55.9052353
   9.8832273  51.8215370  56.4190102   9.9760027  50.6581688  55.4551888
  45.1294899  50.4595490  41.2173576  44.8444939  50.1363869  40.3626251
  44.7499008  49.8443184  41.8447609   9.5242834  42.1820335  62.9218559
  10.3308678  42.5611992  62.5727310   9.6708298  41.2366409  62.8903542
  38.5540390  50.0061340  88.9243927  38.7358513  50.9095993  88.6656876
  39.3314247  49.5181580  88.6527710  80.1889496  17.4292793  15.5583696
  79.2601471  17.5256672  15.7687788  80.6452255  17.7439327  16.3387756
  51.1955719  57.7919350  71.5816650  51.1136322  57.6438255  72.5237808
  50.5787582  57.1750450  71.1876907   5.4514179  68.6793518  44.4203606
   4.5886731  68.7188873  44.0076370   6.0681090  68.6982193  43.6885338
  73.7047958  48.0615807  63.1624947  74.6510010  48.0001564  63.2934608
  73.6057816  48.3081818  62.2429237   7.1319075  47.0772324  33.4585342
   7.5953145  47.9100800  33.5471230   7.2108979  46.6664276  34.3194809
  22.8060532  10.9067240   9.8437958  21.8939800  10.7005997  10.0484104
  22.8240871  10.9930143   8.8906641  66.0991974  47.5011749  27.2401505
  65.6347351  47.7546158  26.4424858  65.4854736  46.9315529  27.7039413
  14.0189238  65.3650284   0.1519820  13.7715044  66.0552139   0.7673387
  14.4289036  65.8300629  -0.5773250  42.3797836  44.1808014  29.8221569
  42.3716202  44.0707893  30.7729797  42.9708328  43.4970093  29.5070000
  20.9486103  68.7381592  59.7020035  21.7921734  69.1904831  59.6959991
  20.9582901  68.2239685  60.5093117   8.2956114  41.2345047  48.3282089
   8.3887053  40.6633949  49.0907021   8.9338617  40.8992805  47.6985283
   3.9028676  12.1137724  12.3927565   3.2414510  11.8879471  13.0467930
   3.5830460  11.7178402  11.5820875  73.2578506   9.0193510  47.3704071
  73.7164612   9.5670700  48.0075188  73.5553741   8.1297836  47.5611496
  10.1066456  41.4529610   0.1216147  10.8732891  41.3876991   0.6910273
   9.9862289  42.3932343  -0.0111194   7.8633685  41.2427216  33.2725601
   7.7236757  40.4022141  32.8363647   8.7630033  41.4817352  33.0494843
  70.4246292  12.4891024  63.1065941  71.1518631  12.4636469  62.4847298
  70.8447723  12.4876795  63.9666557  25.0872993  27.2336254  71.5523148
  24.4034290  27.6290913  71.0118027  25.0868073  26.3099308  71.3012772
  70.5915527  65.6412048  28.2775459  70.2232513  65.2870560  27.4681244
  69.9323196  65.4496002  28.9445801  62.9298248  20.1694660  42.0770950
  63.8195457  20.2471695  42.4214592  62.8083725  20.9574013  41.5473404
  55.7483940   9.1507730  87.8162308  55.8859062  10.0547905  87.5332565
  55.0283699   8.8356733  87.2698746   0.9916590   2.1523943  56.7898178
   1.0019622   1.8461843  55.8829765   1.4636490   2.9848201  56.7669106
  18.8239098  63.6251259  56.8208199  17.9849319  63.6336212  56.3600845
  18.9588280  62.7070808  57.0558167  39.2878494  59.2922058   8.7433004
  40.0442352  59.6911850   9.1733313  38.6261253  59.9837532   8.7324820
  65.2043381  46.6575775  55.3735352  64.9052887  46.5247955  56.2730713
  65.2567825  45.7753563  55.0058784  24.9445076  65.1296692  30.7700558
  24.6762333  66.0388870  30.9026909  25.3318176  64.8698578  31.6059494
  66.0044250  52.5146446  38.8096848  66.2317276  51.7424889  38.2916718
  66.5611954  53.2102013  38.4597664  75.6895142  30.4540787  20.6444740
  75.7652588  31.4047050  20.5619984  76.0257950  30.1141720  19.8152523
  77.8150864  14.8494091  40.2347908  77.9525681  14.2799454  39.4777946
  77.5108643  14.2605419  40.9253807  36.6784859  15.4407310  69.0657349
  35.7972908  15.8083315  68.9979630  36.9775047  15.6948137  69.9388123
  56.9256439  27.4971504  62.1043282  56.8837051  28.2135334  61.4708710
  57.8505058  27.4443531  62.3453102  81.4450912  24.7399635  73.5913315
  82.0645065  25.0552368  72.9331818  81.6947937  25.1977901  74.3939972
  26.2574692  24.6474438   5.5673881  26.7043285  24.5563087   6.4089599
  26.3983440  23.8081322   5.1292763  36.5330811  71.5714493  77.6588974
  36.1526108  71.9671402  78.4430542  35.7779732  71.3180771  77.1280060
  15.4998531  66.4834976  87.2205429  15.8997240  67.1563797  87.7715149
  15.9930944  66.5206833  86.4010544  61.7574081  62.9051704  47.0125999
  61.4258537  62.4927406  47.8102226  62.6954117  62.7144623  47.0164680
  57.4020844  66.4087143  69.1645050  57.9943314  67.0205612  68.7273331
  57.9338188  65.6272583  69.3155975  66.2307587  28.2471142  59.6154556
  66.4620819  28.4337177  60.5253448  65.3072052  28.4896088  59.5485611
  85.5968246  53.8608780  62.4273186  85.7696152  53.6103935  61.5197792
  84.6683044  54.0931549  62.4390411  33.6879730  58.7293510  62.5346375
  33.9789047  59.5308151  62.0996132  33.1808014  58.2657089  61.8682747
  71.4094849   9.7255478  69.8913269  71.7932816  10.4719868  70.3515091
  71.9111786   8.9706984  70.1991272  67.2429657   9.4475088  30.5863228
  67.1156311   9.5384932  31.5306435  68.1166458   9.8046112  30.4269447
  55.8911362  35.0848999   8.0169258  55.8512993  34.1325302   8.1043463
  55.0167809  35.3347664   7.7180939  67.0044556   8.9304171  18.8875046
  67.2416687   8.9131355  19.8146839  66.1566925   8.4876556  18.8488827
  26.8637562  21.9957485  10.1992970  25.9668255  21.9743843   9.8656979
  27.3288651  21.3414803   9.6779156  35.4754066  63.9942322  11.4657516
  36.1776009  63.3437614  11.4596481  34.6864243  63.4969902  11.2501373
  26.6631031  12.3015356  76.7384949  26.0212669  12.7098417  77.3194962
  27.4303913  12.1579189  77.2924576  85.1824112  19.0880623  80.2338104
  85.4238892  20.0035915  80.0933609  85.5265045  18.8801537  81.1024857
  58.1277428  52.1548538  15.5664263  58.5276413  51.5766296  16.2160206
  57.2407532  52.3051796  15.8933496  30.6198235  23.7660027  73.8748016
  29.9224396  23.1134987  73.9390106  30.5982056  24.2231865  74.7154846
  81.0744781  56.7502403  65.4344406  81.6964417  56.3568802  64.8223495
  80.2646561  56.2571373  65.3030090  85.9498749  36.4594536  48.7182693
  86.7764130  36.8891678  48.9383125  85.3940506  37.1647530  48.3868484
  73.1046677  12.1933489  50.7566414  72.3254700  12.6193161  51.1139069
  73.2427750  11.4334898  51.3221245  42.4830475  56.9533844  39.4948196
  43.1476059  56.2766800  39.6239052  41.6581345  56.4711990  39.4378204
  83.2779922  36.4230995  43.8831940  84.1633148  36.6679878  44.1523781
  82.7509003  37.2033577  44.0552292  35.8254128  61.4607964   2.0204847
  36.5272598  61.0642204   2.5365939  36.0031204  62.4006538   2.0567930
  28.0283928  52.8317947  42.8995972  27.6018543  52.9440842  42.0500755
  28.9383106  52.6258888  42.6853905  49.2471237  57.6440315  16.5582085
  48.5088501  57.4701195  17.1421070  48.8492126  57.7505264  15.6941729
  28.6211109  46.7845421  84.3177032  29.2477551  46.1636086  84.6891785
  28.4733829  47.4224014  85.0159454  41.5566826  47.0951080  30.2138977
  41.8144569  46.1733360  30.2026653  42.2795258  47.5512199  29.7829781
   9.6204109  10.6836176  40.7291641   9.0883560  10.4486074  41.4893761
   8.9863110  10.8138027  40.0240402  40.9779015  49.1321411  62.7884254
  41.3864822  49.8957596  63.1960716  40.2421684  49.4905853  62.2919922
  74.6859665  56.9531631   2.5646882  74.3406067  56.0862503   2.3515689
  74.7310944  56.9646072   3.5207553  84.7767258   5.7010884  20.4086761
  85.1901321   6.5409861  20.2089367  85.5022354   5.1322451  20.6661320
  31.0351143   2.5193951  82.5513992  31.0793724   2.8524563  81.6551056
  30.1232910   2.2500167  82.6620636  86.1751099  26.4252815  23.6625900
  85.3650970  26.3523140  24.1673584  86.0003281  27.1206589  23.0284500
  30.5254307  60.2536659  39.8133888  29.8150997  59.7505913  39.4151726
  31.2547550  59.6361656  39.8682556  63.3036346  25.0418472  71.3334274
  63.6668587  24.5611687  70.5896149  63.6835022  25.9174786  71.2612839
  64.3761749  58.7654610  22.6528168  64.6166000  57.9040985  22.9941101
  63.4242401  58.7289047  22.5594120  58.3506088  40.5581932  14.9503469
  58.9641533  40.1830330  15.5820522  58.6969872  40.2983437  14.0966873
  66.5567169  28.8242855  62.3841667  66.5835648  29.7644234  62.5620689
  66.9119263  28.4204464  63.1759796  79.0289230  32.1262627  10.3408861
  79.0950928  32.5756760  11.1834307  79.2313766  32.8010941   9.6929274
  45.3907127  21.2982578  70.8486023  45.7160873  22.1694508  71.0752945
  44.9491196  21.4187717  70.0079498  68.3059616  42.2429543  55.6574059
  69.2282944  41.9959183  55.7245789  68.3210144  43.1904526  55.5223122
  11.5879955  30.2583179  73.6759033  11.8499823  29.5102043  73.1393204
  10.9200592  29.9080906  74.2653427  61.8285828  60.9937782  38.7071114
  62.2644272  61.7980652  38.4253464  61.3744812  61.2373962  39.5137520
  75.5083923  36.2932549  86.8547363  76.4624405  36.2230339  86.8878403
  75.2210922  35.4692459  86.4614258  49.3668518  44.8049202  62.7213173
  49.6461372  45.4670982  62.0890617  48.6275444  44.3674088  62.2991333
  74.4832535  58.6577721  59.8997803  75.0824432  58.0459824  60.3274727
  73.6106110  58.3343506  60.1236610  51.1955185  15.3971205  74.0563202
  50.9265976  15.7762403  74.8930893  51.9869423  15.8798866  73.8179550
  62.4630470  68.5762329  13.3109026  63.1139297  67.9063644  13.1014700
  62.0545082  68.2685471  14.1200132  34.4074440  34.2255554  10.6431284
  33.6485710  34.7380753  10.3644342  34.0435562  33.3773003  10.8966608
  81.2275925  66.1204071  47.8071556  80.8558502  65.6003494  48.5196037
  82.1529617  66.2112274  48.0345001   3.5579567  43.0075684  14.9625397
   2.8646550  43.6390839  14.7708321   3.4749458  42.8382874  15.9009876
  22.6183510  49.1426773  66.6681366  22.2325611  49.6130486  65.9291153
  23.1130943  49.8094406  67.1444702  69.0288391  18.2070312  28.8230801
  68.5398102  17.5763054  28.2946224  69.9456406  18.0475464  28.5988636
  25.7015476  52.5503998  37.8391495  25.9159584  52.6404266  36.9106293
  24.7574463  52.3931847  37.8528099   7.7615128  30.8593063  31.0550957
   8.5813417  31.0923672  30.6194420   7.9247255  29.9913158  31.4241314
  54.7734184  17.3248920  48.5668106  55.3437767  17.0817738  47.8375549
  53.9184151  16.9636517  48.3329124  43.7639046  67.4559784  28.1999855
  43.0117569  66.8745270  28.0885696  43.5237350  68.0200882  28.9350567
  66.9399567  26.3285942  51.0776863  66.5406723  26.2173634  51.9404945
  66.7247086  25.5225430  50.6084518   7.3108740  17.4069118  74.9579620
   8.0576029  17.7424297  74.4619217   6.6404481  17.2372761  74.2961578
  12.1859303  54.5424194  72.6804581  13.0076895  54.5086479  73.1701584
  12.1190920  53.6826019  72.2651520   7.6735344  43.9523277  48.4721222
   6.8958545  44.1870270  48.9784431   7.6647115  42.9954414  48.4493256
  16.2152977  51.8553810  19.2566700  16.8630409  51.2650604  18.8717251
  15.3764563  51.5465508  18.9143238   6.7871575  58.6937447  31.5631847
   5.9036846  58.9143791  31.2681789   6.6590557  58.2884102  32.4208107
  70.6366653  69.9586945  80.5377274  71.2729645  69.2444458  80.5029831
  69.8073578  69.5531769  80.2846603  12.3169651  43.9594231  71.5310745
  12.9301882  44.3797646  72.1339874  12.0727482  44.6515770  70.9166565
  46.7034836  66.6903381  76.3336334  46.7581520  66.3091354  77.2099457
  47.3446312  66.2002869  75.8188400   6.6800280  14.4230127  79.7427063
   6.7351475  13.8967781  80.5403748   5.7441664  14.4616890  79.5454788
  61.3037834  64.7959213  75.8251724  62.2351685  64.9709320  75.6905289
  60.9323921  64.7837601  74.9430466  79.5577240  39.7197380   1.8438026
  79.0242767  40.2238274   2.4582582  79.4688187  38.8130150   2.1373672
  10.8125429  61.7619896  52.3543091  10.8958912  61.5705032  53.2884483
  11.0150928  62.6947174  52.2820091  14.0502205  10.3529911  27.1606674
  14.6189184  10.8309526  27.7642956  14.5340490  10.3406038  26.3348408
  62.5111771  24.8652592  61.3382835  62.0405731  24.2750034  60.7497559
  62.7692566  25.6012306  60.7833328  10.2918758  52.8051071  61.8321114
  10.8983555  52.4081955  62.4573135  10.8272352  52.9825096  61.0587120
  48.4260139  20.4592495  76.3424072  49.0275536  20.6069088  77.0721817
  47.7335320  19.9101830  76.7101440  84.7169266  30.8483715  24.3914299
  84.0485611  30.2843609  24.7805347  84.5911942  31.6968975  24.8162003
  61.7725716  52.4997444  82.5664139  62.2831879  52.6716232  83.3575897
  62.2874565  51.8521423  82.0850296  63.8503456  70.8495483  16.2008362
  63.5707169  70.1060562  16.7349319  63.0491982  71.3514328  16.0508003
  82.0286636  17.8952999  17.5027390  82.8119888  17.3451710  17.5034809
  82.0065842  18.2817802  18.3781700  85.1148224   7.1148243  61.9827995
  85.7166901   7.6751847  61.4929161  84.6947632   6.5729384  61.3148613
  30.3359337  41.7260971  64.5638733  31.2601948  41.8019333  64.3267670
  29.8758049  42.2428360  63.9024391   1.3404024  14.8794489  74.4428177
   0.7283291  14.1803875  74.2127914   1.9224210  14.9468746  73.6858902
  71.6938477   7.1040397  36.9716263  71.6443176   6.1518574  36.8871994
  70.8209686   7.4118590  36.7275581  71.7411804  63.2122231  37.4442902
  72.2933197  63.9616508  37.2212715  71.0625305  63.5755920  38.0131721
  28.8987408   2.6394634  15.6866808  27.9765453   2.7384872  15.4500732
  29.2672520   2.0945995  14.9912996  54.6986504  47.4584618  51.9711151
  54.1842728  47.9619904  52.6020737  54.0601501  47.1657219  51.3208466
  72.5733109  44.6736259  49.0616798  71.8328400  45.1751251  48.7204590
  72.2073593  44.1716232  49.7899017  73.1794968  69.7231750  22.6221867
  73.9529877  69.1593857  22.6312122  73.4905624  70.5620270  22.9624767
   1.8355074  68.7558365  51.6281128   2.1824777  68.9783707  52.4920120
   2.5222406  68.2258682  51.2234344  53.3370094  67.3242188  38.5427704
  52.7693787  66.9286270  37.8813019  53.5828819  68.1715775  38.1716118
  77.5584259   2.7998769  11.7519531  77.1498108   2.1220050  11.2136641
  77.0265427   2.8271153  12.5473089  51.3825378  26.8591251  11.3332615
  52.2781219  26.5530624  11.4764023  51.4754372  27.7937965  11.1488972
   1.0182514  24.4564228  73.4908752   0.1455899  24.2566833  73.1520538
   1.3088400  23.6411610  73.8996964   8.6751175  18.4135284  84.8756638
   8.4109392  17.4984837  84.9712448   8.2685280  18.8590889  85.6188965
  66.7706909  62.3542137  25.1036949  66.0869293  61.8317451  25.5228977
  67.1371460  61.7763748  24.4343338  34.7386475   0.6288041  69.8639297
  34.9015770  -0.2216706  69.4560318  34.5243607   1.2080525  69.1326370
   6.2182164  59.2362328  49.3446350   6.9715109  59.6865540  48.9625473
   5.5852194  59.9330254  49.5179100  78.6149521   7.2456985  65.2054977
  79.3365021   7.6882586  65.6524200  78.6531219   6.3438358  65.5239639
  83.9799042  24.0592651  41.3128433  84.5990753  24.3474598  40.6421661
  84.3478088  23.2391491  41.6419144  10.1666431  28.0285378  21.1758327
  10.9308195  28.2375584  20.6386395   9.6534929  27.4255104  20.6379986
  75.0461807  59.8373413  77.2650681  74.0963211  59.9186897  77.1791916
  75.3159256  59.3481674  76.4877853  44.7186546  55.1913414  65.9630356
  44.6210251  56.1176643  65.7425232  45.2422218  55.1897774  66.7643509
  73.7066650  65.0879669  37.2353821  73.5893707  65.9734726  37.5794067
  74.3614197  65.1844559  36.5438461  47.5072212   6.4583321  26.8326206
  47.1099968   6.6615696  25.9857788  47.0948715   5.6367955  27.0995998
  49.3052292  67.4197845   0.5463725  50.2047577  67.6253891   0.8009499
  49.0687790  66.6674576   1.0888890  80.8090057  53.4573135  17.3641491
  80.7811356  52.5357666  17.6214523  81.7387695  53.6401672  17.2287445
  74.1529465   5.9370909  14.4551449  73.3337860   5.5380054  14.7482834
  74.0592651   6.8643093  14.6735973  15.9100780  44.8697891  50.3909264
  15.3436632  45.4623947  50.8851166  15.8737564  45.1975670  49.4923286
  85.8991394  19.5401325  51.5405960  85.7661743  19.4746704  50.5949402
  85.0616531  19.8570595  51.8788452  38.7312584  70.9311142  69.3862381
  39.1586533  70.4724731  68.6629028  37.7951965  70.8110733  69.2262192
  30.7050457  13.7706289  78.7722092  31.0496635  13.1059732  78.1758041
  30.4052448  13.2758379  79.5347900  75.6663208  70.9607468  17.9239445
  75.2738342  70.6563492  18.7421913  75.1159439  70.5815964  17.2387066
  81.7480392  55.2052231  20.3561420  81.0635986  54.5966187  20.0779762
  81.5500488  56.0175629  19.8901634  52.7765465  28.4943752  74.8033295
  53.3585548  28.6202755  75.5527573  52.9190369  27.5853615  74.5394669
  70.4300461  17.2852955  86.2108612  70.7693481  16.4171677  86.4287186
  69.6107864  17.1127472  85.7468872  74.9141693  35.3604584  38.8690872
  75.7570801  35.5410233  38.4530067  74.3163528  35.1993675  38.1390877
   4.5372224  52.2798691  88.9141006   5.4371262  52.1827354  88.6026993
   4.5919785  52.9437447  89.6014862   7.5726686  60.0091782  55.5522232
   7.1675572  60.5962715  54.9139099   6.8754292  59.3990669  55.7927475
  68.6760712  60.2243500  70.8002319  67.9036407  60.7643623  70.9674911
  69.1020126  60.6410828  70.0511398  77.9937057  32.4703178  37.9158707
  78.2496414  31.9641342  38.6869125  77.9615707  33.3760605  38.2238121
  70.8362503  44.1540909  44.3816757  70.8919754  43.8939590  43.4621887
  71.4407349  43.5657463  44.8340950  30.8111210   0.8107118  27.6287079
  30.2119236   0.5837660  28.3398247  31.6657372   0.4995643  27.9271240
  57.0796356  48.2339478  63.3118134  57.4810562  47.6191902  63.9259529
  56.7630577  47.6841354  62.5950737  42.6598701  47.5762100  71.8716507
  41.8015404  47.4207726  72.2657852  42.9189262  46.7251053  71.5184708
  82.8801270  56.1975479  16.5689812  83.0416260  57.0630112  16.9446411
  83.1225739  55.5857124  17.2640438  47.8998337  17.7188034   9.9941645
  47.3919067  17.3834419   9.2554007  48.0426865  16.9549408  10.5530367
  71.6165924   4.3113327  86.5666733  71.8382721   4.2904611  87.4976120
  71.9536514   5.1527400  86.2590027  19.0926704  53.6633911  42.6530495
  18.6763020  54.0749588  41.8957634  19.8369236  54.2305069  42.8547974
  13.6996613   3.1902390  57.4116287  14.6052294   2.9713111  57.6312866
  13.3514528   2.3941844  57.0100327   0.5459013  55.3878021  64.2031708
   0.2825724  56.2711411  63.9450912  -0.0409099  54.8105888  63.7145958
  31.9557171  60.1566010  73.9106827  31.9539986  61.0625877  74.2195740
  31.0357571  59.8933716  73.9354248  13.5611687  11.7402763  65.9756699
  14.2278767  12.3565474  65.6724472  13.9272022  11.3667240  66.7773590
  64.5065689  48.9234505  87.2325821  63.7862320  48.6762199  87.8124313
  64.0828934  49.3790665  86.5051498  84.5406570  10.3616428  34.5068436
  85.3884354  10.7733603  34.6741409  84.7147598   9.7297716  33.8092308
  10.2850561   0.9193084  56.7636147  10.3365002   0.7802498  55.8179703
  10.2628469   1.8708738  56.8649178  42.5432167  33.0027046  87.4999237
  43.2724533  33.6174583  87.4191513  42.6157761  32.6607780  88.3910217
  61.7355423  10.4566717  78.5830383  61.3092842  11.1197357  78.0400085
  62.2391434   9.9278479  77.9642029   9.0816813  55.8219833  62.2478600
   9.1462774  56.3859558  61.4771500   9.3748493  54.9637032  61.9418449
  60.6391716  43.3315582  13.5905008  59.9699097  43.0832062  14.2281857
  61.0804710  44.0828781  13.9867392  52.8805389  17.0594349  18.1548901
  52.0063934  17.0011387  17.7692738  52.8874321  16.3864517  18.8355370
  -0.2222978   7.8411298  75.3301315   0.5146053   7.6608181  75.9138184
  -0.0484975   8.7184048  74.9889374  83.0975723  38.3463860  81.1401520
  82.3501968  38.1373749  81.7004852  82.9839249  39.2720718  80.9246979
  64.2406158  56.5999374  30.8268719  64.6398163  57.4231987  30.5456047
  64.0964584  56.7123680  31.7664528  53.9952660  36.3208923  84.0714645
  53.8279152  36.3518181  85.0134125  53.6910057  35.4541168  83.8024673
  68.3163071  13.7245731  14.8229666  67.9841003  13.0892191  14.1887770
  69.0519333  14.1451492  14.3777771   7.4241343  40.2156334  70.5699310
   8.0117798  40.2864876  69.8176804   7.9734144  39.8642578  71.2706833
  29.1000748  16.3996124   3.3393557  29.6030273  15.6509018   3.0188847
  29.1634502  16.3403683   4.2926159  17.4692478  53.1177139  84.7415009
  17.3361073  52.7531281  83.8665237  17.0214233  53.9634018  84.7192841
  71.1948929  51.6221085   9.9359779  71.4173965  52.4707336   9.5531464
  70.5555801  51.8273277  10.6181765  82.2836380  52.3298721   3.6589923
  82.6567841  51.5382614   3.2712455  81.3370056  52.1955681   3.6134570
  46.4853401   4.8301835  41.4896965  47.2567902   4.2858238  41.6470757
  46.7716255   5.7184982  41.7022285  36.2447815   5.1554303  76.3246078
  37.0530968   5.6201758  76.5411072  35.6956711   5.2548814  77.1023102
  22.3201904  28.3128815  88.1888199  23.1390476  28.6575603  88.5450516
  21.8450584  29.0874557  87.8879623   6.9905019  51.2187691  66.4060135
   7.5558829  50.5556450  66.8020477   7.5947418  51.8177261  65.9674072
  68.7059631  36.8177032  27.1751518  67.9890366  36.7034607  27.7990150
  68.3391571  37.3740883  26.4880390  25.7450447  24.8357315  65.0654907
  25.8245354  25.2680874  65.9157715  25.5719738  25.5479794  64.4498749
  51.2917213  44.9287758  33.1230469  50.8266563  45.3979378  32.4303474
  51.7674026  45.6110840  33.5967751  36.9627037  30.6429806  73.9046402
  36.2291756  30.1628513  73.5203934  37.7234116  30.3677826  73.3929596
  51.2339897  49.8909874  36.7741928  50.8591728  50.7701302  36.8275833
  52.1406479  49.9993172  37.0613670  23.4191036   1.1030238  66.4388428
  22.9279289   1.5291400  65.7364120  23.5487785   0.2061760  66.1304932
  66.1375122  14.8455048  41.6181908  65.7700958  14.8089905  40.7350731
  66.8295746  14.1842308  41.6172066  69.0107269   3.0302763   9.0932207
  68.9236526   2.0829458   9.1991177  68.1476822   3.3769157   9.3195515
  58.9826584  61.0917931   3.2237985  58.4715271  60.4497719   2.7310660
  59.8098068  60.6474953   3.4099603  60.3959427  18.7446804  49.9081459
  61.1099663  18.6437225  49.2786903  60.6765213  19.4627781  50.4754639
   6.3550677  15.3971615   4.6279597   7.2751265  15.5400276   4.8500252
   6.3423619  14.5418091   4.1984921  58.0124321  15.3727150  61.4248428
  57.9061852  16.1807384  61.9268799  57.4053268  15.4653406  60.6906242
  27.7988491  64.7879791  70.5979691  28.1518345  64.6664963  71.4793701
  27.3077717  63.9850121  70.4238510  59.8215790  67.8877411  11.7565851
  59.7589226  68.7319260  11.3097448  60.5224075  68.0074234  12.3974829
  72.0596466   8.3328142  83.8732300  72.0876160   9.2868166  83.9462204
  71.4517746   8.1654215  83.1530228  11.0395117  44.0950356  77.9415512
  11.4274712  44.5486908  77.1932755  10.1486378  43.8870277  77.6599350
  14.1796961  44.1643105  54.1797981  13.6585045  44.2645645  53.3832169
  14.4412231  43.2435341  54.1806068  46.9208374   7.0333681  68.4484863
  46.1468277   6.8810363  68.9906387  47.6465569   7.0687342  69.0716324
  72.4533005  60.3946457  10.8808308  72.8797302  60.0801315  11.6779966
  73.1528091  60.4168701  10.2278185  24.7025795  64.7823639  54.5344162
  25.4390945  64.6012344  55.1183434  24.9027481  64.2918777  53.7371788
  75.8679733  41.1710510  63.2975159  76.3912201  40.6384926  62.6984901
  74.9899216  41.1675186  62.9164009  55.6570587  15.0036602  42.4537315
  56.0471611  15.7310247  41.9689713  56.1976204  14.2470989  42.2264824
  23.4449062  31.4150009  22.2177563  24.3939781  31.2914677  22.2024536
  23.1628952  31.2148190  21.3252163  -0.1082064  24.3470573  40.2675476
   0.6993459  24.2012405  40.7603264  -0.1109905  25.2866669  40.0849075
   7.3898602  37.8248177  21.0085850   7.5682573  38.7567902  20.8827400
   6.4359689  37.7690735  21.0652885  62.3797417  48.0606918  60.9301491
  61.9265862  47.9259377  60.0978508  62.8654518  47.2482872  61.0726852
  49.6049271  52.3287697  30.2822819  49.9432831  51.6102753  30.8166161
  50.2028313  53.0564766  30.4531326  10.2744961  51.9919548  24.2826099
  10.4427900  51.9207001  25.2222004  10.9438448  52.5978584  23.9646683
  40.9240074  58.0260773  47.6215057  40.1070404  57.5820656  47.3942375
  41.5695000  57.3221474  47.6851692  56.3749580  59.7462807  44.3860512
  55.7831688  59.5382271  45.1090546  56.2292671  59.0472717  43.7485580
  24.1688480  59.9737740   5.1506515  24.8656025  59.4401588   5.5327773
  24.1942539  60.7919235   5.6468563  70.9301224  12.7395277  72.5999069
  71.7054062  12.2156410  72.3981476  70.8209076  12.6508818  73.5467224
  46.5569649  26.1150475   6.9980798  45.8339348  26.1792412   6.3741097
  46.4771347  25.2356358   7.3675323   6.8503985   3.1850014  30.0806103
   7.3265858   3.9036949  30.4964905   5.9671803   3.5287800  29.9465446
   7.2699814  67.7174149  54.8783417   6.9091659  67.1171570  55.5308266
   6.5829663  67.7924118  54.2160606  55.8676758  49.6188126  44.7442017
  56.2548370  48.9759102  45.3383484  55.8375626  49.1743240  43.8969955
  25.9466782  65.5297775  33.3574333  26.1262074  66.4692307  33.3950806
  26.6168995  65.1352997  33.9154854  25.3339176  59.9375153  84.3307877
  24.4659557  59.8883591  84.7313538  25.8864708  59.3899460  84.8885345
   6.3379560  44.2442169   2.3345001   7.1319108  43.7513428   2.1272743
   6.3818340  44.3822365   3.2806809  52.0205421  10.2403336  32.2522316
  51.8162766   9.4250212  32.7102432  51.3057518  10.3481321  31.6247883
  81.7187271  18.7116833  61.3715973  82.1441193  19.5334053  61.6166420
  81.3889236  18.3571815  62.1973038   5.3795676  70.3501663  68.4985275
   5.8784080  69.6082458  68.8404922   5.4996872  70.3027878  67.5500793
  49.4459076  37.5021172  16.4587021  48.9796944  36.7826653  16.8844547
  50.3603134  37.3790398  16.7135487  67.6941071  46.4108887  57.9845619
  67.6396103  47.2616501  58.4198418  68.3608627  45.9321709  58.4770088
  46.2137299   6.5574627  80.6006241  45.3798599   6.9437008  80.3328323
  46.7219429   7.2950735  80.9380798   0.2886403  34.5601616  41.1099663
   0.4892596  33.8743820  40.4730301   1.1076629  34.6900291  41.5880547
  59.1949654  45.7310333  44.4197693  59.3580208  45.7958260  45.3607483
  60.0658684  45.6510277  44.0307236  74.5676880  41.8643570  50.5462494
  74.8681412  41.8532677  51.4550056  74.7676849  40.9880409  50.2171555
  58.4834862  52.2928467  -0.0278059  58.7486267  52.5937347   0.8413299
  58.2865753  53.0961609  -0.5096185  17.8923454  46.1549873  21.3790588
  18.6667423  46.4954491  21.8269711  17.1697559  46.3332863  21.9809780
  14.2079573   2.6824040  50.5730820  13.8009014   3.2307360  49.9023590
  14.9854507   2.3209481  50.1475410  75.7567902  54.1826973  65.0186081
  75.7808075  55.0727806  65.3699036  76.5400467  54.1197205  64.4720078
  54.6047363  50.6145630  40.2789459  55.3079224  50.8503113  39.6738129
  53.8916969  50.3176689  39.7135620  42.2805443  32.5410461  66.1550980
  42.9052582  32.9452896  65.5529709  42.1031647  31.6809235  65.7743607
  53.8416748   8.9198799  23.6118317  54.6318436   8.4152317  23.4189625
  53.9479599   9.1922445  24.5232887  64.3548431  42.1975937  79.9031219
  63.4061203  42.0705338  79.8985214  64.5289612  42.6723633  80.7158432
  41.8974991  17.0798817   2.7438424  42.1144676  16.1553288   2.6240108
  40.9477501  17.0895691   2.8626645  46.7904015  49.3648262  80.0339279
  47.5957146  49.7926178  79.7428970  46.4839554  49.9025497  80.7641144
  83.3648148  20.6383820  85.7218094  84.0273514  20.6247578  85.0310898
  83.1856232  19.7151546  85.9000549  85.1935577  48.3044052  82.0901413
  84.9295120  49.1074066  81.6410294  85.1226501  48.5161591  83.0209274
  84.6691055   0.2602775  36.4032516  84.2661896   0.4836363  35.5642052
  85.0893936   1.0708983  36.6904602  47.5895386  27.6727371   4.1763258
  48.3928146  27.1560135   4.1132669  46.8852234  27.0252438   4.1458492
  82.3785553  48.6073494  23.1561165  82.2822495  48.0030746  22.4200382
  81.4955139  48.6884460  23.5165329  20.7220707  31.8743610  14.4118538
  20.6838913  30.9231739  14.3117695  19.9338512  32.1932793  13.9722719
  25.0044117  43.5300941  88.6757507  24.5035191  44.3418198  88.5955200
  25.8672981  43.8102875  88.9809570  35.2291374  66.8671341  34.0870781
  36.1041603  66.5857849  33.8198547  35.3857574  67.5358353  34.7538147
  28.0625114  61.2211494  44.8996162  28.9857540  61.3743477  44.6986542
  27.6453362  61.1169395  44.0444336  74.9138031  24.4589520  14.0119553
  75.6276245  24.3002472  14.6296234  75.3064804  24.9983234  13.3255758
  63.7311478   7.9812927  22.4620857  64.0164490   7.0696449  22.4009628
  64.5419540   8.4796495  22.5644093  72.3350906  18.3340664   6.1218219
  72.2372589  19.1059971   6.6793013  71.4549179  17.9610920   6.0725732
  74.5336380  29.5612679  49.9520950  75.3142929  29.6915684  49.4137344
  74.0069275  28.9303188  49.4614754  73.8844604  69.1184998  49.6839333
  73.6605682  69.3734436  50.5789795  74.7986145  69.3830414  49.5811081
  81.7165146  58.0668907  72.5434952  82.3160858  58.7533340  72.2510223
  81.0304337  58.5349236  73.0193863   7.3178329  30.3469372  10.0431023
   6.6705542  29.6499462  10.1501770   7.0388918  30.8139133   9.2554750
  73.7780838  11.4165115  58.3764381  72.9601898  11.5602322  57.9003906
  74.3519287  12.1255083  58.0861626   8.4526892  46.2822647  45.0617981
   8.1594210  45.5037384  45.5352173   7.7385626  46.9106483  45.1685104
  72.7532883  32.4348335  76.9512100  72.4360886  31.5703907  76.6897583
  72.4506531  33.0208969  76.2575455  41.9004021   2.0440528  36.5071182
  41.0595512   2.3787262  36.1953545  42.3100929   2.7924955  36.9409637
  45.3167343  55.3700790  36.2074203  44.6099129  54.8651505  36.6095200
  45.0624733  55.4477806  35.2878838  38.5727196  63.8237381  68.8071289
  38.8552055  64.5493851  68.2504654  39.3023758  63.2046928  68.7822876
  82.5607529  37.1168098  25.5377426  83.1934509  37.7505836  25.8757572
  82.5557709  37.2644310  24.5920086  40.8108253  63.8494873  57.9862328
  40.3316345  64.0048447  58.8001556  40.2444572  63.2647209  57.4827347
  12.4604015  62.0549240  73.6309891  13.2073641  62.6377983  73.7671356
  11.6952400  62.5978470  73.8207169  15.3606396  31.1838207  12.3711500
  15.4583740  31.2190170  11.4196033  15.2808084  32.0996704  12.6377602
  18.5117493  60.4136734  52.7117386  17.7742462  59.8427544  52.9270821
  19.2697334  59.8293991  52.6940041  73.4687195  10.5413113  80.3957596
  73.9765091  11.2711725  80.7502823  73.8109055   9.7697906  80.8473129
  10.4224939  25.9118309   0.6956743  10.4569016  26.5935612   1.3667122
   9.4910669  25.7097893   0.6070437  69.4247437  63.4518242  76.9297256
  68.7565613  63.8967285  76.4083481  68.9448776  62.7746429  77.4065781
  25.0967598  20.8368454  59.3394966  25.7614326  20.9619217  58.6621513
  24.5045052  21.5814228  59.2342873  61.4316216  33.0810165  74.8993073
  61.6512375  32.9260864  75.8180008  62.2126770  32.8093834  74.4172363
   0.1291316  24.1746883  80.9471512   0.0417775  24.0913525  79.9975891
   0.2604831  23.2779827  81.2552032  41.0517082  27.3981895  66.0508118
  40.1458435  27.7060642  66.0799332  40.9794197  26.4445133  66.0119781
  77.6790924  64.2110062  25.0193672  76.7272339  64.2842484  24.9498138
  77.9134369  64.8042221  25.7330933  15.7987556  50.9687843   6.3888512
  15.3509827  51.8138390   6.3486304  16.6788158  51.1786842   6.7013679
  72.7116165   0.5076656  33.5927353  73.5205688   1.0086572  33.4886284
  73.0036011  -0.3708956  33.8358536   2.7351780  13.3352442  46.6096420
   3.0133779  12.8828297  45.8133011   1.9695208  13.8432522  46.3414459
  72.3241196  68.0708618  13.4997473  71.9212723  68.8579254  13.8664675
  72.0364227  68.0576553  12.5869017  67.9847107  41.5030556  84.7945023
  67.3775558  41.9465752  85.3868484  68.1837082  42.1554642  84.1229401
  57.4518852  34.9512978  88.4345932  57.9745483  35.4951439  89.0239029
  58.0973396  34.4859619  87.9025345  20.4525566  62.6874161  36.3985481
  19.5957489  63.0125885  36.1221809  20.4785767  62.8520432  37.3411255
  72.5151215  31.2489529  29.7087288  72.8818436  30.3821392  29.5344296
  71.6986008  31.2683678  29.2095737  65.5205231  12.8243809  35.5986671
  65.9242325  13.4631557  36.1862183  66.2522049  12.2953167  35.2809181
  60.1202469  54.6133270  19.0196533  60.9427414  54.1266174  19.0730114
  60.2724686  55.2667656  18.3369560  31.4734840  48.5684547  82.0705872
  31.8905373  47.8451576  82.5387115  31.0979519  49.1154289  82.7605362
  79.1403656  46.5150642  47.6783142  79.2210999  45.5627670  47.6250343
  78.1974640  46.6774559  47.6499901  26.5374126  55.3142624  77.4029999
  27.3159046  54.8428535  77.6995697  26.0374832  54.6643219  76.9091568
  27.1456966  12.4896841  12.0748425  26.3719959  12.4301014  12.6352625
  26.9850464  11.8550682  11.3764973  86.5644531  38.6762695   5.8571715
  86.5340652  39.5504265   6.2459579  85.7180557  38.5785942   5.4209442
  65.3354034  20.9876347  75.3626785  66.2868958  20.9587059  75.4629440
  65.1676865  20.5337429  74.5367966  35.9871292  21.0183029  78.8587265
  35.0610428  21.0619431  78.6206284  36.1613007  21.8513317  79.2968521
  76.4589005   1.2789496  89.0630646  76.6953049   1.2284527  88.1368942
  75.5042038   1.3481358  89.0631409  80.5102005  33.1115112  47.3006630
  81.3114777  33.4082222  47.7321129  80.5513763  32.1564522  47.3496246
  10.6184578  18.0545464  76.6875916  10.0838537  17.2616386  76.6460342
  10.0306473  18.7214012  77.0425797  53.0423203  39.4505119  60.4200058
  52.4461823  40.0924034  60.8057899  52.8046875  39.4297943  59.4930038
  15.3560066  39.6574478  15.3664904  16.0455952  39.1098709  15.7418051
  15.8198891  40.4129677  15.0056095  48.9111862   5.0524955  77.3159561
  48.9223595   5.6210303  78.0859375  48.9532280   5.6545920  76.5730209
  43.8715782  60.6220207  32.4709053  44.3456726  59.8230476  32.2404518
  42.9639015  60.3386765  32.5807800  30.1773949  43.7952003  15.9040937
  30.3139515  43.0312729  16.4644489  29.5081902  43.5170135  15.2787876
  43.6346550  14.1976099   5.3193517  43.1009254  14.2961617   4.5309005
  43.0039749  14.0037746   6.0128231  58.3809319   3.0349545  27.3093796
  59.2627068   2.6897440  27.1695900  57.8092003   2.4301794  26.8365135
  29.9797058  47.1121674   1.7547101  30.3791714  47.9581184   1.9572736
  30.7035561  46.4877319   1.8032205  52.8376122   3.8316736  79.6012039
  52.6087837   3.1951442  80.2784805  52.9035683   3.3142018  78.7986450
  22.0150452  62.8913841  41.5378075  21.2949791  63.5190773  41.4766960
  22.7802753  63.4248734  41.7523918  74.2604675  61.1967659  29.2537079
  74.2807236  60.2436485  29.3396873  73.5560760  61.4751320  29.8390083
  49.1058922   9.1240730  22.9432716  48.3323555   8.7909269  23.3981228
  49.1623268  10.0422812  23.2077351  71.3840790  70.8553467   8.4603176
  71.8903275  71.4227371   7.8789248  70.4862137  70.9187164   8.1346703
  56.7983131  16.8686085   4.2560105  56.0455322  17.4535351   4.1699076
  57.1293373  16.7712498   3.3631642  42.6621666  -0.3126420  37.4345360
  42.4702072   0.5656009  37.1057930  43.0890160  -0.1645171  38.2783928
  56.3792496  44.1444778  15.3058891  56.4779778  43.4860420  14.6181784
  55.5959091  43.8745651  15.7852192  54.4599991  58.3251648  33.1768303
  54.6179581  59.2683449  33.2179794  54.1892509  58.0887299  34.0639763
  69.3854675   2.2533364  13.7074404  69.6971054   1.3767469  13.4822598
  69.0436707   2.1648118  14.5971422  63.3972549  50.4315109  81.7332764
  64.3351669  50.2656898  81.6381454  63.1703720  50.9669991  80.9730072
   8.4624195  24.7945538  52.4976234   8.6023293  23.9426422  52.0842171
   8.6107559  25.4285183  51.7959671  50.5086670  13.6574917  31.3192520
  49.5625229  13.7059937  31.1825199  50.8749161  13.5894642  30.4375134
  53.3194046  70.8464661  88.4177399  52.5327644  71.1030579  88.8989792
  53.0242577  70.1514359  87.8294754  80.8837891  70.7395248  71.4555359
  80.9629517  71.6865997  71.3414841  80.2569504  70.6360703  72.1715012
  27.7089520  56.1089897   7.9799743  27.8889847  55.4256973   8.6256771
  28.2726231  55.8914528   7.2375569  40.0362434  28.4695358   4.1574616
  39.2977562  27.9870567   4.5290565  40.8046227  28.1102104   4.6009812
  70.8449020  16.0230980  73.7104034  69.9747314  15.6462727  73.5798492
  70.9969330  16.5517960  72.9270782  41.2314415   8.6316023  22.0082283
  42.1138573   8.8686056  21.7229080  40.8810692   9.4341345  22.3947678
  65.6382446  13.9254999  26.6607475  65.1309204  14.2621832  25.9221668
  65.7714233  12.9996319  26.4576149  62.1042175  12.5493946  60.2714386
  62.2091904  12.0535011  61.0834122  61.7779312  11.9084349  59.6398239
   9.0061359  17.7463512  60.0672455   9.0975227  18.1190224  60.9441681
   8.9709358  18.5064106  59.4864693   5.7483292  62.1679459  28.8890038
   5.3623772  61.9610062  28.0378571   5.1403375  62.7942924  29.2817688
  70.8823090  65.8892212  78.2224655  71.2450256  66.3362885  77.4577408
  70.4506226  65.1136780  77.8641129  41.1140747  59.9983635   2.5123789
  40.4364967  60.1449280   1.8523510  41.7511673  60.6964645   2.3607171
  85.5677719  25.0416336  27.7341251  85.9209671  25.9043770  27.5169678
  85.6531525  24.9804230  28.6855431  51.8673286  23.0156384  25.5382519
  51.1626587  23.3045807  24.9584389  52.3464050  22.3637924  25.0265770
   9.9729967  11.7249908  43.8857307   9.6881428  12.0266228  44.7483482
  10.7608156  12.2364111  43.7012825  70.5194321  71.8055649  28.7858944
  71.0250320  71.0627747  28.4559593  70.4202423  71.6309891  29.7217979
  62.0877838   6.2367954  78.0934296  62.2022247   6.8426981  77.3612976
  62.6476402   5.4911709  77.8770142  19.7870579  11.8311558   4.1056123
  20.0019035  12.6840401   3.7279086  19.3507061  11.3583956   3.3968613
  66.7138367  71.7353210  10.7611599  67.3406601  71.0196533  10.8667669
  65.8599014  71.3037186  10.7339315  22.1786232  70.4527588   9.0502663
  21.4812183  70.1293182   9.6205664  22.4579945  71.2737122   9.4555016
  29.9684029  51.1075134  37.5174675  30.2258282  50.4314003  36.8907013
  30.4310303  51.8931007  37.2258224  35.7726898  57.0310478  62.1878548
  35.9254646  56.8162537  61.2676620  35.0806198  57.6920090  62.1678162
  50.9779434   9.3741064  82.2645798  51.0723190   9.6410112  83.1789627
  50.0637016   9.5629692  82.0530853  65.6750946  52.4245033  45.5824585
  65.9851303  51.5801239  45.2551537  65.6408081  52.9841461  44.8066673
  29.0369492  35.6367188  77.7035522  29.0858231  34.9112091  78.3260345
  29.8813801  36.0799446  77.7855377  15.9898548  26.2482014  25.0209713
  16.3270264  27.1370621  24.9092808  16.6645260  25.6864262  24.6395798
  70.6693802  37.8939934  59.0725822  70.8286591  37.9895477  60.0115891
  70.5185852  36.9568100  58.9493790  17.5908451   9.7072248  11.0597630
  17.0999928   9.0841408  10.5239811  17.3367977   9.5016718  11.9594517
  20.2123241  65.5148315  47.2181091  20.8416023  64.8078461  47.3609772
  19.3606472  65.0781708  47.2038574  32.3601303  45.7513885  69.7346573
  32.2553711  46.4379539  70.3933563  31.6287632  45.1543884  69.8925400
  51.3165741  61.6164589  32.7008438  51.7569427  62.4253120  32.9617348
  51.9811020  61.1279030  32.2150993   3.1155276  63.4018517   3.0010524
   2.2945421  63.8696671   3.1539123   3.3728747  63.0809937   3.8653746
   6.8544006  -0.2338256  83.2922592   6.2518067   0.3871787  82.8830338
   7.6916480  -0.0787152  82.8550110  39.5562439  44.1896172   7.7825985
  39.2393570  43.2940331   7.6653652  40.1777763  44.1307106   8.5081720
  22.8167171  64.8684158  34.6342506  23.7285938  64.8165283  34.3478584
  22.3644447  64.2033844  34.1152000  47.3228188  56.8586960  33.9883652
  46.4173050  56.8645134  33.6781349  47.7187424  57.6318474  33.5862274
   1.5527877  29.1213760   9.8465805   2.2421308  29.3015385   9.2073784
   0.7560728  29.4659386   9.4431524  66.6555634  46.5884361  68.1291580
  66.1349792  45.7894020  68.2114334  66.0604172  47.2218094  67.7280807
  81.0146713  30.6976948   6.0927429  80.8469391  30.4594955   7.0045328
  80.7367325  29.9319515   5.5901294  66.4549561  45.3334122  23.3739834
  66.8786545  46.0641060  23.8243179  67.0964966  45.0488052  22.7230949
  38.3446236   2.0246418  59.6202240  37.9798279   2.8685806  59.3539047
  39.2894173   2.1734252  59.6584053  23.5487289  21.6171474  30.8879642
  22.8332462  21.5806122  30.2531567  24.1667423  20.9492378  30.5909996
  55.2884979  49.0867195  49.1093178  55.1213570  49.7767677  48.4673424
  54.5158653  48.5236359  49.0623398  59.3481636  16.9664574  51.6773911
  58.6570625  17.5912113  51.8971405  59.8696899  17.4113808  51.0093422
  31.6756477  33.8214302   9.7791166  30.9125481  34.3931046   9.8633709
  31.5154552  33.1144371  10.4042044  78.6997986  52.3070755  42.6830750
  79.3526764  51.6316986  42.8670464  78.6010056  52.2917175  41.7311096
   3.8463807  30.7913609  11.9710350   4.3790226  31.3619785  11.4170313
   3.0479736  31.2934494  12.1343861  73.3347778  51.9757080  49.8202667
  73.5968933  51.4670868  50.5876198  72.3842468  52.0560112  49.8994102
  42.8566666  49.5447426  69.8754349  42.8028107  49.0795059  69.0406418
  42.4745979  48.9401817  70.5116425  10.1446304  69.4015045  50.3990211
   9.9872255  69.5738373  49.4707146  11.0498400  69.6770172  50.5436478
   3.9778223  52.8052101   9.7858305   4.4006615  53.1177902  10.5856638
   4.5975924  52.1754799   9.4176502  87.0449448  20.4073658  30.0044823
  86.4371872  20.6662350  29.3117714  86.7969131  20.9474010  30.7548676
  78.7487869  34.5246849  39.8066101  78.4751053  34.1087303  40.6241150
  79.6467285  34.2214470  39.6724892  40.5746422  69.7928543  30.5454636
  41.4178467  69.9687805  30.9629402  40.4342461  70.5406952  29.9647274
  80.1899261  59.2177010  13.3197851  79.6798096  58.9438515  12.5575390
  80.2690125  58.4260674  13.8520365   2.8054540  13.0342531  29.6142006
   2.2813275  13.7212687  29.2024574   3.0196028  12.4352589  28.8989544
  38.0588875  30.1061153  81.4266586  37.3100204  30.5932026  81.7704239
  37.6831474  29.5236855  80.7664871  68.0805511  68.5759201  82.0891342
  67.1258926  68.5321121  82.0349350  68.2711868  69.5062180  82.2092819
  56.4570236   1.1626948  66.1637802  55.5149841   1.2822732  66.2841568
  56.6214714   0.2615133  66.4413757  39.4026413   6.3687334  27.4838810
  38.4985466   6.0953679  27.3285809  39.7965851   5.6357598  27.9569435
  83.6693726  42.1538277  18.7682343  84.1603546  42.9252510  18.4852638
  83.9951859  41.4455490  18.2128773  39.8028641  63.7896957  42.4413681
  40.5490875  63.2708664  42.1410294  39.9520607  64.6600266  42.0719223
  35.1996536  67.7316589   0.1747494  35.3180161  68.6811829   0.1499386
  35.7643814  67.4384995   0.8898556  13.7742548   4.3075628  63.7430267
  13.0812454   4.1164374  63.1110115  14.4111042   3.6035702  63.6203537
  29.8869686  15.8466148  17.0547161  30.8252048  15.9603863  16.9030476
  29.7822113  15.9554567  17.9999199  67.6728897  47.7486153  38.2536850
  67.6533127  47.7419853  39.2106628  68.1462479  46.9506531  38.0182724
  25.2722149  68.8752060  61.6602211  24.9531479  69.7083740  62.0070000
  26.2162991  69.0011978  61.5650253  33.9453735  67.3923035  24.8177452
  33.1075211  67.3216858  25.2751827  34.3779030  66.5538330  24.9793434
  29.7479630  25.4572430  10.2769003  30.0791492  25.6521301   9.4002209
  29.1805096  26.1984081  10.4888020  81.9706421  21.9370937  56.2736053
  81.9845276  22.1363449  55.3374786  81.6941299  21.0218582  56.3196030
   0.9954203  12.4369917  87.1108627   0.8932889  11.9265976  87.9141693
   0.1395817  12.8435745  86.9749832  59.0471535   9.0428696  73.8095779
  58.7829208   9.9337530  73.5799179  58.2522278   8.6397200  74.1585617
  74.4739227   1.4446242  67.2180481  73.6206055   1.5092336  67.6468887
  74.4737854   2.1547244  66.5761871  65.0766144  10.3227921  82.6232452
  64.3611526  10.1218338  82.0199585  65.7146225  10.7958698  82.0890350
  32.9492302  62.4970932  10.6848593  32.2768707  62.2466202  11.3184423
  32.9418335  61.7927589  10.0367174  50.1194496  61.3826103  24.4186573
  49.2343063  61.6548882  24.6607666  50.6047096  62.2022476  24.3240376
  59.8149185  67.3131714  27.1364441  59.0145531  67.4701843  27.6374397
  59.7093620  66.4280853  26.7875824  86.5164261  62.3059578  74.5797653
  86.3156204  61.9452629  73.7161636  87.2977524  61.8305283  74.8621368
  35.1960640   5.3319831  83.8190765  35.6604538   5.2496104  82.9861298
  34.5438690   4.6316218  83.7999573  18.6637764  53.1714745  23.9040756
  17.8460445  53.6149445  24.1296387  18.6463318  53.1080513  22.9491386
  76.4526138   7.3220243  88.8951035  76.2601242   6.5321422  88.3898621
  76.1763840   7.1093736  89.7865677  36.5086517  11.0925369  79.2047653
  35.7445450  10.9400721  79.7607574  36.4654694  12.0239859  78.9885025
  46.9593315  50.4965553  83.9807663  46.6984634  49.6029930  84.2037582
  46.5100632  50.6782913  83.1553192  68.5499496   5.4748955  15.5297184
  68.4911041   5.4399681  16.4844685  67.7265472   5.0936866  15.2248955
   6.9469614  25.5467453  84.4901962   6.4740047  25.8615513  85.2605515
   7.8709698  25.6511230  84.7172318  39.2542076   8.0119276  35.3771667
  38.6763039   8.7677526  35.4819794  39.2568626   7.5913906  36.2370377
  64.5490646  40.1837883  18.7530193  64.4109955  39.9398994  17.8377666
  65.2497864  39.6043854  19.0521946  79.5100250  64.5476227  60.4453163
  78.9295349  65.3078690  60.4812431  79.0705109  63.9385109  59.8519859
  55.8539886  29.3073883  21.5350666  56.3886757  29.6427937  22.2546806
  55.4829254  28.4919987  21.8722343  70.5764771   8.5774517  55.5131493
  69.8352966   8.0196810  55.2769775  71.0246277   8.7440777  54.6839180
  81.3085709   8.4157887  42.7747002  80.8598709   8.2463312  43.6030617
  80.7564163   9.0592365  42.3304787   5.9988694   3.2697072   6.2362528
   5.1796570   3.1356549   5.7596474   5.9767389   4.1906419   6.4962935
   0.4742515  34.5433235  77.2442856   1.3923936  34.4370193  77.4931793
   0.4088026  35.4527817  76.9530258  66.0353012  31.1793270  63.1275749
  65.6843109  30.9062080  63.9751892  66.0860519  32.1334229  63.1855431
  80.1886139  15.8951902  50.1927032  80.3796921  16.3938007  49.3982811
  79.6218567  16.4707870  50.7062378  20.0649624   6.8863759  16.5028744
  20.3875504   6.1259694  16.9865589  20.8474045   7.2646208  16.1016903
   5.6593823  64.0900726  59.0236359   5.0281444  64.0799408  59.7431259
   6.4956136  64.2957382  59.4415474  46.7237930  44.0121841  68.8467407
  47.2857170  43.6401634  68.1669846  45.8441391  43.7080154  68.6233139
  30.8460426  11.1052237  85.0099716  31.2170372  10.2379093  85.1723404
  30.0952530  10.9415588  84.4392166  15.5293589  55.4180832  42.9262009
  16.3282928  55.6979103  43.3730049  15.4057684  54.5100746  43.2027512
  81.0767975  63.5090218  84.9897614  80.6693192  62.6545181  84.8482895
  81.0401001  63.6379089  85.9375305   5.7605224  25.5652618  82.0581512
   6.2240772  25.5970707  82.8950119   4.9752154  26.0940895  82.1990967
   9.3961868  48.0870628  79.5532227   9.0404205  47.4038162  80.1214066
   8.8770266  48.0261040  78.7513580  54.2959175   6.9386992  10.5562439
  55.1689301   7.1019721  10.9132042  54.0117035   7.7887468  10.2202797
   6.9595857  28.6234970  52.9359131   6.8813605  29.5700912  52.8172836
   7.4549675  28.5241280  53.7489052  56.1147766   2.4881608  82.5271149
  56.4270668   3.0173428  81.7931747  56.3622360   2.9879031  83.3050995
  24.6951466  54.7354126  18.1036358  25.3857384  54.2140427  17.6943817
  24.1663570  54.0979996  18.5835533  73.5430908  31.6447620  25.4545383
  73.3905716  32.5897293  25.4558830  74.2749786  31.5211411  24.8501434
  60.1538353   4.1478992  88.5108490  59.9548645   3.2194133  88.6315079
  59.3637199   4.6021538  88.8034286  62.0110855  71.6762085  35.1357155
  61.6729813  70.9581680  34.6006126  62.8453712  71.9070969  34.7271957
  25.1929531  61.5818787  77.0990524  25.0158596  62.5071678  77.2684784
  25.5673428  61.2559052  77.9174652  54.0033875  42.9986305   9.1374111
  54.4943085  43.8173981   9.0678234  53.4707069  42.9704590   8.3426208
  78.5094528  30.7362843  79.3639374  79.0333862  30.0065575  79.6944275
  79.0618057  31.5068169  79.4959259   6.5333586  33.9841003  68.0108109
   6.7357011  33.8254013  68.9328232   6.9824371  34.8039055  67.8047104
  59.5617027  62.3189125  74.8377533  58.9309158  62.9051361  75.2556992
  59.8607635  62.7998123  74.0660477  57.9986229  29.2451019  86.1910934
  58.5715179  29.8225994  86.6955948  58.1626358  29.4826679  85.2784653
   0.7386369   6.5256438  38.5016975   1.6730562   6.3730702  38.6424561
   0.7056954   7.2494712  37.8762207  27.4623032  55.9642754  61.2583656
  28.3879948  55.7437019  61.1550446  27.2542934  56.4918976  60.4872742
  28.6290817   1.9514304  39.9099007  28.9189968   2.3548353  39.0917053
  28.9869633   2.5158243  40.5951843  15.5318422  69.3663635   9.1021833
  15.6832952  70.0842361   9.7169676  16.1769886  68.7024536   9.3455715
  14.5443220  54.5711098  19.1777992  13.8118620  53.9767952  19.0149403
  14.1339703  55.3758316  19.4944458   4.8733253   1.4674492  82.6455231
   5.2179351   1.8066473  81.8194351   4.0016837   1.8561254  82.7190247
  18.5546284   7.5361700  53.1059303  18.0566654   8.1765690  52.5978432
  19.4519520   7.8692956  53.0975838  71.2046509  40.0049782  13.5771456
  71.1156158  40.4756699  12.7484379  71.7011871  40.6003418  14.1385994
  56.7787170  65.6380539  81.6975632  56.0118446  65.8006668  81.1482925
  57.4906731  66.1037216  81.2588120  73.4808960  27.6616554  59.9194946
  73.2893982  27.7131405  58.9830589  73.0080643  28.4009876  60.3016548
  18.6373119   0.2567933  87.4751587  18.1162930  -0.1190681  86.7655869
  18.2183838   1.0972155  87.6606903  24.7289848  37.3170280  81.6819229
  25.0768280  37.8072853  82.4268265  23.9138260  37.7665176  81.4589691
  59.2579842  26.6501331  40.4962959  59.3926125  27.5906696  40.6124687
  58.3607330  26.4981556  40.7930641  84.8548889  21.5700645  41.8625450
  84.6113510  21.0627022  41.0882683  85.1759796  20.9177227  42.4851036
  17.4763107  14.4565821   5.2232308  17.4451122  14.4232054   4.2671218
  17.5036678  15.3908911   5.4295073  28.2944851  55.9591751   0.8298964
  27.9892368  56.3254623   1.6598893  28.0214634  56.5979462   0.1713670
  32.9542389  10.6259060  87.2495499  33.3783951  10.8207331  86.4138641
  32.2040977  11.2196198  87.2815628  80.3685379  50.6292953  80.4120865
  80.5118484  50.0069122  81.1250610  79.9902878  51.3985252  80.8380508
  69.6882935   4.0209274   0.0993692  69.3493423   3.4714279   0.8060461
  70.5889282   4.2157807   0.3584483  30.0494614  31.3872776   7.8620543
  29.1983852  31.7263508   7.5846872  30.6342106  32.1438980   7.8193069
  55.0944252  60.8388176  33.4942856  54.8617172  61.1102943  34.3821907
  55.9881668  61.1591263  33.3723831   1.0595056  24.3110962  63.3114128
   1.8802279  23.8936348  63.0499268   0.5612751  24.3902874  62.4979439
  78.8337097   6.8358617  61.9592934  77.9353561   6.6979156  62.2595711
  79.3767624   6.5952044  62.7099037  37.0204239  27.4316597  72.0490189
  36.8954964  27.5401764  71.1062317  36.5500832  28.1683292  72.4393082
  30.1661282   4.4659209  33.2818604  29.5302753   5.1370215  33.0337753
  30.8881111   4.5798893  32.6638145   4.2601638  64.5690308  28.8579407
   4.3016930  64.8318710  27.9384747   4.3417215  65.3888092  29.3453140
  53.1291046  44.7748604  15.4063921  52.8705139  43.8741341  15.6014509
  53.0008965  44.8616409  14.4617949  24.0633774   2.1725183  21.0703735
  24.1799297   1.3306648  20.6299992  24.1690807   1.9729085  22.0005417
  67.3644867  36.9370308   2.8693142  67.6991882  36.2459259   2.2978418
  67.3470688  36.5401917   3.7402029  82.1721802  36.2761688  79.5209122
  81.8799438  36.1260109  80.4199524  82.0303650  37.2116585  79.3760605
  13.4321432   3.9705484   1.3766557  13.6015692   4.2183738   2.2855613
  14.0774298   4.4633837   0.8697538  75.1554031  44.5487061  24.7155418
  75.9899063  44.9627991  24.4956093  75.2892075  43.6213722  24.5196323
  15.5467854  51.6111641  32.6931152  15.7244673  52.5135956  32.4280128
  15.8519058  51.5631943  33.5991135  67.9599762  28.9838142  68.6724548
  67.1199493  28.9334736  68.2163315  68.0058441  29.8852425  68.9911346
  65.4039917  38.0776939  52.7481117  65.1525574  37.3377800  53.3008652
  64.6843109  38.7018509  52.8414803  78.2743149  40.7160034  11.3054590
  79.2303619  40.6905632  11.2660904  78.0027313  39.8184128  11.1136112
  85.6393661  56.6691208  88.3264542  85.8643723  57.4137077  88.8843002
  85.9923706  56.8985786  87.4668198  59.9962959  71.8527069  52.3429298
  59.7862167  70.9331818  52.1799431  60.4594612  71.8477402  53.1805954
  33.0080109  18.7182484  14.8066053  33.8534203  19.1584797  14.7187815
  32.6077003  18.7934151  13.9403877  70.7712021  40.0356522  57.6431847
  70.3975525  39.2475739  58.0375862  70.6179123  39.9293823  56.7043304
  11.8953676  53.7861748  77.8897095  12.0708761  53.1013603  77.2443695
  10.9404945  53.8253784  77.9436722  43.8246994  59.6414108  64.2182236
  44.0913506  59.8430710  63.3213081  43.4396553  58.7668304  64.1627197
   6.9155450  24.4822693  67.9873047   6.1238108  23.9669151  67.8330383
   6.6209741  25.2196751  68.5218048  49.0290108  68.6382828  24.5031242
  49.6607094  68.2274246  25.0933628  48.1883469  68.2485046  24.7430954
  48.1222267  42.1158066   3.0370090  48.9409294  42.5244675   2.7560258
  47.8556404  41.5768089   2.2922640  77.7139664  22.9411507  49.6406746
  77.2446060  22.7272358  50.4470062  78.2338028  22.1599407  49.4516945
   2.3314402   3.2949865  71.9493256   1.9585749   4.0130215  72.4608231
   3.1422274   3.0712280  72.4062576  27.8207512  67.8046570  37.9039307
  28.4717922  67.4674988  37.2885437  27.4763412  68.5913239  37.4811134
  66.4097443  61.7415390  70.6872787  65.5260620  62.0480194  70.8907700
  66.2791443  61.0418625  70.0472565  28.4322681  67.4825287  73.3624725
  28.6600914  68.2912369  73.8210831  28.1058025  66.9014206  74.0494690
   1.2760148  38.8784904   9.5332584   1.2498606  38.8687019   8.5764656
   1.8109672  39.6419640   9.7504387  61.4585152  58.4393387  18.9630089
  60.9919357  58.2677193  19.7809849  60.9726944  57.9459686  18.3021030
   7.5332890  44.5761757  15.1430397   7.7488446  43.6995392  15.4612808
   6.7509832  44.8241882  15.6357059  31.6105690  46.2962494  12.8523588
  31.1560555  46.3574562  13.6925383  32.3361053  45.6936798  13.0158796
  61.2196960  51.6875000  56.5245934  61.0145149  50.9617653  57.1140404
  62.1270065  51.5332069  56.2615128  17.3865376  62.3533707  12.0463047
  17.2121487  63.1727791  12.5093317  17.1335373  61.6693916  12.6663017
  17.5537224  42.8332253  44.0677490  17.3778820  42.4356422  44.9205284
  17.5571003  42.0968056  43.4562683  30.0085125   9.8585310   0.3613885
  29.0743103   9.9998922   0.2080474  30.3733749  10.7394381   0.4457191
  72.9232025  17.8741856  60.2855682  72.8131256  17.9532852  61.2331200
  72.1029892  18.2062836  59.9206123  59.7713242  55.1198502   7.4234581
  59.3657608  54.7295647   8.1976862  60.2840157  55.8523865   7.7651739
  53.4295044  51.5176277   5.5827932  53.6972847  51.7662010   4.6980700
  52.6142311  51.0316772   5.4586315  60.6502380  39.7995262  64.0313568
  60.1260338  40.0740547  63.2789764  60.4122887  40.4136620  64.7259445
  40.3805618  64.5426865  54.9458809  39.5094185  64.2333832  54.6975327
  40.4016495  64.4590683  55.8991890  81.9669724  33.0024719  30.9893456
  82.7237854  32.4471321  30.8020935  82.0908966  33.7716751  30.4332867
  67.3216400  22.6955395  55.1140137  67.8383408  22.6369247  54.3103867
  67.3194733  23.6280766  55.3298836  64.1638336  33.3338890  23.5451412
  63.5536423  33.3760033  22.8088493  63.7907600  32.6724663  24.1278648
  45.6234398  65.5672302  86.9934235  44.8878403  65.9839172  86.5445328
  46.1703529  65.2222290  86.2876663  59.6996269  12.5757799  47.1448898
  60.5708733  12.1969795  47.2617989  59.8273544  13.5152950  47.2761497
  27.8850632  16.6067810  72.8244171  28.3230534  16.5488815  73.6735611
  27.8588371  17.5440464  72.6318665  15.5520220  70.2952652  87.5998383
  14.6842880  69.9011917  87.5105209  16.0347290  69.9880524  86.8324738
  33.6887131  63.7502480  37.9177742  34.6439095  63.6923141  37.8960190
  33.4082680  62.9306984  38.3251114   9.6862068   6.3614297  29.3149662
   9.1788139   6.2409644  28.5123005   9.9970627   7.2655492  29.2683964
  40.9288139  53.5691643  14.6128454  40.3544807  53.2205544  15.2946386
  40.5277977  53.2826576  13.7922773  84.5673904  69.1135483  36.1147766
  84.7338333  69.9128265  36.6144638  83.7062225  69.2524414  35.7206497
  71.6644669  29.9767437  76.3328934  70.9564362  30.3669300  76.8454056
  71.2709427  29.7964897  75.4791489  57.3963585  58.1532898  73.6028290
  57.1333542  58.9771271  73.1925201  58.2979546  58.3042107  73.8866959
  58.1267929   9.4852180  14.3727169  58.1010551   9.7393751  13.4502344
  58.0177956  10.3072948  14.8507776   6.9781966  22.6252289  10.1992130
   7.4338026  23.4656029  10.1499462   7.6252322  22.0231819  10.5667934
  31.1723156  27.5696907  41.8616638  31.9438763  27.9753571  41.4662437
  30.8018551  27.0290928  41.1639938  54.2549438  10.9905310  42.5150185
  54.0009422  10.4201460  41.7895012  53.8006287  11.8150549  42.3418503
  66.7083511   5.7990608  42.4872093  66.0708084   5.1525092  42.1843147
  67.1848755   6.0538960  41.6971397  10.3053522  58.8613815  25.5408421
   9.6198254  59.4766731  25.2806492  10.4940395  59.0844650  26.4523602
  13.0607243  49.7943840  50.5444336  12.9358797  49.3327522  51.3736115
  12.2112856  50.1971664  50.3642883  34.3001289  45.0968475  19.5199337
  34.1781311  45.8524628  20.0947323  34.9453011  44.5534401  19.9723644
  56.4733315  24.2927475   7.1275506  56.8639450  23.6530838   7.7229381
  56.3663788  23.8184128   6.3030515  31.0870838  61.8610039  26.3668480
  30.2416706  61.4121017  26.3674030  31.5260296  61.5460320  27.1570072
  30.6644573  48.1222458  47.9606133  30.2985058  47.7217865  48.7492447
  31.4890327  48.5123672  48.2506332  15.4233503  37.9974136  77.9451828
  14.8222980  37.6815567  78.6198730  14.9151115  38.6438522  77.4552460
  81.8244247  18.6972122  50.9772758  81.1178818  18.4449139  51.5717278
  81.5679245  18.3305397  50.1311150  20.6677113  28.1529160  80.9599533
  20.0253220  28.5934124  80.4035950  21.0361080  28.8519840  81.5001526
  83.8886032  50.6945229  31.1441212  84.0186768  50.2652893  31.9897404
  83.3204193  51.4398613  31.3387356  55.8653946  49.6544266   1.4340541
  55.4650955  50.5006180   1.6339233  56.4050903  49.8213196   0.6613279
  57.2803001  10.1662674  36.1809769  57.8962822  10.3432570  36.8919411
  57.7943993  10.2880211  35.3827858  68.5627136   0.6281482  35.2297630
  68.5303802   0.5094460  34.2805023  68.5229645  -0.2603103  35.5837288
  12.0564413  21.5815544  63.8320084  11.1728830  21.8465843  64.0875778
  12.6339903  22.1342258  64.3585281  72.8987350  21.4052811  72.0606155
  72.1032715  21.7945194  71.6973495  73.0741501  21.9137287  72.8524094
   7.3619976  56.7904625  26.7497730   7.4346724  57.6860237  27.0798073
   8.1588078  56.6591911  26.2358742  49.3748131  42.7328072  10.8882055
  49.7081604  41.9301872  11.2893467  50.1522980  43.1641808  10.5337067
  13.6494141  29.9130096  13.9811392  14.2390947  30.5961590  13.6620522
  13.4071102  29.4203358  13.1970520  51.0731468  44.7990227   4.8308334
  51.0504189  45.7402306   5.0035863  51.7290306  44.4595184   5.4397516
  50.8919983  57.9426613  63.8240013  50.8896599  57.1367073  63.3076019
  51.7793770  58.2877197  63.7254028   2.4425638   4.4072032  22.1999989
   1.5393978   4.6313629  21.9757748   2.8659499   4.2467403  21.3566551
  69.5372467  36.8279266  49.9406090  68.7426834  36.2990913  50.0130234
  69.4129639  37.5348892  50.5738487  24.1985912  21.3887310   5.0267973
  23.5511398  21.9626484   4.6173348  24.1471062  20.5742798   4.5265479
  32.7958260  49.1228676  18.7587700  33.7341690  49.2400246  18.6103878
  32.3949051  49.2990761  17.9076252  53.2100449  51.7097282  34.2963295
  52.4243469  52.2563591  34.3066788  53.5757904  51.7993660  35.1763458
  78.5499268   6.2416515   7.1132240  78.3138809   6.5262976   7.9961128
  79.4674377   5.9781790   7.1837969  60.3155441  18.3321342  46.2342682
  61.0658112  17.7377453  46.2284012  60.4999161  18.9435329  46.9473076
  85.0585709  27.6727829  21.4775982  84.3518448  28.3014793  21.3309250
  84.6387939  26.8166504  21.3936024  47.1526070  60.9765282   1.0290922
  46.9012375  60.3066139   0.3932745  46.9499893  60.5873528   1.8798119
  23.9343662  10.8116064  46.3215256  24.3670635  11.3741817  45.6792526
  23.6129074  10.0684719  45.8109894   5.0896416  36.9716339  84.5340042
   5.3533015  37.6485291  83.9106827   5.7273898  36.2689552  84.4084930
  59.1655159   6.8314271   8.9350271  59.9588585   6.9269800   8.4080439
  58.7265205   7.6789570   8.8628626  44.2778091  57.6040306  17.8017712
  44.0667458  56.8240891  18.3149738  43.5167618  58.1745682  17.9091339
  70.7440109  44.2018242  84.0460892  71.6242142  44.1891670  83.6701660
  70.8772812  44.0103493  84.9744263  35.1952667   9.9732180  12.9205809
  35.3788033   9.5641241  12.0748930  34.7955704  10.8140583  12.6981792
  71.7945404  41.2905769  87.5851288  72.7335510  41.2097969  87.4179001
  71.3844910  40.7358742  86.9215088  49.6052742  42.0426445  25.0016155
  49.6924973  42.6102524  25.7674122  48.7198372  42.2102089  24.6788883
  64.0480881  57.3719864  66.8846054  63.7743835  56.6189194  66.3609543
  64.7409363  57.7836952  66.3681870  53.5790749  69.6585236  11.7639217
  54.1897545  70.2811737  12.1584005  52.9282417  69.4960403  12.4467468
  41.9441605  44.9609413   1.9153647  41.7964058  44.1093292   1.5040762
  42.1594620  44.7536240   2.8247037  44.7678185  63.1825294  88.5636063
  44.6998863  64.0829010  88.2458801  45.4153900  62.7740402  87.9891357
  65.7305069   3.6856520  29.6277733  66.4070282   4.3525867  29.7450161
  66.2109833   2.9008315  29.3642807  18.5635452  42.5549545  22.1100464
  18.6428795  41.6011696  22.1252975  19.3458557  42.8529739  21.6459255
  74.7062531   6.2130480  43.2359238  74.9223175   5.5196328  42.6124458
  73.7667694   6.1128998  43.3894463  50.9034500  38.5730515  29.4854412
  51.6623497  39.0825348  29.2013130  50.1510582  39.0439720  29.1271477
  40.5401802  51.2573700   9.8839474  41.2839470  51.7331009  10.2537060
  40.8761559  50.8832359   9.0694685  27.8113041  48.2173386  29.4237480
  26.8865509  48.4564667  29.4860497  27.9707603  47.6741562  30.1956024
  21.7152462  43.2016678  73.0164261  22.6458836  43.4252510  73.0038300
  21.3207588  43.7815933  72.3650436  34.9821548  11.4888430  35.2001381
  35.8394585  11.0926971  35.3561249  35.0777969  12.3927288  35.5002632
  14.4589157  61.9810257  57.6032219  14.3324099  62.9256287  57.6924019
  14.8074980  61.7049751  58.4508781  68.1924133  42.2519608  88.7305222
  68.5443649  41.9147797  87.9067078  68.2917480  43.2015648  88.6625900
  38.5593262  32.1980324   0.7493738  39.1506004  32.0754356   1.4920696
  39.1302910  32.4707909   0.0311562  59.2151756  31.2500477  11.7098484
  59.5611343  31.1530247  10.8226442  58.2748032  31.0965595  11.6183500
  68.6285477   4.4533849  66.0517197  69.2044678   4.5975103  66.8025665
  68.4485016   5.3314867  65.7159348  80.0701218  62.8153305  19.7960815
  79.6479797  62.0862198  20.2504215  80.7185669  62.4000320  19.2275105
  19.8141079  35.0806465  67.1459122  20.3711777  34.8864822  66.3921204
  19.4476185  35.9444313  66.9567184  35.2590294  33.5945549  61.8461113
  34.4050217  33.8302155  62.2085571  35.3585930  32.6651764  62.0524445
  66.1885300  11.5207138  80.5446777  65.9643097  12.4512815  80.5466156
  67.1416473  11.5041771  80.4579468  74.4595718  46.7379189  79.0164566
  75.3952713  46.6219711  78.8513641  74.2348633  46.0345345  79.6255417
  24.1887569   5.3613129  71.8979416  23.9905090   6.0707130  71.2866516
  23.3320141   5.0541720  72.1943970   5.9696355  14.0745821  15.9516401
   5.2260909  14.6723680  15.8740206   5.6040945  13.2112999  15.7583685
  10.1086025  27.6248016  79.6634064   9.4026346  27.6990509  80.3055344
  10.8730278  27.9961338  80.1038666  73.9131546  13.8964443   2.9427829
  74.4744110  14.5924692   3.2844920  73.5119247  13.5087566   3.7205646
   1.5138304   2.0041888  38.6274834   1.4291171   2.4980083  37.8118858
   1.6264632   1.0959688  38.3469810   9.3250313  20.4141521   1.7967153
   9.4576864  19.7729855   1.0984744   8.7141056  21.0503139   1.4248279
  40.3121185  39.2155495  51.6289520  40.3615379  40.0245018  52.1382484
  40.9816132  38.6494331  52.0130386  56.1528969  47.1919212  18.4278564
  55.9533501  46.3285255  18.7897396  55.4061508  47.7354202  18.6792755
  79.3532104  60.8590698  76.2507248  78.7440796  61.5849571  76.1155396
  80.1476822  61.1235352  75.7869186  65.3279343  64.6619492  43.2160187
  65.8010330  65.4272766  42.8893852  65.7921219  64.4170914  44.0165215
  25.4572697  30.0226135  88.2169876  25.1591816  30.8162174  87.7725067
  25.0851727  30.0866070  89.0965805  75.0422745  50.3735580  51.4893913
  75.8358078  50.2705269  52.0146637  75.0553284  49.6295662  50.8872757
   0.6940367  45.2059593  14.2648764   0.2623422  44.5731964  14.8388815
   1.5263414  45.3939438  14.6986532  63.4045906  15.8876181  65.4784927
  64.2787018  16.2771072  65.4998627  62.8122559  16.6186981  65.6542587
  39.7609901  42.8822975  77.5018005  38.8540421  42.5873795  77.4199524
  40.2745514  42.2006340  77.0684204  55.1916161  33.5963745  51.5716820
  55.7352753  33.0932426  50.9654427  55.2281647  34.4929771  51.2385178
   3.6257889  37.2335129  15.2131987   4.1037865  36.4063873  15.2732620
   2.7431507  36.9809418  14.9422941  12.6177168  65.8987503  37.0345154
  11.9391241  65.5947952  36.4317284  13.4107895  65.4435349  36.7515831
   2.9009173  20.8966503  31.0494652   2.1925623  20.9972496  30.4135857
   3.6837549  20.7589016  30.5161533  48.5363045  34.9995384  85.4608994
  48.0436592  34.7756348  84.6713409  47.8657227  35.2238922  86.1060562
  12.5499296  41.3351097  37.5635223  12.8412495  41.7742004  36.7644196
  12.4431658  42.0420609  38.1999550   8.1587982  67.2780457  82.7344131
   8.9808817  67.5298080  83.1551590   8.0640297  67.8927841  82.0068512
  55.2578773   7.1412921  15.3450451  54.6252365   6.5263715  14.9737396
  54.7207069   7.8181114  15.7568607  59.7145157  30.6102657  27.1251926
  60.2334480  30.0840244  26.5169067  59.6645470  30.0784874  27.9195137
  60.1045799  11.9498510  76.8462296  59.5067215  11.2581158  76.5628586
  60.6909866  12.0797768  76.1009293  11.2203407   3.0884535  29.6855431
  11.3059902   3.0731270  28.7323055  11.2004356   4.0189199  29.9092999
  65.4922714  31.4227238  78.7848053  65.7788544  30.6492844  78.2991257
  64.8376923  31.8319759  78.2188873  73.7730331  43.3776398  61.1893158
  73.4132004  42.7600594  60.5526466  73.3225250  44.2017555  61.0046196
  30.6626816  29.2551022  86.5369797  30.6020832  28.3061390  86.4273148
  30.0335197  29.4568310  87.2295837  79.6070938  16.4909573   0.4012459
  79.9638672  17.3304939   0.6912889  79.5253143  15.9754333   1.2036037
  15.6496162   1.4312088  68.6603241  15.3493834   1.6177206  69.5498810
  15.5516520   0.4834984  68.5682449  82.8627701  14.5266027  43.1049500
  83.0085068  14.4468107  44.0476189  83.1646347  15.4091043  42.8897781
   1.4602809  65.7537231  80.2301254   0.6456401  65.3033066  80.4531021
   2.0360177  65.5913467  80.9773788  58.4920692  52.3863297  42.6812248
  58.5141258  53.3260651  42.5005493  58.7662659  52.3116646  43.5952644
  80.8400574   0.5216524  27.9416256  80.0384293   0.5879925  28.4605007
  80.5511703   0.6460382  27.0375767  52.4476814   7.9860373  36.2093773
  52.7037697   8.3606720  37.0521698  52.8138313   7.1016893  36.2192039
  83.9563141  27.9968376  58.9211349  83.0695496  28.1453686  58.5927734
  83.9294968  28.2997169  59.8287544  73.6546631   3.4372871  26.6691742
  72.8630981   2.9081149  26.7673473  73.4424057   4.0588527  25.9728718
  74.1967392  51.6244659  55.4637413  73.7073593  52.2167816  56.0346146
  74.8973007  52.1662636  55.1005516  56.2461700  61.8779488  83.6864548
  56.7419090  61.5324898  82.9440765  56.7663918  62.6185760  83.9980164
  50.4452286  60.3294220  61.7191620  50.0856628  59.5661507  62.1712303
  50.8553352  59.9705238  60.9322472  59.4743156  59.5399895  21.6963196
  58.8917732  59.0191689  21.1434879  58.9304695  60.2672234  21.9989681
  35.7266846  53.3075790  83.3605194  35.8810501  53.3323059  84.3048630
  36.2991257  52.6094513  83.0424576  35.1886597   6.2341566   6.6777701
  34.3236732   6.6281142   6.7910314  35.0940704   5.3457584   7.0213308
  72.0954971  45.4323349   8.8520489  72.4705582  46.0708847   8.2455711
  72.4990463  45.6373291   9.6954689   0.6248575   4.3810253  59.8170586
   0.8329297   3.9551060  60.6486435   0.5355206   5.3079681  60.0384827
  66.2022247  58.6229858  34.8410606  65.8841934  58.9939919  35.6641312
  67.1195297  58.4102058  35.0128746  65.9394150  35.6298943  48.3473396
  66.0806808  35.4452782  49.2758827  65.7951355  36.5754356  48.3103828
  41.9768105  12.4620047  75.5686188  42.1551285  12.0516014  76.4147873
  41.7576408  11.7318697  74.9897385  85.9193497   4.9552975  71.2428741
  86.2366714   5.8568549  71.1906052  85.4138336   4.9260254  72.0551682
  58.1226540  40.0435410  40.1645889  57.5573502  39.3697510  40.5423126
  57.6920624  40.8692284  40.3860893  63.2614365  19.8292675  68.8752365
  63.0130386  19.5919685  69.7686691  62.4303055  19.8948212  68.4049683
  64.5489349  15.2801189  28.8471718  64.3818359  16.1718025  28.5418682
  64.5816727  14.7552919  28.0473480  54.4336014  29.3561630  19.0285301
  54.8593178  29.1939201  19.8703575  55.1447983  29.3173618  18.3890572
  65.1692276  16.1804581  14.1582890  65.3961105  15.9653215  15.0629835
  64.7515717  15.3879118  13.8211508  70.8336868  14.1358042  77.3268204
  71.5319290  14.5360117  76.8086319  71.2370987  13.3579378  77.7120743
   7.8169937  63.5672722  52.3153191   8.1976061  64.0395050  51.5748062
   7.6489854  62.6875458  51.9775467  81.8771439   8.3030062  87.6962433
  82.1055832   8.8762722  88.4279633  81.0202560   7.9461746  87.9300079
  37.1397972   1.4711273  56.5303879  37.9827461   1.6476927  56.9481087
  36.5082664   1.4863230  57.2495346   3.3301451  41.7392197  72.9561081
   2.9299605  41.9030037  73.8100739   4.0748019  42.3396530  72.9214478
  43.9326324  53.1081657  64.3672638  42.9956627  53.2256699  64.5238266
  44.3553963  53.7034187  64.9862747  14.6717920  10.6609583   7.2442055
  15.4287663  11.2425489   7.1736846  14.0128412  11.0551243   6.6726732
  50.6495056  22.0335503  61.5253296  51.5666924  21.7812958  61.4187279
  50.3815536  22.3349972  60.6572495  12.4617786   7.4386129  73.0222092
  11.5701065   7.1360340  73.1942520  12.7525768   6.9148622  72.2756500
  34.7215080  17.1900787   9.6527634  34.1743393  17.3066635  10.4294519
  34.8679466  18.0783024   9.3274212  49.7047615  26.6366806  72.5861816
  49.5290794  26.6191082  73.5269547  49.1971588  27.3804626  72.2615891
  80.0251083  15.4002619  61.1398239  79.8752823  14.5961742  61.6370430
  80.3968353  15.1026592  60.3094749  59.6785965  50.9403229  17.3266048
  60.2467155  51.0495415  18.0891953  59.1605835  50.1598930  17.5236549
  41.4158707   9.8032789  37.8350372  41.6855469   9.5617180  38.7211266
  40.7463951   9.1591721  37.6044655  42.0236816  32.9082298  74.5910950
  42.0412598  33.8397713  74.3716507  42.7183533  32.5231705  74.0568695
   1.5515110  29.1172752  43.0254135   1.1328200  29.1985512  43.8823433
   1.5497649  28.1770020  42.8462067  61.4844475  21.7826023  60.6490974
  61.0063019  22.1660709  59.9138680  62.3924294  21.7413979  60.3489380
  79.3084717  12.0290203  57.1624336  78.8870239  12.1995096  58.0047798
  80.0915527  11.5251350  57.3840485  52.1675873  51.3688316  52.5582695
  51.7157097  50.8577042  53.2296753  51.5094261  51.9901886  52.2468681
  61.1477737  41.6174545  45.5318565  62.0041504  41.4176483  45.1538010
  60.9575958  40.8720474  46.1014442  15.9101896  30.7630234  15.9089594
  16.0364590  31.7097950  15.9714966  14.9798985  30.6581192  15.7094965
  79.6357651  40.2592773  41.2266350  78.8843613  40.2180824  41.8181763
  80.3978043  40.2357788  41.8054085  76.1831284   5.6421685  83.6892624
  76.9257431   6.2403646  83.7723999  76.4052429   5.0870543  82.9417725
  34.2131653  41.6575089  15.9867868  35.1198044  41.9623108  15.9503555
  33.7619553  42.3113060  16.5208206   7.5772457   0.2555455  16.5117321
   8.1872950   0.4336395  17.2275219   7.6972456   0.9877476  15.9069910
  58.5705223  62.2450447  64.1094971  58.9120483  61.3671379  63.9395790
  59.2436600  62.6643028  64.6455460  79.2229691   6.5875998  18.3670750
  78.2924728   6.8081446  18.4091816  79.2388000   5.6594181  18.1337090
   8.8555145  28.0648689  54.8090210   9.6181946  28.3375702  54.2989388
   9.1926165  27.9410076  55.6962929  86.5993347  55.3354568   7.7323465
  87.3848724  54.8577232   7.9986906  85.9192047  55.0323448   8.3338242
  12.0703449  21.6577454  70.6561813  11.5388060  21.7533398  71.4464722
  12.5170641  22.4993591  70.5647430  46.3753929  34.5944176  64.5185318
  46.9599152  34.5310059  63.7631874  46.9443169  34.8635941  65.2397156
  74.3188095  42.1612511  78.4862213  74.3081360  41.4289093  79.1024933
  73.3951035  42.3679314  78.3438187  17.6611767  12.6135263  82.0907593
  17.2850971  12.6525154  82.9701233  18.1412010  13.4365454  81.9988556
  45.2544289   7.1506109  12.7632685  46.1542549   7.2696829  13.0671844
  44.7950592   6.7770295  13.5153646  73.5888901  60.2365036  35.5387306
  73.6236038  60.2856560  36.4940376  73.4867554  59.3035774  35.3504562
  72.8662872  23.1468124   2.3295383  71.9387131  23.0991116   2.5609858
  73.3271408  22.9610100   3.1476598  46.3568077   9.2896194  21.3023396
  45.9846382  10.1559095  21.4674530  47.1648865   9.2743864  21.8151855
  25.5239162  57.8834114   8.6093702  26.1910572  58.5462799   8.7875853
  26.0202885  57.0801125   8.4526558   4.8178349  12.7268000  48.0913124
   3.9195888  12.7086220  47.7610779   4.7871346  12.2115393  48.8974113
   3.8058481  55.5100555  17.1163292   3.5201197  55.0017738  17.8754330
   3.9104042  56.4010124  17.4502411  84.7923279   5.8062177  51.1048317
  84.2110519   6.1880298  50.4471283  85.3045731   6.5463901  51.4303780
  63.8180046  49.9600449  31.2396126  63.7289276  50.8929176  31.4346676
  63.9289932  49.9235306  30.2895699  56.5880623  47.5636024  76.3819733
  55.6859627  47.7261734  76.1062622  56.9265137  46.9406738  75.7388229
  53.6325569  32.2185326  11.0562267  53.8970184  32.8035889  10.3462982
  53.3218384  32.8045464  11.7463512  20.5847015  12.1748848  82.7661057
  20.9721813  11.4885292  83.3092499  20.9121819  11.9962101  81.8845901
  82.0464783  45.2069550  18.8844185  82.9134445  45.1030312  18.4922428
  81.8151474  44.3298492  19.1900349  19.7198277  10.4476700  85.2390213
  20.0455341   9.7391129  84.6839600  18.7674942  10.3983383  85.1562119
  29.3337841  63.0947762  37.0688934  29.4264126  62.4610519  36.3575249
  30.1481819  63.5973778  37.0494766  52.5246964  68.1461411  74.6953354
  52.7230034  68.3607712  73.7838364  51.5710297  68.2045670  74.7531357
   1.1136568   5.5634499  44.7285652   0.2989005   5.7442055  45.1973190
   1.4750999   4.7921000  45.1651535  29.5031986  70.8976364  32.5875320
  28.8934460  70.2414551  32.9249611  29.2759647  71.6998978  33.0576057
  76.4768829  39.2871552   3.4999914  77.2796783  39.8083687   3.4910648
  76.0554657  39.5105896   4.3298836  60.0090485  33.6363678   2.6427886
  60.5653801  33.3500404   3.3671803  59.2223015  33.0962296   2.7170208
  62.3717918  22.6058121  40.0860291  61.7704277  22.2869053  39.4130592
  61.8720474  23.2723579  40.5574150  83.4066162  31.7298870  74.2128754
  84.2103577  32.2252655  74.3704834  82.9342041  31.7689896  75.0444565
  78.0836945   9.5245991   6.3719335  78.9933853   9.2269878   6.3830209
  78.0373459  10.1255646   5.6283450  43.3269310  61.1249695  28.7288818
  43.6254196  61.8822250  29.2325649  42.6090851  61.4617996  28.1927147
  86.5702667  66.1696548  65.3245544  87.0020828  66.4532852  64.5187531
  86.8826752  65.2753220  65.4616928  18.2166901   1.8453575  71.6639938
  18.1095161   1.2056806  72.3679504  19.1084461   2.1753724  71.7739639
   0.7084637  71.3126984  74.4949570   0.7759821  71.0011978  73.5923843
   1.4792811  70.9503021  74.9316940  18.2403469  46.8692207  36.8212776
  18.9933910  47.4309006  36.6377716  18.6151829  46.0967140  37.2443161
  60.3828773  22.5924683  16.8475780  60.8628960  21.9311047  16.3491669
  59.9946632  22.1081963  17.5762768  62.1547852  47.7516518  80.4878693
  61.4616318  47.8552475  81.1398163  62.8528595  47.2894440  80.9518585
  15.3018932  35.7773056  12.7457418  15.7952652  36.4621429  13.1971998
  15.2068214  36.1014404  11.8501244  69.3677444  65.8176804  46.5352478
  70.2747955  66.1206665  46.4942207  69.4196167  64.8803711  46.3481712
  10.2275410  34.0188789  60.7454338  10.7325964  34.0575142  61.5576248
   9.5614529  33.3512230  60.9091225  44.0744553  34.9833069   0.9100512
  44.2929268  34.3372383   1.5816911  44.6159134  35.7432213   1.1235620
  31.6870060  66.8149948  61.0115852  32.5584106  66.4302750  60.9173813
  31.4646950  66.6817398  61.9330254  32.1090469  47.8983955  71.5396423
  31.2359943  48.2903481  71.5200653  32.6702118  48.5817451  71.9061966
  54.0143890  48.6038666  61.0757980  54.0481224  48.7421188  60.1292343
  54.7946930  48.0845757  61.2699623  70.7405701  29.8220615  66.5671082
  70.6746750  29.5801620  67.4908905  70.0155334  30.4310226  66.4266739
  56.2706261  63.4519577  72.2431412  55.7224998  63.5705414  71.4674301
  55.7759285  62.8468742  72.7957535  29.5693398  39.3098564   5.9276729
  29.3767757  39.0363121   6.8245144  29.8066998  38.4999962   5.4759903
  59.3400307  20.7553654  18.7146530  58.4742050  21.1306019  18.8752155
  59.6203690  20.4258785  19.5685139  85.8594284  13.2871151  57.0216522
  85.7033615  12.3933430  56.7166176  85.2294006  13.4113817  57.7314796
  38.6107903  11.3078070  88.8423615  37.9033089  10.7689495  89.1963882
  38.2620659  12.1991405  88.8545837  19.3752880   6.7252064  59.6288071
  19.8248158   6.9283609  58.8085098  20.0532436   6.3409591  60.1846504
  70.6516342  25.0052147  52.1203041  70.2243423  25.3675709  51.3441925
  71.1948013  25.7207699  52.4507370  32.3728409   6.3026948   5.2349868
  32.6411476   5.4378633   5.5453262  32.4314880   6.2437949   4.2814021
  16.0738983  54.1716232  24.4128571  16.1227684  54.8277893  25.1080494
  15.4168358  53.5466003  24.7192020  58.4326401   7.1745687  68.8280869
  58.6426392   6.7358422  69.6524963  57.8546600   7.8946376  69.0804214
  69.3318863  69.6352997  39.6160240  69.8584366  69.3375473  40.3578644
  68.4877090  69.8710098  40.0007744  77.6231766  55.9707870  80.4398804
  78.0157013  56.1609154  81.2919388  77.3434067  56.8243828  80.1092300
  67.7767410  58.3490372  62.1007729  68.2575073  57.8066788  61.4755173
  68.3368378  59.1135826  62.2349205  41.7462311   7.5419631  26.1308727
  40.9603081   7.2213221  26.5733013  41.7387276   8.4867897  26.2840996
  79.5219345  60.2080078  69.9961090  79.6429749  59.8882523  69.1020584
  80.3808823  60.5475845  70.2473755  53.3422089  47.6199265  45.3653908
  53.9189262  47.6202316  44.6014328  52.4700165  47.4554100  45.0069962
  69.7080536  67.0430679  74.1887283  68.9974747  66.9403229  74.8217773
  69.2650528  67.1604004  73.3483658  20.1090298   1.9813176  23.7756176
  20.6191654   2.7708781  23.5951004  19.3101845   2.3026783  24.1937141
  76.9903946  34.5205841  68.0048370  77.1729736  35.2111473  67.3676376
  77.5929337  34.6961784  68.7275696  11.0335875  64.4946747  29.3099632
  10.8810787  65.3995361  29.0375690  10.3894310  64.3407822  30.0010586
  65.5326233  14.1155224  74.6881485  66.0326538  13.7021799  75.3919525
  65.0551987  13.3943329  74.2780457  54.2316093  35.9117546  30.2447643
  53.8014565  36.2925034  29.4791069  54.1515808  36.5826569  30.9227867
  75.9720459  31.0110455  36.9373703  76.5981293  31.7308331  37.0158195
  75.9212952  30.6406384  37.8185387  10.8135586  10.3089943  65.0194092
  10.9419737  11.1474743  64.5759125  11.6983461  10.0138178  65.2344742
  67.0183258  42.0986633  73.1600647  67.1452408  41.1533546  73.2407532
  66.1440964  42.2543182  73.5174408  23.8353233  52.2190514  46.1293144
  24.4592018  51.7204475  45.6016769  24.3411140  52.5079079  46.8889008
  57.7176590  37.0704193  23.6858692  56.9205322  37.4638100  24.0409222
  58.1092377  36.6107635  24.4285774  77.3639832  32.3184166  41.3780708
  76.7271957  33.0318947  41.4191589  77.1225662  31.7399693  42.1015015
  57.5732460  48.2047462  50.8147736  57.0970917  48.8253937  50.2631302
  56.9337730  47.5204887  51.0124931   5.4620466  64.6974945   2.0108078
   5.0119696  65.2236633   1.3498907   4.8023243  64.0709152   2.3081255
  19.6035423  46.3608627  14.7298822  20.2982578  46.1463890  15.3524599
  18.8087101  46.3994141  15.2618494  49.9573212  48.1542892  64.5209503
  50.3279991  48.6409760  65.2571335  50.7186089  47.8111115  64.0530853
  74.7409592  53.1653748  14.4191589  74.6504364  53.4003944  15.3426323
  73.9184494  52.7265968  14.2019396  16.6997986  47.9759827  56.6245003
  16.3893909  47.5929718  55.8040237  16.2089577  48.7934990  56.7079926
  50.7821693  15.8203297  56.1010361  51.0284729  16.4417477  55.4159012
  50.8095436  16.3319702  56.9095573  45.6336975  15.6774101   3.7457545
  45.1715813  16.5104027   3.6519101  44.9378548  15.0262594   3.8354194
  65.1125641  70.1713104  78.8181152  65.0001144  71.1011505  79.0155792
  65.0306015  69.7347717  79.6660233  70.2057190  16.6150322  16.5998363
  69.4164886  16.8832779  17.0703564  69.9225998  16.5231152  15.6900969
  67.6514435  30.5953274  42.5043373  67.2182236  30.1526108  41.7745743
  68.3755569  31.0725174  42.0991364  20.6826439  32.6165619  84.3174667
  21.4910679  32.7582779  83.8249207  20.1156101  33.3440323  84.0615540
  62.8271866  33.6566429  19.0633430  63.3748131  34.4408340  19.1004620
  62.0012436  33.9589500  18.6856480  10.3036098  22.2121277  24.1323414
  10.1587200  22.0993290  25.0717640   9.4765968  21.9482269  23.7290573
   0.2660106  48.8201065  63.6920662   0.6034026  48.5065460  64.5311584
  -0.6847597  48.8243980  63.8027420  65.9023514  38.4541588  72.1487579
  66.6643600  38.2059364  72.6721725  65.2485123  37.7829819  72.3443298
  25.3104286  24.5464821  70.5434875  25.7805996  24.6199970  69.7129669
  24.3918571  24.4526138  70.2912064  81.7029953  53.2602539  62.1595650
  81.9065475  54.0671310  62.6325874  82.2881699  52.6053467  62.5402222
  56.9027710  58.9737053   2.5732148  56.9149742  58.0211601   2.4797087
  56.2219772  59.1417084   3.2247741   3.1761174  31.6860771  50.5138512
   3.8100321  31.3728600  49.8686562   2.5356948  30.9781075  50.5836525
  21.0291977  42.8046227  81.9080811  20.9676437  43.7103348  81.6045532
  21.9644852  42.6037827  81.8744354  73.8416519  31.3576164  87.0047760
  73.5119095  31.8114738  87.7803497  74.6992188  31.0243111  87.2688217
  46.4254189  39.7259903  76.6707993  45.8141556  40.4034538  76.9599991
  45.8727798  39.0709038  76.2445602  60.7013512  71.3112717   0.3404381
  61.0901108  70.5603027   0.7889330  61.4495049  71.8495026   0.0819724
  50.5806007  71.1483002  54.7633896  49.7988129  70.8417587  55.2228127
  51.3106422  70.7787704  55.2600975  60.2118683  61.4221077  40.7293053
  60.2507706  61.0167503  41.5955620  60.2171898  62.3630791  40.9047318
  72.2229309  38.1758957  70.6217270  71.8106155  37.7622185  71.3800735
  72.3978119  39.0735931  70.9041824  39.9336777  51.5881958  31.6381702
  40.2274704  50.8744392  31.0720711  40.7386818  51.9375153  32.0205002
  50.1846581  61.2214699  30.4195862  49.3348541  61.6480103  30.3094540
  50.3280449  61.2140045  31.3659554  23.5718689  47.3412437  10.9437237
  23.5082912  47.5264206  10.0067606  22.9483700  46.6298752  11.0901251
  46.0782890  30.5178165  84.3348160  46.0101357  30.9130669  85.2039337
  46.3673439  29.6206913  84.5016861  72.7813568  18.3106747  87.5339050
  71.9371490  17.8772354  87.4087143  72.8017044  18.5309868  88.4651871
   0.6937509   9.0602751  40.8308907   0.7649701   8.8971815  41.7714005
   1.5460341   8.8044062  40.4782219  14.1706085  18.5186729  21.1352367
  14.9568205  18.0646725  21.4385281  13.6521311  18.6554756  21.9281425
  36.9038010  57.8320618  85.6829300  35.9954453  57.6703987  85.4280167
  37.1211586  58.6707077  85.2759094   3.8216481  37.2616768   6.5690775
   2.9022980  37.2373962   6.8344789   3.7965622  37.2098427   5.6136112
  10.5757608  23.4462452  14.3166742  11.2641449  23.9016037  14.8014498
   9.9154682  24.1188068  14.1496220  58.7099457   7.7620730  21.3249283
  58.5111465   8.5263472  20.7840099  58.8759918   7.0600281  20.6958084
   5.2182946  13.3266144   2.7784429   4.9464297  12.7390089   2.0734322
   4.7031097  13.0471487   3.5352223   6.2592721  14.9464464  74.2876587
   6.7197042  14.8080969  75.1153641   5.5877881  15.5969849  74.4929428
  65.8059311  50.3092384   3.3580036  66.2547302  51.1032181   3.6485395
  65.2530823  50.5985947   2.6321514  82.2895660  35.8922577  74.5044937
  81.8815460  36.7308922  74.7200012  83.1906815  36.1168938  74.2726059
  84.0888901   5.6446438   6.4631419  83.6155014   6.2466946   7.0373154
  83.6301727   5.7024884   5.6250086  11.6155443  21.9211731  57.6232147
  12.5413914  21.9509811  57.8643570  11.5475435  21.1765385  57.0256119
  14.0306177  69.4824905   1.3156760  14.8466024  69.6458588   0.8426936
  14.0149441  70.1482086   2.0032842  53.4521713   1.5637076  70.7105865
  53.7092323   1.2523961  71.5784760  53.6372910   0.8275015  70.1275177
  86.3366013  10.1000576  13.3517933  86.3453369   9.2974682  13.8733349
  85.4304504  10.1827793  13.0546837  52.7749710  18.6596851  63.4430962
  51.9504852  18.1823673  63.5359344  53.2495842  18.1871624  62.7592125
  35.4070625   6.8846731  21.5853653  35.0742111   7.1031799  20.7149067
  36.3575363   6.9649072  21.5054359   1.7217212  55.9928093   0.4196301
   0.8906900  55.8541145   0.8739231   1.4875940  56.0090408  -0.5083532
  85.2299118  55.7742920  75.2940674  84.2807541  55.6506310  75.3006363
  85.5502853  55.1354179  74.6573334  35.0504074  41.5208473  53.9792099
  35.5541000  40.9491768  53.3997993  34.1771240  41.1295776  54.0017776
  74.7222824  54.7334747   6.9820232  74.0754929  54.0408821   6.8470631
  75.4011230  54.5574989   6.3305387  52.5501213  67.1663971  16.6828232
  53.3897820  66.9412384  17.0834560  52.7849121  67.6340256  15.8813047
  73.3806992  65.2704239  59.4851151  73.5012054  64.3620453  59.2084198
  73.1010742  65.2075272  60.3983955  27.2433796  53.7633934  86.9729614
  26.4888248  54.2308655  87.3312149  27.9174805  53.8439064  87.6477432
  67.3310242  54.9608650  25.1210365  66.4622040  54.7790146  25.4792461
  67.8077698  55.3683014  25.8441830  39.6373405   4.4267092  73.3392792
  39.7533150   4.1219268  74.2392197  39.1227264   3.7384372  72.9177551
  58.2798119  61.4683266  50.3351021  58.4621582  60.6364326  50.7720566
  57.7237434  61.9455223  50.9509850  45.2970695  46.2839012  69.1396713
  44.8038101  45.8415871  69.8305283  45.9563751  45.6447754  68.8693619
  38.9723549  33.0985489  83.9028778  39.2610474  33.7292442  83.2432480
  38.1124077  32.8094635  83.5976639   3.3573835  18.7242336  55.7027931
   2.6598783  18.7181129  56.3582916   4.1657405  18.7673912  56.2136040
  62.4701462  45.6549797  14.0684938  62.9411926  45.3443871  13.2952671
  63.1527634  45.7942238  14.7249060  37.6911049  55.4848633  68.3778687
  38.4102249  55.8539619  68.8905792  37.8926888  55.7266464  67.4739151
  37.1786346  56.9050636  59.4942398  38.0355148  57.0615196  59.0973663
  36.9778404  55.9941826  59.2792778  27.7327061  63.6688118   4.9253345
  26.9189644  63.1648140   4.9187226  27.9759312  63.7188644   5.8497629
  23.7686462  59.5063515  40.7167091  24.7241955  59.5562096  40.6907883
  23.5633469  58.6489525  40.3439484  10.1397600  55.8039284  38.7239265
  10.0013571  55.6427574  39.6572571  10.8636551  56.4294586  38.6936531
  55.7324104   3.4463911  70.7681808  55.6111488   4.0964103  70.0760803
  55.0152054   2.8252249  70.6417007  78.6372757  10.6604538  65.5478134
  78.4532089  11.4331455  66.0819550  79.3260880  10.1978941  66.0251083
  11.0334206  51.6347733  44.7650032  11.6749163  51.0021706  44.4416924
  10.3599510  51.6616096  44.0853348  80.5161819  41.3933296  13.0987320
  79.8721848  41.2177315  13.7847872  80.5082245  42.3454704  13.0007925
  62.5383224  28.6406536  46.4824791  62.5190849  28.3880692  47.4055519
  61.6750526  29.0209923  46.3201942   8.6496325  50.5970039  20.3812733
   9.5559416  50.4481964  20.6508884   8.3350248  51.2847061  20.9680595
  60.0425224  60.0211983  14.6881752  60.8270607  60.1848335  15.2115850
  59.3294220  59.9979897  15.3262815  56.3688316  20.2170792   5.1953468
  55.7896461  19.9393787   4.4856553  56.1789970  19.6101761   5.9107933
  37.9977341  70.9399872  31.2849369  37.9659805  70.6595764  30.3702831
  38.9110184  71.1885071  31.4276943  33.3711548  39.1013527   4.2172928
  34.2111855  39.4110146   4.5559592  33.5704384  38.2526321   3.8220782
   1.0625837  29.8597126  49.6988449   0.2186341  30.3113232  49.6935310
   1.4705108  30.1046066  48.8682709  51.6499939  23.7911587  76.5349121
  52.3006020  24.4672718  76.3456726  51.4245949  23.9265728  77.4552841
  37.9721375   2.3339040  72.5268936  37.8121338   2.0338054  73.4216461
  37.1019249   2.5345020  72.1823349  85.9484253  42.0218582   7.5386796
  85.5754089  42.6987762   6.9739919  86.8295288  41.8800087   7.1925969
  72.7018051  35.1883125  64.0727768  72.1786270  35.8514023  64.5231400
  73.0499420  34.6398010  64.7757492  69.5144653  30.2742958  88.4913712
  69.3102798  30.8825207  89.2017288  70.1815338  30.7255135  87.9740295
   5.9429297   6.3152499  31.4752998   6.7843719   5.8863335  31.3196163
   5.6084380   6.5112257  30.6001186  75.6589432  65.5998993  66.8916016
  76.4077988  66.1154404  67.1910553  74.9290619  65.9011078  67.4326935
  40.1744041   6.8014383   9.7682657  41.0292397   6.5826244  10.1392212
  39.7350731   5.9573393   9.6647291  68.9028778  68.8260345   8.3275614
  68.0208282  69.1378937   8.1251373  69.4327621  69.1048431   7.5807552
  44.1296082  70.9257507  35.1250153  45.0594254  70.7161560  35.2130089
  43.8221550  71.0335007  36.0250664  30.2227669  33.1724663  17.1395149
  30.9354706  32.5564575  16.9697437  29.4258575  32.6577530  17.0120926
  17.2450790  53.4968033  49.7793808  16.8600368  52.6569939  50.0297623
  17.4927120  53.9037819  50.6096077  26.3479862  17.6657314   0.4864738
  26.5206470  18.5547314   0.1764772  25.6586323  17.3399391  -0.0922168
   2.3382928  59.9128227  54.9220772   1.4475554  60.0727692  55.2339020
   2.8998554  60.2156334  55.6356468  12.2108374  53.9898567  55.1267242
  12.2895918  54.7635269  54.5686378  12.4539614  53.2589149  54.5585289
  73.6281815   1.7870560  83.7862625  73.5748596   2.7398529  83.8608704
  74.5659714   1.6031890  83.7317352  55.5008163  32.2165565  37.4066925
  54.8979149  31.5439701  37.0898819  56.3635864  31.9209328  37.1160660
  48.3308754  55.3881950  12.4565325  49.0844269  54.9178505  12.0999269
  48.3371658  55.1777458  13.3902903   0.3581014   1.2716638   6.0497379
   1.0219955   0.6438670   5.7645230   0.7430291   1.6953804   6.8168926
  17.3931713  33.3970680   9.8954763  17.7204857  34.0039711   9.2315760
  16.5316639  33.1317596   9.5735312   3.6392834  40.7154961  83.8803329
   4.2794366  41.3850174  83.6391296   4.0993347  40.1598625  84.5094986
  59.1432419   1.0399977  86.4930649  59.1704292   1.4141955  85.6124573
  59.2217216   0.0961020  86.3547363  71.9109802  14.9820385   5.5799613
  70.9879608  14.8914852   5.8167615  71.9250565  15.6921062   4.9382162
  78.8138199   4.4916091  66.1250076  78.1533661   3.9491155  66.5559692
  79.6443176   4.0567050  66.3183212  79.0934601  50.5721436  73.8645782
  78.3463058  51.0592880  73.5171890  79.2594452  49.8912010  73.2126617
  51.8701630  33.3175430  63.9965286  52.7916451  33.2823219  64.2531586
  51.8752251  33.7547035  63.1450005  54.8970566  22.8636017  69.8588333
  55.3505745  22.0657253  69.5868988  53.9892960  22.7274685  69.5874176
  83.1451111  53.6438637  38.0589104  83.8913651  54.1259308  37.7026176
  82.3785095  54.0808296  37.6879463   1.1555196  29.6694183  21.6309566
   0.5018789  29.5677624  22.3228035   1.9455274  29.9574623  22.0882874
  58.9075623   4.1954260  23.9548130  58.3973808   4.4138470  23.1749153
  59.1967964   5.0414829  24.2965183  51.1109314  42.7301292  63.6743698
  50.6315079  43.5535355  63.5827942  52.0234680  42.9956932  63.7883224
  22.9814510   6.0118322  10.4693069  22.8033390   5.1580272  10.0749397
  22.2189140   6.1843247  11.0215893  32.5462341  42.9368515  31.2911339
  32.3160248  42.8518257  32.2163391  31.9473286  43.6039162  30.9556217
  74.3072586  39.0784683  60.8709755  73.4480438  39.3222771  60.5266838
  74.1315460  38.7781143  61.7626839  62.8368492  67.5462723  42.0972748
  62.8100166  68.4431381  41.7638969  62.6358299  67.6310730  43.0292778
  83.7386627  15.2372169  67.2982101  83.2085342  15.2098179  66.5016861
  83.0998001  15.2448425  68.0109711  19.8517742   8.7928152  73.7040558
  20.3995934   8.0150156  73.8096695  19.0880165   8.6245804  74.2559662
  51.4351082  34.8683853  25.8280926  50.6500473  35.2213669  25.4093857
  51.1185951  34.1267242  26.3438396   2.2716734  31.2447548  24.1410999
   2.1268022  32.1138802  24.5150833   1.5188305  30.7302341  24.4321785
  68.1021652  51.0719032  60.4883423  67.4372635  50.5637131  60.9529686
  68.5261993  51.5921898  61.1707878   9.4176178  47.6164932   1.5921948
   9.4148588  46.7138443   1.9107066  10.3361483  47.7972069   1.3925046
  58.6913681  20.1712341  43.8081856  58.2657051  19.9770317  42.9731216
  59.5239029  19.7006073  43.7678032  42.2046165  46.9061584  20.6220055
  42.1290131  46.0748329  20.1535931  41.3402328  47.3084602  20.5369701
  63.8929977  66.1928558  50.6200714  63.9360390  67.0398102  50.1761780
  63.2111588  65.7113037  50.1516342  58.9869690  59.8436241  71.1893539
  59.2558899  60.7391510  70.9845352  58.0559235  59.9153175  71.3997116
  31.7400703   5.3224330  83.7202911  31.7462826   4.3866549  83.5190125
  32.2359734   5.3953195  84.5357666  65.0108032   5.2925582  48.2133560
  65.6532059   5.9455023  48.4912376  65.4287109   4.4515238  48.3984108
  36.5179596  10.7639370  20.5915413  36.6813889  10.7976446  21.5340843
  37.0480309  10.0291901  20.2826710   8.6376839  15.4048920  63.3172913
   8.4212875  15.1868248  62.4107323   9.4043341  15.9740896  63.2502670
  59.4217300  27.0065403  30.7303658  60.1358795  27.0608292  31.3654060
  58.8055611  27.6859379  31.0041981   1.4473362   0.7127209  18.5050411
   1.7536240   0.3921908  17.6567020   0.5690663   1.0509195  18.3304119
  38.1743660  38.4034386   0.6131151  37.4172401  38.8200455   0.2014965
  38.2851181  37.5817719   0.1347531  13.3538980  52.2306404  69.3125000
  13.7560043  51.8857880  70.1097565  12.5419712  52.6400223  69.6115265
  83.7122803  24.4194641  84.5848389  83.1625977  24.4782352  85.3662643
  84.5021591  23.9671879  84.8810959  68.8791962  40.8458328  30.9758396
  69.6409607  40.2928200  30.8022919  68.7413101  41.3265915  30.1596947
  23.4588375  21.3616314  70.7567902  23.2866955  22.2999325  70.8354721
  22.6855049  20.9436531  71.1355743  70.0490646  32.4929390  32.6942978
  70.7570724  31.8641949  32.5541496  69.8439178  32.4188156  33.6263123
  38.5568695  47.0588646   9.8425808  39.4171638  47.4543571   9.7021790
  37.9674149  47.5619202   9.2806988  39.6917839   7.5653520  89.2746811
  40.0048065   8.3138981  88.7668152  40.2801743   6.8497367  89.0340042
  48.3887863  39.2504578  23.0697765  49.1107178  39.8092728  23.3574886
  47.9440613  39.7625084  22.3943100  56.6477699  57.0001297  35.7085190
  55.7878571  56.6885262  35.9908104  57.2405281  56.2732697  35.8996925
   6.8247137   2.7179794  71.9310837   7.5084991   3.3010104  71.6013184
   6.7642646   2.0242152  71.2743759  50.7617836  49.3402328  53.9781532
  49.8130302  49.4169922  53.8771286  50.8863297  48.5190201  54.4538956
  14.6319904  62.2522964  16.5463352  13.9081688  62.2436600  17.1726265
  14.7543077  63.1776886  16.3343964  74.2779007  25.6762543  86.9694443
  73.8107452  26.4218197  86.5924454  74.1595383  25.7724228  87.9144135
   9.6884642  69.7906876  57.0755539   9.4891386  69.7902908  58.0117722
   9.7385836  70.7175369  56.8417397  28.0498734   2.0093515  27.2462196
  28.9720707   1.8977704  27.0152760  28.0548000   2.6688328  27.9399719
  45.1288834   1.4130939   1.4830538  45.3823090   0.8684788   2.2283075
  45.4598122   0.9417840   0.7184715  78.2782822   4.2231145  24.7103081
  79.0904465   4.5586557  24.3307800  78.0835648   4.8243308  25.4292355
  72.7641220  24.6179867  69.5308456  72.7509155  23.8462753  70.0969849
  72.5865784  24.2754517  68.6548386  11.8338900  49.1747704  79.6786346
  11.9995403  49.8000450  80.3842010  10.9192724  49.3221474  79.4378281
  18.5876274  69.7256393  39.3398170  18.9745808  70.5619888  39.0809402
  18.8485394  69.6137619  40.2539520  38.3612366  51.1076775  77.5041580
  37.8208389  50.6099396  76.8905945  38.4711609  50.5238037  78.2546539
  67.9487076  44.9666367  88.3503189  67.4313812  45.5291328  87.7739410
  68.1119003  45.5036583  89.1256943  11.0451670  38.0325623  10.0407581
  11.6319857  37.9973335  10.7961617  10.2326231  37.6319313  10.3497868
  23.5381927  50.9224815  14.0103960  22.6453724  50.6220970  14.1803141
  23.7125111  51.5595131  14.7032452  27.2428036  70.5270309   4.6139660
  27.8890686  71.1865463   4.8661923  26.4046707  70.8923035   4.8974152
  12.3656673   8.9166012  14.7117996  13.1334686   9.4728899  14.5804348
  11.6452017   9.4047556  14.3132210  16.6269131  64.2620087  55.3871307
  15.9037209  64.8352585  55.1329422  17.3747234  64.5816422  54.8823051
  13.7041492  45.6706085  40.8400154  14.2028532  45.1868973  40.1815720
  13.1603947  45.0067253  41.2640724  49.4066391  37.1930046  51.5092316
  49.4152145  37.5344353  50.6150360  48.6016541  36.6777039  51.5611458
  44.3323860  41.0328522  53.0500259  44.1334229  41.6569481  52.3520660
  45.0804176  40.5350189  52.7201118  82.8407288  67.3647308  54.5121841
  82.1131592  67.0718689  55.0609093  82.6538467  66.9950256  53.6492653
  59.9766235  36.5441132  67.7147903  60.7831192  36.0996246  67.9759979
  59.8707047  36.3238564  66.7893143  40.8350372  44.0237389  65.8433533
  40.2372055  43.5532455  66.4242706  40.4462013  44.8937454  65.7531738
   8.8034496   2.7803087  38.8241386   9.2183762   2.1148758  39.3730164
   8.5825539   3.4872496  39.4305000  -0.1887304  47.2659264  69.3344421
   0.5810129  46.8091850  69.6737213   0.0838444  48.1814232  69.2727585
  82.2253418   7.0546689  73.1670761  81.6597366   6.2857180  73.2380219
  82.2676392   7.4038405  74.0573120  16.3494415  26.7809944  68.7751541
  15.5534477  26.3218250  68.5072174  16.1259747  27.7090416  68.7042694
  47.2938881   6.3213105  21.4038315  46.6164780   6.7479124  20.8790855
  47.1393242   5.3849525  21.2790337  12.9456120  65.9902420  78.9668350
  12.3519669  66.6458817  78.6008301  13.7854033  66.4432678  79.0426407
  54.3041039  12.0139380  72.2403030  55.0002670  11.3698063  72.1111298
  53.7809181  11.6601715  72.9595795  79.6436615  20.3642216  17.2050457
  78.8569260  20.5190563  16.6822643  80.3087311  20.9277401  16.8096180
  23.8453846  47.2103958   8.3420544  23.2784233  46.4862022   8.0768518
  24.7326851  46.8954887   8.1695356  58.6783142  38.1282730  10.7011061
  58.0392265  38.7798309  10.4125385  58.4266739  37.3265495  10.2426872
   0.2853893  10.4405575   0.1801231  -0.6242890  10.1710339   0.3069082
   0.6705059  10.4031954   1.0556351  70.9665222   1.7890710  54.8188591
  71.3668594   2.1153116  54.0129280  70.3763580   2.4906063  55.0941467
  69.1084366   9.7237654  14.7978344  68.7324066   8.8492165  14.8978424
  69.4654770   9.7308397  13.9097471  25.0235138  60.6765633  36.4174194
  25.4113026  61.4074173  36.8987694  25.0792027  59.9357719  37.0210419
  28.1854630  38.3547783   3.0359545  29.0511227  38.0458832   2.7686577
  28.0567436  39.1641693   2.5414338  70.5271835  45.8664742   3.0323305
  70.3027802  46.1938515   3.9033644  71.4835052  45.8255157   3.0308940
   2.9665730  22.1627522  52.5859985   2.0263951  22.1667614  52.4063301
   3.2065136  23.0884781  52.6271019  26.7794895  10.1525593  80.4513092
  25.8749580  10.3718529  80.6748352  27.0456467   9.5224314  81.1208801
  37.8320007  46.4209480  18.9210625  38.5033073  46.4092674  18.2388306
  37.2588310  45.6851959  18.7057114   6.9574633  31.4334507  19.1342163
   7.5223727  30.6797314  18.9638729   6.1930571  31.0646706  19.5768394
  57.3724785  14.9447203  16.1136265  58.0821800  14.9134378  16.7551670
  57.7803459  15.2961731  15.3222008  76.1171799  42.7453499  65.5380478
  75.8005295  42.2321358  64.7946930  76.5817947  43.4816246  65.1402130
  35.0717583  49.8106995  38.4834709  34.6596375  49.9285545  37.6276093
  35.2395897  48.8700829  38.5410004  80.5396805  20.4935436  86.1669464
  80.6532974  19.9677029  85.3752289  81.4193954  20.8097115  86.3727722
   5.6731873  69.0501785  31.8952999   6.4484429  69.4777145  31.5313931
   6.0171189  68.4640350  32.5693741  70.4072952  59.3633614  57.3757133
  70.7402115  58.4667168  57.3380203  70.0820541  59.4606705  58.2706909
  77.5406342  36.4243088  66.2924805  76.8697510  37.0723305  66.0775146
  77.6819458  35.9458313  65.4755783  60.9480019  50.4392357  61.5069618
  61.7318726  49.9372482  61.7301025  60.3078423  50.1931229  62.1746826
  61.7736588   4.8799706  80.5209808  61.1901665   4.1239238  80.5855103
  61.8714561   5.0274405  79.5802765  29.4172459  37.6894379  13.9450350
  29.7338753  36.9074783  14.3972712  29.2842751  38.3318863  14.6420364
  61.2206802  54.2292290  50.2959137  62.0004959  54.7127151  50.0232277
  61.3997574  53.9771233  51.2017860  67.8438492  25.2912178  89.4971542
  68.6305161  25.1897717  88.9613419  67.1490860  25.4858570  88.8681412
  66.4496002  69.6096039  73.7073288  67.1786194  69.8022690  73.1177139
  65.8449402  69.0891190  73.1784515  53.5750542  20.0557461  56.8836479
  53.6667786  20.9947987  57.0448875  52.8875923  19.9926071  56.2205887
  54.3762741  52.1511383  60.8890152  55.2629242  51.9797554  60.5716667
  53.8580055  52.2788391  60.0944595  39.6926918   3.6206183  57.7175140
  40.1232491   2.7657440  57.7109909  39.7632942   3.9312456  56.8148727
   5.6064768  12.4073248  24.3525658   6.4961762  12.5478678  24.6764717
   5.1494932  13.2261524  24.5447102  78.3733597  18.6332397  51.1079254
  78.3998184  19.5357914  50.7902222  77.4804001  18.3410187  50.9250183
   0.2179486  21.3378563   9.4748878  -0.1794830  20.4704666   9.5517845
   0.6091470  21.3454781   8.6013098  81.6260757  71.2412720  68.6026306
  81.7043076  70.8674164  69.4803238  80.8489075  71.7982254  68.6479340
  71.0145721  64.3086548  55.8009720  70.8627472  64.2583847  54.8572273
  71.0079041  63.3972778  56.0935173  63.9408531  42.7348404   9.6102505
  63.9968338  42.7588272  10.5655107  64.8451920  42.6151810   9.3202620
  79.0177078  41.9414330  84.6839828  79.2425461  41.1663208  85.1986465
  78.1544037  41.7451706  84.3200836   1.9530135  66.8300323  39.7683792
   1.7164712  66.6993713  40.6866417   1.1702194  66.5739746  39.2806320
  82.2189636  44.1836281  46.5574608  81.7885284  43.9239044  47.3720207
  81.8944244  45.0677376  46.3864174  31.3745689  13.2964106  86.4247360
  31.3101654  12.5385351  85.8436127  30.6162415  13.2193899  87.0037384
  28.7227325  64.4429703  82.9352112  28.5558968  63.9023132  82.1631470
  29.6546650  64.3207932  83.1163406  55.7912979  61.5643311  64.9659500
  56.7304840  61.5586433  64.7812119  55.7316132  61.7787132  65.8969269
  24.0579472  40.1646919  77.7639923  23.1366253  40.3489456  77.5811005
  24.5383072  40.8196716  77.2575455   6.4388380  12.7253389   6.1961589
   6.7875276  11.8930473   5.8768802   6.1950727  12.5500097   7.1050429
  47.5541267  18.9577465  80.9468460  48.2454720  18.9163742  80.2861252
  48.0064735  19.2118607  81.7512360  83.7121506  16.9188957  56.0874062
  84.0075912  16.4612789  55.3003006  84.2028809  17.7407284  56.0850677
   4.7083464   9.9679346  24.5374794   5.0186486  10.8734245  24.5317326
   4.3656764   9.8265724  23.6549683  33.5171776  47.9630432  40.5028191
  33.7406616  47.5025558  39.6939697  32.6063805  48.2314415  40.3818054
  61.5781212  42.7714005  80.3687668  60.7467842  42.3322601  80.5483856
  61.7161636  43.3415298  81.1251602  22.4626884  43.3011551   8.4554424
  23.4069271  43.2996635   8.2984562  22.0997734  42.7818527   7.7379136
  19.7151680  47.4274979   1.5682456  20.5734615  47.2998466   1.9723138
  19.7358646  46.8794289   0.7837581   4.2041073  51.4949074  38.1629524
   3.8080149  52.1601372  38.7258110   3.4605386  51.0068588  37.8091888
  27.5568676  13.3887911  80.6238937  27.5278378  13.9441128  81.4029999
  28.3532181  12.8684464  80.7301865  44.1207886  62.5662575  21.7283211
  44.8233871  62.4802399  22.3726730  44.2650108  63.4245377  21.3298397
  40.5696182  65.4548569  44.8480034  40.2159081  64.7889404  44.2583618
  41.2548904  65.0008774  45.3384476  85.0837631   5.0138464  86.3536987
  85.7186127   5.0384035  85.6377411  85.5986481   4.7672434  87.1220169
  21.3314362  58.7009125  76.4180679  20.4401665  58.9932976  76.2273254
  21.6596584  59.3339195  77.0566635   5.7548332  47.6461983  72.2250366
   4.8235049  47.8586617  72.1640625   5.7992330  46.7083321  72.0388260
  16.5162220  53.9783249  81.6408081  16.3783283  54.2272873  80.7268982
  17.0842590  54.6637154  81.9926682   2.5264087  54.1182518  15.2498951
   2.8647423  54.6152916  15.9946871   1.6024663  54.3630295  15.1984415
  56.2355957  23.7046700   2.0525105  56.9375725  24.3330269   1.8833154
  55.8651886  23.5211525   1.1891735  10.1247206  22.4533882  27.1391830
   9.9577847  22.7843246  28.0217056  10.7493601  21.7391548  27.2653885
  67.4057465  30.3654785  55.6767273  67.9765778  31.0476723  55.3231773
  67.3648529  30.5499439  56.6150932  30.4829540  45.8455391  52.9440117
  30.4231262  45.8634186  53.8991737  31.2636356  45.3221970  52.7626877
   8.7780285  16.6065483  53.9798775   8.5472355  15.7338715  53.6614418
   9.3775339  16.9520512  53.3184738  70.3605728  49.7969208  12.7887754
  69.8577499  50.1345787  13.5299807  69.8363571  49.0686035  12.4556322
  33.3153038  23.3329029  76.3066101  33.1581039  23.7717705  75.4705963
  34.2683716  23.2685528  76.3678436  62.0134010  28.2012787  16.9711800
  62.0858841  28.4474468  17.8933392  61.0721703  28.1992626  16.7970867
   1.6504401  67.5839233  29.0507755   2.3981185  67.1930389  29.5029049
   1.6557134  68.5003128  29.3272343  32.6081734  37.3335304   6.3123865
  32.6032028  38.1902771   5.8855457  31.6924534  37.0550270   6.3011465
  75.4671478  42.2617760  42.3207207  75.7872620  41.3879700  42.5448151
  76.2036514  42.8427773  42.5110512  84.8362198  69.3422089  62.3385963
  85.1476212  69.1459274  63.2221909  83.9396439  69.6530457  62.4641571
  11.6568165  18.1871281  14.3483601  11.5417099  18.3602238  15.2827158
  11.6891060  19.0551319  13.9461670  43.3421021  64.0642319  58.4219017
  42.4371033  63.9354706  58.1379509  43.4871445  63.3812828  59.0767097
   6.4729486  37.4226646  64.8716965   6.0136180  37.3009644  65.7026215
   6.9035754  36.5830650  64.7108688  40.2126846  39.3610382  72.1773148
  40.8239784  38.6244621  72.1754074  40.7037201  40.0787659  72.5773010
  57.8113098  66.0249481  24.8657207  57.8342743  66.6725006  24.1611748
  58.2351761  65.2514038  24.4939728   4.2601514   5.6331663  65.2142792
   5.1385527   5.7154169  65.5855942   3.6761947   5.9284716  65.9128571
  69.9726257  64.5182190  61.7537346  69.2958069  64.0425262  62.2352600
  69.7834854  65.4410706  61.9234505  33.1365280  61.0254936  20.2896347
  33.9446793  61.5201492  20.4254112  32.9630356  61.1029739  19.3514824
  48.3680344  63.1418457  68.8183823  48.8402252  63.0408630  67.9918976
  48.6221199  64.0086899  69.1350174  19.0498428  68.7154922  36.9227371
  19.8648338  69.1965332  36.7791405  18.7828979  68.9560013  37.8099365
  39.0061111  33.0616875  86.9494934  38.1479301  33.4047661  87.1985931
  39.0840073  33.2650681  86.0173950  81.0506287  44.0527039  54.1669159
  81.8069077  44.1247673  53.5846100  81.4276810  44.0181160  55.0460434
  17.8999233   9.0984383  89.4012604  17.9947605   8.6843777  88.5434799
  17.0241203   9.4843779  89.3854065  68.3816452  69.4495239  64.5189133
  69.0026627  68.8839722  64.9779587  68.9170990  70.1657028  64.1774368
   2.2984538  46.1917763  25.3262234   1.4232731  46.2055092  24.9387951
   2.4452224  47.0914307  25.6183128  48.9644127  25.1438141  84.8716354
  49.3223572  25.2110176  85.7568436  48.0738831  24.8162174  84.9976120
  54.3018303  62.9429398  46.3890419  53.8538551  62.1004982  46.4654579
  55.1591606  62.7954063  46.7883568  35.4499207  60.1062012  18.4806499
  35.5883560  59.7529984  19.3594627  35.3077660  61.0426903  18.6185532
  85.2445450  17.6301270  29.4962692  85.4772110  17.4990482  30.4154606
  85.3336029  18.5732079  29.3587952  16.2411003  70.5995407  28.4190655
  16.2525864  71.4213486  27.9284210  15.6593590  70.7708511  29.1596470
  29.4809341  58.6104469  53.0331955  30.0011101  59.0525131  53.7041855
  30.1202545  58.1118126  52.5244064  44.5224495  12.9051075  62.0396996
  44.7055092  12.6809492  62.9520988  43.5674591  12.9475613  61.9904594
  47.7941628  67.3936005  57.7481270  48.7458191  67.3808441  57.6460533
  47.6174278  66.7430878  58.4277039  55.3889503  30.2296810  50.3944397
  54.9513512  30.5347538  51.1892166  56.1320915  30.8233833  50.2872581
  10.2694530  60.2150688  49.4620781   9.7834387  59.4038010  49.6099548
  10.2336941  60.6722412  50.3022842  73.3741608  64.7904510   1.3345374
  73.0752106  65.6745682   1.5471154  73.1490936  64.2696686   2.1054895
  84.4027939  15.9269524  47.4350777  85.0709991  16.0830631  46.7677307
  83.9509659  16.7662563  47.5225449  73.5728302  57.5080910  66.9977188
  74.4808044  57.2071266  66.9626465  73.1415558  57.0530319  66.2744293
   8.0681334  29.4354935  62.5870781   7.7077675  28.6014957  62.2857208
   8.4792376  29.8136292  61.8097496  52.0102997  19.6968422  32.4454384
  51.8391380  20.5535946  32.8364754  52.9392471  19.7196732  32.2157326
  24.6088276  54.9652328  69.7142944  25.0550785  54.9584923  70.5610809
  25.3148727  55.0376930  69.0720444  65.5315475  33.1022758   1.8074708
  65.5072861  32.1887474   2.0922680  65.3084412  33.6036568   2.5917358
  70.1904068  33.1187897  62.1493225  70.5836792  33.7990074  61.6026306
  69.4417496  33.5476990  62.5637894  79.6730270  46.3998604  59.1186371
  80.4149628  45.7970238  59.1671867  80.0677032  47.2702408  59.1725502
   3.5200565  69.0747528  56.1838875   4.1446586  68.7467957  56.8308411
   3.8192062  69.9633408  55.9911461  45.6136208  25.1918526  37.6502533
  45.4748993  24.5964165  38.3867645  45.4254990  24.6622772  36.8754044
  62.0717621  35.4951515  87.3889313  61.3964767  35.0047569  87.8576889
  61.6506386  36.3236771  87.1599579  38.2039375   3.0593882   0.1047691
  38.2506409   2.4824533   0.8671316  37.4687386   2.7214801  -0.4066349
  84.4444962  64.7949905  36.1468544  85.0591812  64.5144653  36.8248672
  83.8314133  65.3714218  36.6030235  52.7578468  61.3273544  66.9562531
  53.0458031  60.5570717  66.4663773  52.2626801  60.9708328  67.6937714
  48.4015694  55.6305466  51.6184883  49.1524773  55.6979065  52.2082596
  47.6469116  55.5423355  52.2006798   1.8853760  23.5031414  30.5879784
   2.3507147  24.3389893  30.6203938   2.5340612  22.8568974  30.8669205
  15.3384848  37.0646820  48.3132095  15.2756052  37.2458916  49.2509956
  14.6211824  36.4554710  48.1383629  50.6663666   6.8043823  21.6739902
  50.0630417   7.3483067  21.1676502  50.7179985   5.9838448  21.1838017
   2.8024495  67.9852219  43.5064354   2.0384703  67.5406189  43.1391563
   2.8553026  67.6659088  44.4072533  57.9800720  10.1022034   5.8989344
  57.3989792   9.6927481   5.2579122  57.3997841  10.3701458   6.6114693
  26.6521778  53.1742668  35.2325706  26.1369877  53.1887550  34.4259720
  26.7367764  54.0952415  35.4793053  48.8468170  64.2081604  58.0140381
  49.6158104  64.3907089  58.5539970  49.1289673  64.4054871  57.1209068
  58.8938332  21.2911415  26.2875938  58.7864952  20.7988510  25.4737396
  59.1301308  22.1742783  26.0039291   4.4725690  36.2358742  72.6480255
   4.8644581  36.0755920  73.5064926   5.1521978  36.6975555  72.1569138
  75.8066025  49.4645805  25.8316364  75.1542740  49.5258026  25.1338100
  76.5304565  50.0144272  25.5317516  28.0584011  38.6019974  74.9808960
  28.9373226  38.2555237  75.1347961  27.6743431  38.6774406  75.8544159
  30.8644180  51.6021042  70.1897964  31.5994320  52.1994324  70.3283005
  31.0494938  51.1857452  69.3479919  15.2782965  60.4252052  24.1417313
  16.1895618  60.3740730  24.4301968  14.8346643  59.7280426  24.6248341
  75.8468018   5.2510853  35.7154121  76.5379410   4.6822529  36.0545006
  75.8364410   5.9981894  36.3137093  51.7866745   5.5037456  12.0450792
  51.2727661   4.6962981  12.0323973  51.8726807   5.7474146  11.1234169
  26.5788116  39.4533272  64.5680847  26.4317951  40.1091309  63.8865166
  26.3970814  38.6171570  64.1390991  62.4833908  36.9837456  27.9819183
  62.7245255  36.3037071  27.3529243  61.7131348  37.4027901  27.5980663
  17.1250973  59.0552216  35.4155731  18.0718765  59.0187988  35.5516434
  17.0239906  59.3828583  34.5218964  42.3151855  46.3834839  38.7646866
  41.7077980  45.8756256  39.3026390  43.1753006  46.2127457  39.1484604
  76.7848816  43.3042030  73.3155212  77.5836182  43.7354736  73.0117798
  76.4736176  43.8549957  74.0338440   2.2762084  27.9139767  37.8129463
   2.7401075  28.2183056  38.5929565   2.9524705  27.8606758  37.1376266
   4.9919858  22.4293442  57.7854996   4.5273166  22.4822636  56.9503288
   5.9075856  22.5953484  57.5611076  78.8108139  48.4705200  70.6425552
  79.6215668  48.5929832  71.1364212  78.6140289  49.3369827  70.2865372
  61.9115067   6.0679536  56.6242943  62.7886238   6.4170160  56.7825775
  61.3209534   6.7532206  56.9371605  41.8634682  69.2037964  15.9127712
  41.6511955  68.2741013  15.8300943  41.9244919  69.5167236  15.0102272
  84.1847610  31.4880009   9.7713490  83.6671524  31.7498035  10.5327759
  83.6075516  31.6446667   9.0240088  51.7503586  34.2040558  22.1975689
  51.0127754  34.0992012  22.7985744  51.9949341  33.3095894  21.9602051
  72.8604660  20.3010960  31.5975666  73.4011383  20.3013763  30.8076859
  72.4199524  21.1508331  31.5865822  31.4445362  14.1730461  81.7945786
  31.7526913  14.7197628  82.5173340  32.2324181  13.7348690  81.4729004
  62.6569061  58.8254280  63.4892311  63.5552139  58.6804543  63.1921539
  62.1787415  58.0509224  63.1930351  49.0232849  20.7179508  57.4690933
  48.0859261  20.7379627  57.2762489  49.1581383  21.4442425  58.0778160
  51.9318047   9.9567556  21.7062511  52.6733551   9.6565170  22.2317867
  51.2275810   9.3421593  21.9125786  50.7989044   6.9211044  53.2467003
  50.2329788   6.7174587  53.9913406  51.1411133   6.0721426  52.9667244
  65.7746735   1.2287221  43.4118919  64.9066238   1.5168474  43.6942291
  66.3736572   1.6065998  44.0558319  23.4966640   1.1849720   1.7555158
  24.4379044   1.0973567   1.9059216  23.4218979   1.4040105   0.8267188
  57.5814705  65.4899292  21.6018944  56.7528801  65.0151291  21.5368080
  58.2414055  64.8611603  21.3097095  14.3897123  58.2067223  40.9786377
  14.8047476  57.3515778  40.8659134  14.8809967  58.6196442  41.6888237
  38.4547005  10.6074276   5.8351645  39.3799400  10.8522911   5.8493562
  37.9881363  11.4236984   6.0147519  33.4789925  60.2353821   3.4864910
  33.9030609  60.2651558   4.3441105  33.5344620  61.1336708   3.1605566
  76.6369629  27.6763859  32.1032677  77.0231934  27.5709667  31.2338161
  77.0658722  27.0086613  32.6384430  49.3456573  22.7582550  89.0983887
  48.8723183  22.2793274  89.7786942  49.2106094  22.2418137  88.3038559
  58.2836418  58.0773697  29.0376873  58.0112190  58.3183289  29.9230995
  58.2849388  58.9035568  28.5543156  32.8876534  10.3823929  69.2960510
  32.1937790  10.9663992  68.9899368  33.4522820  10.9408026  69.8304749
  41.1712189  50.4780426  46.5508118  41.1057396  49.8360519  45.8438492
  40.9522095  51.3130035  46.1371613  75.5207138   5.6530933  65.4995270
  76.1501541   6.3024912  65.1859589  75.7590714   5.5113907  66.4156799
  38.6749153  35.5697327  89.0259552  39.0615463  35.1100616  89.7712402
  39.1712723  35.2586021  88.2689514  65.4905319  15.7470341   6.4283414
  65.7244644  15.6757421   7.3537736  66.0741577  15.1309099   5.9856148
  32.6641693   6.3263535  80.2081604  32.3809891   6.5803056  81.0865402
  31.8497601   6.1849608  79.7254791  46.5859146   3.0080025  76.2549973
  47.4253387   2.6190064  76.5005264  46.8026733   3.9053004  76.0018082
  58.6636047  10.5905094  51.9934845  59.0944977  10.6825199  51.1437225
  58.1900024  11.4138107  52.1122742  51.2157402  31.4668503  31.5003014
  51.1347466  31.4392109  30.5469360  51.8713150  32.1444817  31.6654358
   9.6273108  50.6681900  38.2720757   8.7044935  50.7479935  38.5134735
  10.0621347  50.3876572  39.0773468  25.2277317  55.1360741  88.1925735
  24.3269119  55.4582558  88.1616898  25.3728600  54.9185257  89.1133575
  30.9154320  39.2900085  65.6175232  30.4024792  39.9635468  65.1709213
  31.3568687  39.7564507  66.3273163   7.4121099  10.4412365  43.0623627
   7.9232359  10.9202271  43.7147064   6.6428471  10.9902496  42.9105377
   6.0896664  47.6100235  45.6032143   5.8003268  46.8642387  45.0775528
   5.3181996  48.1732941  45.6648483  86.1040573  47.1865120   2.4605970
  86.7089767  47.9278641   2.4340003  85.9798279  46.9456978   1.5425520
  35.2678490   7.3026404  28.8450413  35.8248634   7.1369381  29.6056423
  34.3748474   7.2397056  29.1838856  54.9391518  13.9984159  38.0693016
  55.7010384  13.7387009  37.5513191  54.9572029  13.4174013  38.8297806
  75.8365860  50.9097977  86.4130859  76.1958771  51.2575417  87.2293091
  76.6037598  50.7436028  85.8653107  85.6691360  62.6988258  44.6066170
  85.3070602  63.5359421  44.3161507  84.9040146  62.1806412  44.8562393
  40.1489067   1.1924849  71.1559830  39.5980797   0.9711476  70.4050980
  39.5765839   1.6997590  71.7316132  77.4134827   2.9075379  36.7669296
  77.4054489   2.1131837  36.2329178  78.3397293   3.1376371  36.8400459
  17.9865894  50.3447113  84.9668045  18.0008030  51.2781792  85.1781540
  18.5367146  50.2672119  84.1873245   7.7978950  12.1083412  75.7048264
   7.5485234  11.6158695  74.9228287   8.7427101  12.2344217  75.6173019
  37.4399567  63.0228653  28.2674541  37.4949303  63.9494705  28.5011482
  37.5231476  63.0109901  27.3139496  80.2384949   0.8165265  18.2326355
  79.6528778   0.0694898  18.3560028  80.9868317   0.4579831  17.7554951
  27.3984013  66.9838715  18.5260944  26.6331577  66.6367493  18.0676785
  27.1910439  66.8756790  19.4542809  42.4636497  14.7117147  71.1166306
  43.1944580  14.1905079  70.7842255  42.8327789  15.1996832  71.8527451
  41.3801270  62.4519272  14.0423021  41.0465813  62.9211502  13.2775745
  40.8159027  61.6822090  14.1159058  40.5108795  16.5989628  61.4078674
  40.4220581  15.7078924  61.0697327  39.7092438  16.7456226  61.9099655
  74.3686371  41.2901192  29.2141399  74.9988556  41.9895782  29.3868141
  74.4044800  41.1641312  28.2659435  60.1820488  17.1638966   6.7839713
  61.1332970  17.0924931   6.8631015  60.0283318  17.2889996   5.8475151
  54.3351936  45.7510796  75.1635818  54.4830666  45.6836700  74.2202759
  53.5545807  45.2203064  75.3221817  20.3978806  49.6976662  31.3502731
  19.7719669  49.4521103  30.6689758  19.8553600  49.8978119  32.1130600
  17.3283901  45.5215759  65.3319321  16.7774067  46.2285423  65.6678543
  17.9004192  45.9467125  64.6929703  62.4503937   2.4634175  77.7312927
  61.5285530   2.7088947  77.8098831  62.8477058   3.1799588  77.2363739
  30.5074959  32.8514938  89.1485519  29.8751564  32.1337891  89.1127777
  30.1308384  33.5306778  88.5890274   2.2234952  19.0156612  35.1253204
   2.5639973  18.3533363  35.7266655   1.4590387  19.3764954  35.5743599
  13.8714705   1.0995979  55.5211601  13.2892561   1.3528816  54.8048439
  14.7108974   0.9228992  55.0964546  79.8404388  32.1127930  62.8576546
  78.9516220  32.1620522  62.5058022  80.3829117  31.8752289  62.1056442
  45.5026474   3.2772050  58.8996315  46.0816078   2.7728357  59.4711609
  45.5932655   4.1803002  59.2036667  43.6067619  53.4605637  37.1599884
  43.6171455  53.2056999  38.0825768  43.0440788  52.8110428  36.7383957
  60.4473953  64.0412598  84.3106995  59.5935860  64.2207794  83.9169846
  61.0588379  64.5864944  83.8156509  40.9822998   1.3552444  56.6559639
  41.8795242   1.0261247  56.7097893  40.7387276   1.2376646  55.7377701
  76.4458160  61.1420288  11.7520733  76.1290512  62.0444794  11.7904034
  77.0957565  61.1459656  11.0493689  46.6810722   5.7066579  75.4042130
  46.9913101   6.4691663  75.8926392  45.9793549   6.0469904  74.8492355
  77.6504211  12.3809414  59.4336777  77.9263611  11.5519476  59.8246498
  77.3790894  12.9182014  60.1779633  72.7201843   1.7053053   7.5318651
  73.2376862   1.8718619   6.7440319  73.3603287   1.7060698   8.2435179
  33.9729156  52.1093941  15.8834600  34.0966835  52.7656326  15.1977024
  34.0803833  52.5946312  16.7015228  80.8738022  50.6357689  42.5985985
  81.6669769  50.8566513  42.1104240  80.7229385  49.7106705  42.4045219
  55.0574875  13.8139267  53.6279259  55.4732437  14.2029924  54.3973465
  54.1197624  13.9398851  53.7729683  10.7445936  60.9171219  43.8288689
  11.6829844  60.9278908  43.6403503  10.3292713  61.1119156  42.9887505
  82.4945374  14.2353029  20.6833000  82.9165115  13.3769970  20.7218475
  81.5759811  14.0423870  20.4954910  69.0090256  34.9657288  12.2491980
  68.6871796  34.1814499  12.6936684  69.8209991  35.1840782  12.7066393
  36.7700348  61.7044563  74.9709396  37.4479828  61.2663498  74.4564667
  36.9589882  62.6374855  74.8710251  60.0209999  68.5241547  52.2711029
  60.2492752  68.4472809  53.1975021  60.7953682  68.9137497  51.8651466
  67.9544830  32.8719559  45.7759972  67.3792725  33.2034798  45.0864601
  67.4281006  32.2151489  46.2317963  81.2064667  62.4516792  42.7420044
  81.7973709  61.7917671  42.3792648  80.4533234  62.4494324  42.1512375
  81.5481110  29.5228882  73.5375748  81.1105576  29.7657375  74.3535385
  82.1490631  30.2472572  73.3632736  30.8355522  25.5144157  76.1135559
  31.2243004  26.3089943  75.7478333  31.2989712  25.3796234  76.9401779
  34.1721497  16.2510357  69.3042068  33.7338524  15.6278057  69.8836136
  33.5881119  17.0090885  69.2821121  41.5914574   6.2493920  84.1316757
  40.8545647   6.4278579  84.7159500  41.2278633   6.3452754  83.2514267
  44.9135399  41.7648392  77.9888535  44.6222153  41.2728043  78.7564926
  45.1138306  42.6380539  78.3259125  70.7764053  24.7452793  19.4037533
  70.9166031  25.6630459  19.6367435  71.5623627  24.4992580  18.9159260
   0.4442179  37.8114128  72.4998932   0.8145431  37.2303085  73.1642838
   0.6168810  37.3670082  71.6698837   5.5916481  53.2646065  31.6070023
   5.8700805  52.3654518  31.4331360   5.6790199  53.3633080  32.5550842
  77.7868042   8.4053192  73.8681259  78.6518021   8.0700417  73.6323471
  77.8928909   9.3565807  73.8769913  25.6624565  18.2760239  81.8437195
  26.6185265  18.3116016  81.8736801  25.4647598  17.8448792  81.0122986
  85.8225327  57.3504562  71.6701050  86.3421478  56.5721970  71.4687500
  85.5272064  57.6685867  70.8169861  75.4615021  32.1758499  52.8752022
  75.0705872  32.4973030  53.6876564  76.3207169  32.5962639  52.8400955
  57.8330612  63.8224373  26.4536018  57.5963326  64.7326355  26.2754536
  58.4089050  63.5784950  25.7289429  77.0880203  23.6004677  11.6463127
  76.5466232  23.6361084  10.8577366  77.9854431  23.6871662  11.3248348
   0.9187707  68.0204239  60.6864700   0.0071689  67.7290802  60.6681709
   1.1223160  68.2277374  59.7744293  48.6281242   6.6457238  32.8609734
  49.0588303   6.7941775  32.0191383  48.8312340   5.7355409  33.0767174
  77.9452209  64.1697617  36.8879623  78.3392639  63.2999153  36.8221474
  78.4055023  64.5867233  37.6163330  85.3593369  46.6885376  51.4109192
  86.2272034  46.5396576  51.0355873  84.7512436  46.4195480  50.7223663
  80.5790405   2.9638743  31.4806061  80.8779068   2.9621139  30.5712624
  81.0797958   3.6659949  31.8959427  51.9693756   6.7714419  14.4805965
  51.9209251   6.9167991  13.5357389  52.0910568   5.8263798  14.5716085
  62.0690918  26.8553581  32.2761116  62.8865395  27.2658997  32.5580139
  62.3380318  26.2110863  31.6212692   2.9182031  36.7683411  70.4671860
   3.6505263  37.1761627  70.0049973   3.2992563  36.4488602  71.2850876
  59.7218437  25.2466469  16.1691017  58.8709412  25.3892136  15.7545309
  59.6603928  24.3691196  16.5464630  60.6424522  41.8681259  28.8558922
  60.3193359  41.2519493  29.5132732  60.5727463  42.7252426  29.2762775
  52.3985367  67.8996964  79.8182983  52.0908852  68.5115204  80.4870605
  53.2320976  68.2664108  79.5234528  28.0134258   1.5984421  77.6838989
  27.2605190   2.1886311  77.6516571  28.1217575   1.3989861  78.6138000
  53.9865265  15.9900799  80.9716797  53.5664902  15.1496439  81.1546173
  53.2852898  16.6343937  81.0684357  67.5857086  62.1970482  61.7101059
  67.2389679  61.7582397  60.9332848  66.8583679  62.1926765  62.3323517
  25.7553158  23.8182716  81.6124496  25.1225834  23.9659462  80.9095459
  26.3810139  23.1944084  81.2443085  32.6266174  20.4182320  64.2078934
  31.9836712  19.7302647  64.3798065  32.2517853  20.9210930  63.4848022
  79.3721771  36.4427109  68.4013367  80.2742996  36.7139473  68.2315140
  78.8948822  36.6888275  67.6089630  81.8697128  24.2221928  15.2511940
  81.1291962  24.5576668  14.7458963  82.3340683  25.0060310  15.5447979
  12.6887684  62.7885818  36.7909622  13.6032887  62.8853798  37.0565071
  12.3945160  61.9913979  37.2315750  66.3861694  14.8287334  16.7769394
  66.0586090  14.0633736  17.2493343  67.0243607  14.4733429  16.1583595
  72.1664276  45.2045631  59.6498756  71.4043961  45.5905571  59.2179565
  72.8802261  45.3174591  59.0222054  63.7521935  59.4100647  45.7417908
  63.3944778  60.0399055  45.1160316  62.9836998  58.9673615  46.1018791
  69.6416016  19.4860535  19.8731003  70.4992828  19.1017952  19.6915646
  69.5668869  20.2097702  19.2511024   6.8156195  35.9943199  69.9870377
   6.8191919  36.0574875  70.9421463   7.6899071  36.2824516  69.7246780
  52.0008163  65.4894867  68.3408203  52.5964127  65.6983261  69.0604630
  51.7302208  64.5867157  68.5081787   5.3747282  38.6108894  56.1547012
   5.2798028  38.4133034  57.0864639   4.5046945  38.9020500  55.8817558
  53.0636597  25.5603466  21.6511841  53.8514481  25.8734226  22.0957088
  52.3568115  26.0965366  22.0104866  31.6425552   6.9415131  66.2256851
  32.2351151   7.6875820  66.3178101  31.8041801   6.4096370  67.0049286
  80.2960281  65.1204147  78.7816925  80.2913208  64.9749069  79.7277603
  81.1929321  64.9211884  78.5131836  40.9143066   4.0594263  39.4466591
  41.1032867   4.9826760  39.6143761  40.0918121   4.0683942  38.9571114
  79.4567261  65.9169159  38.8654518  78.9886093  66.1083374  39.6781387
  79.3644867  66.7133865  38.3426132   7.6485562  55.0375137  45.5321007
   7.7296686  54.4964714  44.7466545   6.8001714  54.7952232  45.9032745
   6.6206150  22.6795845  84.8485718   5.9716144  23.3588467  85.0319672
   7.3270340  23.1394711  84.3950195  21.7263794  55.9472542  75.7958069
  21.2851448  55.7690392  76.6263351  21.8549805  56.8957672  75.7916183
   8.4633980  58.9568100  76.9551926   8.1420975  59.8314743  77.1741867
   9.2979002  58.8852272  77.4185638  31.7820225  63.3551521  14.5222349
  31.8692455  64.0171585  13.8363991  32.6662178  63.0050049  14.6309834
  43.7496338  57.8741951  59.2498932  43.2675934  57.1370697  59.6247368
  44.5008430  57.4721489  58.8136902  59.0939293  23.8972206  87.2783508
  58.9834328  24.0393772  88.2184677  59.2470245  24.7716141  86.9202652
  81.7437744   4.2328935  60.7671890  81.4875336   3.3117125  60.8118896
  81.1429291   4.6779032  61.3648415  67.6032028   3.0966375  35.5127983
  66.7855148   3.0237525  36.0050468  67.8682938   2.1908152  35.3532867
  35.6869431  20.5634499  86.1994171  36.1242294  20.3858871  87.0321732
  34.9856148  21.1753693  86.4228668  61.1396484  26.1259594   5.0156703
  60.8551750  26.9117718   5.4823680  61.8068237  25.7390366   5.5825925
  16.2881756  60.0820999  63.9528160  16.1083183  59.3936806  64.5930939
  15.7638397  59.8416634  63.1889496  60.8558540  29.7745800  35.2202454
  61.6015968  29.2177448  35.4439278  61.1875648  30.6676903  35.3127174
  42.4608192  66.8665314  58.0877228  43.1242981  67.4056549  58.5182724
  42.7457352  65.9661179  58.2436600  82.0569763  47.4084854  62.6889496
  81.1281052  47.5182724  62.8923645  82.0735779  47.1847839  61.7584038
  43.1305122  51.4244499  50.1238365  42.5355301  52.1642685  50.0017853
  43.0533409  51.2057114  51.0525093  58.8906631  43.7688255  50.2175064
  58.6523628  43.5397835  49.3191833  59.4886322  44.5105171  50.1249847
  73.6972885  56.9797020   5.6938019  72.7855911  57.1145973   5.9523373
  74.0702744  56.4501991   6.3986034   5.8776164  44.1633530  41.4023628
   5.1964650  44.1755714  40.7299690   5.4281640  44.4323807  42.2035179
  29.2283783  54.1390762   9.8695288  29.9848042  54.5492821   9.4502659
  29.5150776  53.2458305  10.0596533  73.3230820  64.0498505  87.4347382
  73.2964020  63.6397285  88.2992096  73.0398254  64.9511795  87.5883942
  82.6930466  19.6180725  75.0751190  82.2334137  18.8548679  74.7251358
  82.3973694  19.6800251  75.9833908  15.9939728  55.1651993  77.0860596
  16.3686333  54.7992554  76.2848434  15.2975368  55.7466812  76.7809525
  17.6902142  60.0992546  17.4267998  17.0435905  59.7509804  18.0406551
  18.0147648  59.3299561  16.9587364  48.2591896  60.1809425   9.1247911
  48.0802231  60.4172859  10.0349245  48.4949303  59.2538948   9.1599855
  72.9449768  18.2669029  53.3307877  72.7155991  18.6305294  54.1860046
  73.8315430  18.5870934  53.1643600  20.0450497  47.3450928  55.6413689
  19.9481716  47.3762970  56.5931435  19.1956253  47.6303101  55.3046799
  29.6490459  37.7877388  62.9045830  29.6771221  36.8596077  63.1369972
  28.7837543  37.9108353  62.5142670  12.2938128  59.7663002  36.7481728
  12.0170145  59.4484825  37.6075935  11.4799938  59.8551102  36.2521439
  52.2217293  28.0940514  48.9569206  51.6692238  28.7747784  48.5727615
  53.0992737  28.2814827  48.6237335  78.4650116  34.7901192  64.3911438
  79.3390656  34.8814735  64.0117722  78.1426315  33.9552193  64.0516663
  21.7808857   4.0895028  81.3717880  21.2721615   4.8470821  81.0828171
  21.7806797   4.1511002  82.3270035  86.0199966  38.8968086  20.0772858
  86.6140213  38.2915764  20.5212078  85.2868805  39.0009651  20.6838531
  12.4997530  24.9454613  15.7129612  13.1103659  24.8343277  16.4416809
  12.7580023  25.7735596  15.3082485   9.9178886  56.2713127  25.3498230
  10.2203388  57.1774178  25.4109306  10.6951284  55.7763329  25.0907440
  17.1602287  18.2350597  71.6502380  16.2653008  18.4082108  71.9423904
  17.1158657  17.3703709  71.2421036  30.1445656  27.2835598  13.9651203
  29.4976311  27.8390179  13.5301790  30.9869347  27.6852016  13.7522173
  27.4733067   8.9384937   4.4247332  27.0532265   8.5822458   5.2075810
  27.9810524   8.2078190   4.0718322  59.7982292   2.0538142  35.7655067
  60.6822891   1.6908675  35.8196754  59.4054527   1.6160537  35.0103073
  67.3688583   2.2028692  45.6374130  66.8827744   2.1277204  46.4585762
  67.7057190   3.0988324  45.6396217  80.5938950   2.7655399  36.9983368
  81.2718887   2.1013353  37.1223984  81.0784225   3.5757825  36.8403282
  30.3833656  58.0413628  49.8426514  30.1342545  57.3935356  49.1834908
  29.5572548  58.4500656  50.1009865  48.3078423  70.0809937  56.0751305
  47.5417023  69.8739853  56.6103020  48.6245918  69.2303925  55.7711830
  24.9305706   0.3694526  63.2285461  25.2911167  -0.1095994  63.9747009
  24.1846809   0.8486924  63.5893898  30.1097927   0.5987895   1.8039678
  30.5799274   0.9982727   1.0721092  29.9706135   1.3178153   2.4202983
  82.0559692  64.9766464  29.1487885  81.5456085  65.5625610  28.5898037
  81.4628525  64.2496796  29.3384514  44.5716553   0.1859607  14.3325672
  44.8037796   0.5197654  13.4660082  43.9867516   0.8505655  14.6964636
  62.2040215   8.7423468  66.7152328  61.8773651   7.9185801  66.3533859
  61.9886932   8.6968470  67.6467896  83.6904678  37.6866074  64.5800018
  83.4072876  38.5948067  64.4740829  84.5298767  37.7490616  65.0357742
  70.4250183  46.1129227  20.9818287  71.2973557  46.0671959  20.5904560
  70.1726379  45.1987991  21.1118793  12.5124912  40.3871689  72.7835007
  11.9209423  39.7449036  73.1756744  12.0582495  40.6801262  71.9935150
  64.4335938  33.0605392  76.9277344  65.1527557  33.6688576  77.0979767
  63.6686783  33.4767456  77.3251038  76.6339340  69.2849426   5.1145091
  77.5877075  69.3271942   5.1834512  76.4237213  69.8352203   4.3600287
  58.7812538  67.9395676  67.5309677  58.2426529  67.5319443  66.8527527
  59.6810188  67.8163223  67.2285385  68.5141907  67.5154724  25.3876247
  68.0813446  66.6786880  25.2183018  68.9089279  67.7549286  24.5491314
  38.4437218  67.4006577   8.8495522  39.3807831  67.2438431   8.9659872
  38.0521202  66.5272446   8.8558111  22.6227531  66.6186218  53.8460197
  23.3218346  65.9924088  54.0340843  23.0051327  67.4724350  54.0485802
  30.4001656  63.8847466  87.8700256  29.5418072  63.5668259  87.5900650
  30.2404003  64.2842712  88.7250671  21.5493908  50.3948097  45.6619263
  20.7041645  50.7462311  45.9417992  22.0777645  51.1687241  45.4667091
  62.2052040  31.1092777   2.0859201  62.6754150  30.3213215   2.3584235
  62.1754570  31.6543961   2.8721726  52.3691216  31.0574665   8.0114832
  51.6445541  30.7120247   8.5329247  53.1157188  31.0593548   8.6105013
  15.4097509   6.9676566  20.1213512  15.9583311   7.2164283  20.8652630
  15.5451822   7.6652179  19.4800262  34.5198097  57.9733620  69.7427292
  34.8273392  57.0942993  69.5215759  33.5653763  57.9085846  69.7096558
  79.2993164  53.8511925  63.8747482  79.8667679  53.7784271  63.1073303
  79.1413269  54.7906876  63.9675941  83.8286591   9.2173204   5.6734858
  83.3928146   9.1807871   6.5249190  84.6495056   9.6791620   5.8442216
  11.2049913  51.6414566  34.7533340  10.7467861  50.8180847  34.9216728
  11.1896439  52.1001740  35.5933189  44.9206314  61.9761658  70.2209396
  44.5274048  61.7400055  71.0610809  45.8016586  61.6035957  70.2556915
   6.4225063  22.5011635  50.4765854   7.3792238  22.4834061  50.5012360
   6.1545219  21.8029747  51.0740395  73.4581070   8.0760708  65.7205276
  73.5446243   7.4120874  66.4045410  72.9752350   8.7890482  66.1385345
  85.6751938  55.3714371  39.2921715  84.9719238  55.3089485  39.9384995
  85.2229462  55.4880295  38.4566422  27.0514164  61.7014618  74.7605057
  26.4968300  61.0433731  74.3414764  26.6622105  61.8267365  75.6259918
   6.1282282  42.6358299  88.3223801   6.8651090  42.6093559  87.7120209
   5.5587931  43.3251610  87.9806213  82.8262939  17.7507858  35.6186180
  82.8386536  18.7074699  35.5897026  82.5237427  17.4887753  34.7491074
  73.0266418  66.7984467  88.0396576  72.9858017  67.7546539  88.0246735
  73.9624863  66.5990677  88.0656662  53.7734680  52.6887093  11.5586863
  53.6373405  52.9312134  12.4745979  53.4912605  53.4573479  11.0629225
  32.5402603   1.0137153  50.9593582  32.7414398   1.1570169  51.8841400
  32.3759193   1.8901531  50.6113892   4.0553555  16.4507580  43.6541939
   4.8559980  15.9954138  43.9147034   3.5008972  15.7656727  43.2807426
   5.3938422  67.1579208  52.0890198   6.2792835  67.1821136  51.7261963
   4.9827805  67.9618683  51.7713394  54.0166740  21.4850597  80.0189743
  53.2830811  21.5887089  80.6250458  53.7743912  22.0118160  79.2573547
  50.8747292  26.5629215  64.1176224  50.1808548  25.9274368  63.9417419
  50.4522400  27.2380333  64.6486130  39.9192619  67.0354538  30.1513958
  39.7773476  67.1678009  29.2140732  40.1345749  67.9059219  30.4862976
  20.4288120  46.3239708   9.2610016  20.6635571  47.1591988   8.8566208
  19.7223797  46.5423317   9.8688698  66.9111710  54.2897186  60.6483688
  67.3458252  53.4912491  60.9479599  66.1438980  54.3716888  61.2147636
  67.4492722  20.6892338  21.3295250  67.2744598  21.5471706  20.9427223
  68.3754425  20.5290833  21.1484318  37.5127563  64.3608170  47.8513565
  38.4470024  64.2938309  48.0486717  37.4564323  64.2157288  46.9068947
   9.6877079  45.4345016  24.3969727   9.7297153  45.8825264  23.5521412
  10.4203949  45.7953720  24.8961468   7.6597943  15.0694227  10.3087435
   6.8506770  15.2480354   9.8295164   7.3671346  14.7398052  11.1584110
  63.8405991  45.3927803  50.8176727  63.6687050  45.3465004  51.7581749
  63.7331467  44.4927711  50.5099831  15.0753040  65.5572052  71.6213531
  14.5039845  65.9877243  70.9853668  15.8960552  66.0477066  71.5765762
  18.9944782  27.3362045  57.7951164  19.4976902  28.0914154  58.0995255
  18.2642250  27.2711544  58.4105263  68.1517410  12.0942249  61.4659691
  67.5291595  11.7799139  62.1215820  68.9151535  12.3698568  61.9733734
  41.0725708  41.6622124  16.3430157  41.2794342  41.0116806  15.6720114
  41.9045639  42.1040039  16.5128632  43.9857445  40.5853729   0.3406284
  44.0431862  39.7848320  -0.1809725  44.4566765  40.3794212   1.1481158
  51.4915428  17.5687675  30.4721718  51.6695595  18.2137852  31.1566372
  51.9321060  16.7736187  30.7719631  25.9647980  54.0615196  10.6191092
  26.7266159  53.6056976  10.9770117  25.2684479  53.9006233  11.2558517
  18.7762794  36.6022606  14.2823906  19.5423908  36.4254761  14.8283300
  18.9008045  36.0516167  13.5093975  76.4903793  42.7239075  81.3298340
  76.6421356  43.5819321  80.9336014  75.7309189  42.8533592  81.8978882
  11.5628748  57.1327209  44.6073265  10.9880276  57.7524948  45.0563927
  12.0169029  56.6724739  45.3132019  62.6440392  39.9367561   9.8998184
  63.0240784  39.8760643  10.7762413  62.9465218  39.1465034   9.4523420
  71.8414383  34.8801193  42.4886436  71.0488663  34.5452156  42.9080582
  72.2555237  35.4239159  43.1587524  52.2733879  13.9740276  81.3326797
  51.3455887  14.0837364  81.1243973  52.5001945  13.1170206  80.9716644
  49.6526604  34.3402100  11.4446354  48.8214569  34.0107040  11.7863398
  49.5090332  35.2796288  11.3302193   1.7059305  71.0833817  10.1086187
   1.8233938  71.5870743  10.9140520   2.5943062  70.8456650   9.8430767
  38.2128944  66.3712540  64.8623199  37.5666466  66.5801773  65.5368195
  38.3700981  65.4325256  64.9638138  46.3633003  29.5098209   6.3613410
  46.6440163  28.7951221   5.7898216  47.1714096  29.9749832   6.5777092
  11.0050831  70.7580948   2.0629394  10.3371325  70.8188019   2.7458661
  11.4049082  71.6275177   2.0410109   0.2822219  61.7072830  83.0299454
   0.3296795  62.2486305  83.8179245   0.3482656  60.8084908  83.3524933
  47.6809044  67.0005264  62.8812218  47.7411842  66.2483749  62.2922745
  47.7322311  66.6221619  63.7589645  38.7487030  14.0593023  63.2063751
  38.5017433  14.8923464  62.8047829  38.3901978  14.1051016  64.0927200
  66.0839920   0.6534964   1.0899314  65.3482361   1.1168501   1.4901897
  65.8302689   0.5478811   0.1730320  66.9841919  33.8538857   8.5212135
  67.5965881  33.5845795   9.2058163  67.2381058  33.3377075   7.7561507
  32.5821762   9.6602201  35.6802864  32.7205849   9.0889692  34.9248085
  33.3157654  10.2745199  35.6536560  84.4267654  70.7308426  71.9654312
  85.0046463  71.4637833  71.7530899  83.8521805  71.0699158  72.6518021
  54.9351006  38.3443756  10.9260511  54.4799995  38.8233185  11.6186771
  55.5119324  38.9942856  10.5246592  83.2574081   0.6107849  33.9312363
  82.3174896   0.7086710  34.0835762  83.4334564   1.1543145  33.1632423
   0.4343608  34.5226593   5.7091041  -0.1180277  33.7409325   5.7082214
   0.1995157  34.9827919   4.9032760  38.6022835  11.7553205  66.4419785
  38.9160347  12.2816000  65.7065735  38.4667931  12.3871899  67.1481094
  80.2910080  66.6508789   1.2592884  79.8498611  66.0275803   1.8364612
  79.9794693  66.4271011   0.3823038   0.6060882  29.1561604  58.8083611
   0.5270655  28.8172741  59.7000694   1.3531941  29.7534561  58.8444633
   0.2635978  56.1254311  11.2841511   1.2051411  56.0543365  11.1270723
  -0.1151598  55.3866310  10.8077564  80.8157883  58.2431107  35.8881493
  79.9352417  57.9686890  35.6321030  81.0880280  58.8484840  35.1984787
  85.5210190  29.3544827  55.1086388  85.9678726  29.5864811  54.2945557
  86.2157669  29.0215969  55.6767426  22.1540680  24.0154781  14.2431536
  23.0379238  23.8120937  14.5492001  22.2859325  24.6321163  13.5230150
   4.0772080   9.5861912  55.2186127   4.3143678  10.5129251  55.2525291
   4.9070306   9.1317654  55.0732689  53.2725182  54.5713234  13.7953453
  53.1203423  55.1279907  14.5590191  53.1684494  53.6787415  14.1250343
  16.3134937  67.3360367  67.6573563  16.2154217  66.3846359  67.6191406
  17.1437702  67.5092468  67.2136536  63.1564865  41.8676147  70.1075668
  62.4444656  42.4020119  70.4592438  63.2511406  41.1514473  70.7355652
  25.6464996  29.7385349   4.5465755  25.7707615  30.2021084   3.7183900
  26.3288498  29.0672531   4.5500307  48.7763710  49.3146667  14.2049541
  48.2712669  48.5015869  14.2068110  48.4713020  49.7879143  14.9790344
  54.6377754   4.8423414  12.9932013  55.3303108   5.4079909  12.6516314
  53.8450203   5.1368818  12.5448542   2.8080332  46.6321716  80.5874100
   2.4099205  47.3235321  81.1163254   2.1022341  46.0007858  80.4480057
  22.3721905  54.4813957  21.2405643  22.6848450  54.1175308  22.0688648
  22.6911430  55.3838921  21.2398472  14.0384302  67.6174240  66.2435150
  14.0163517  66.7240219  65.9006042  14.6887884  67.5886230  66.9452515
   2.3798029  41.1259995  17.9535999   1.8643045  40.6773682  17.2833557
   3.2290080  40.6845932  17.9379692  33.6290817  63.9400864  41.0406456
  32.9904060  63.5024567  40.4777908  34.4090195  63.3872375  40.9928093
  35.1965027   2.0355880  58.7278252  34.4275322   2.5534511  58.9660110
  35.8913269   2.3615136  59.2998619  44.8432083  21.8590431  76.1655273
  45.4654198  21.5798779  75.4938507  43.9837608  21.7296963  75.7644653
  17.8519325  66.3757706  61.3162842  18.4282513  65.7241974  60.9168625
  16.9905987  66.1971130  60.9389038  15.4034767   4.1598096  81.1424408
  15.9509993   3.4006839  80.9419937  14.9154110   3.9032018  81.9248581
   6.6661568  64.7817383  84.3340683   7.2118220  65.1658859  85.0203018
   7.2556739  64.6831284  83.5864182   5.2017603  25.9360485  15.1818419
   4.4976377  25.5545235  14.6575499   6.0000458  25.7346897  14.6935520
  53.2440338  26.9562969  66.8437805  52.7798767  27.3353844  67.5901642
  52.7643852  27.2720490  66.0779724  60.9050369  10.8031616  85.8164291
  61.2123451  10.0245094  86.2806396  61.0639458  10.6095333  84.8925781
   6.5397034   9.7696857  85.8370056   5.5879998   9.8271542  85.9217987
   6.7206311   8.8304491  85.8005142  35.0444183  56.8089828  32.1992989
  34.8638992  57.4143677  31.4801636  35.9945145  56.6937943  32.1826363
   8.5621090  13.2028008  14.2931690   8.8527145  13.1980314  13.3811617
   8.2817793  14.1044044  14.4505091  18.4167118   1.4928932  42.4767227
  18.1065807   1.8633153  43.3030624  19.0741901   2.1157296  42.1668396
   2.3512657  44.9802284  66.7668686   1.6075448  44.6759796  67.2870102
   2.9080265  45.4431229  67.3929520  62.8132553   8.5795298  71.9474640
  63.5900383   8.0243416  72.0153275  62.0774651   7.9698477  72.0034485
  83.7161636  21.0206451  52.3441811  84.1542282  21.6446705  52.9229050
  82.9736252  20.6998444  52.8560028  66.4643097  35.5837593  11.1849203
  67.3239288  35.5101585  11.5994968  65.8443451  35.5643158  11.9139576
   9.4054728  30.8057098  13.4351692   8.5992661  31.2351112  13.1490278
  10.1044168  31.2946568  13.0008430  25.1062641  49.9559669  86.3583755
  24.3157387  49.6842384  86.8247070  25.0529919  50.9113503  86.3331375
  32.0455170   5.4659085  73.1024857  32.5441933   5.8923588  72.4055634
  31.9840107   4.5510793  72.8276443  41.6416054  42.7733192  54.0526237
  42.2214775  43.5297356  53.9642372  42.0043640  42.2779465  54.7869568
  16.5386848  45.7926025   9.0902500  16.5436230  46.7392006   8.9482594
  16.7203865  45.4200401   8.2274561   2.0516605  52.6423416  61.7418633
   2.7916937  52.4303055  61.1729813   1.8570573  53.5596619  61.5498085
  16.1823082  13.5963593  26.5372601  17.1069450  13.6413012  26.2938271
  16.1586571  12.9895840  27.2771893  43.7263908  43.7102890   8.1584349
  43.3292999  42.8469238   8.0437555  43.8622551  44.0317383   7.2671189
  75.5958176  59.3866806  74.4308243  76.4315872  58.9717178  74.6442032
  75.8277740  60.2847290  74.1943207  25.8614254  11.6540146  16.9840183
  25.3286247  11.9552488  17.7199631  25.5000095  12.1102409  16.2241058
  84.2379837  50.4895477  23.9195557  85.0801620  50.1244316  23.6481571
  83.5932083  49.8419647  23.6346970  76.8769989  68.6002502  70.7786026
  77.4592667  68.2479172  70.1054993  76.8329697  67.9113617  71.4417191
   9.9741106  46.3508110  86.5808411   9.7471848  45.6633720  85.9546127
  10.5296535  46.9524307  86.0852051  40.2967415  64.4662933   1.2757032
  40.6982689  64.6958771   2.1137362  40.0701599  63.5405273   1.3643141
  41.5438614  41.6574669  73.4884567  42.3833046  42.0030594  73.7920074
  41.0061760  42.4344673  73.3355026  30.0040474  52.6436539  29.7667408
  29.2304096  52.8347054  29.2364445  29.8601875  51.7536240  30.0882816
  12.2540655  29.7330456  63.3215828  12.3188705  29.9871902  62.4010162
  11.6149645  29.0204945  63.3289185  71.3745804  47.9242172  70.5961914
  71.6255951  48.5262604  69.8956451  70.4665680  48.1530075  70.7947083
  62.3061790  24.8443928   6.9768553  62.9602089  24.1568737   6.8511968
  61.5322342  24.3826523   7.2994061  69.3100433  39.6323051  24.7202549
  69.2537231  38.7662544  25.1240120  69.1982651  40.2436790  25.4482365
  77.9398041  20.8643456  41.3336830  77.5781479  20.6608658  40.4711113
  77.7179642  20.1044083  41.8717499  51.5140724   6.0277987   6.2394829
  51.4088402   6.8975964   5.8539824  51.1953926   5.4270911   5.5658174
  29.1534767   7.2725739  55.4201202  29.1759930   6.4144688  55.8436546
  30.0391350   7.3941107  55.0779724  32.2649117  47.0001984  60.7555122
  32.8942909  46.3471603  61.0615501  32.4188042  47.7616539  61.3147354
  50.0317993  41.8220940  30.8664093  49.8770561  42.7616653  30.9638443
  49.4148140  41.4135132  31.4735508  10.9028444  54.0170135  85.3277206
  11.2259617  54.7545891  85.8452225  10.0887108  54.3360558  84.9383240
  79.4634323  56.6578941  30.8073921  79.1167603  55.7956009  30.5782623
  78.6870804  57.1879578  30.9877815  63.7743950  35.1944199  50.1175117
  63.9224930  34.9433746  49.2057686  62.9776993  35.7244568  50.0936089
  58.3267441   1.2320271  38.1715927  58.8323708   1.5424397  37.4204483
  58.3022537   0.2808469  38.0672455  86.7553482   2.9397247  43.2750664
  86.0056458   3.2465417  42.7651215  87.4008179   2.6782684  42.6183815
  86.6130447  36.7707100  69.3587723  86.1487274  37.3749008  68.7794571
  87.5240860  37.0628510  69.3290100  49.9487419   3.2803402  16.6162758
  50.5699348   2.6155846  16.9136848  49.8686028   3.1289916  15.6745205
   9.2198553  38.2739906  55.5014267   9.1145821  39.1779747  55.7980118
   9.3001900  37.7650642  56.3081284  16.1945133  41.4886360  77.9692917
  15.7194967  41.7351151  77.1756668  16.0512829  42.2193031  78.5708237
  49.0264931  60.6198997  64.1757660  49.3747787  59.7778854  64.4689255
  49.7947807  61.1053314  63.8752327  28.8482361  36.8864098  10.0865011
  28.5858173  37.5909500   9.4940557  28.3063755  37.0139694  10.8651838
  23.7876987  56.8411674  81.5018692  23.6273766  56.4751053  82.3716583
  23.6112309  56.1172028  80.9010696  32.0675774  69.7820358  63.8282166
  31.9804611  70.6492233  63.4324608  31.3178368  69.7120361  64.4191666
  76.7434082  15.3837681  19.1722507  77.3475647  14.6908541  18.9056091
  76.3694382  15.0715055  19.9961872  68.5598907   3.0125184  55.6187286
  68.3554382   3.6935370  54.9779129  68.1794510   3.3316672  56.4370422
  68.2388000  51.4613762  32.0081825  67.3429947  51.6221428  32.3046913
  68.4753571  52.2509613  31.5215340  81.4298248   4.2927637   1.9520279
  81.5225754   3.4942288   1.4324400  81.6453247   5.0002708   1.3443898
  51.9695435  24.5348473  52.2055092  51.6288795  23.9932537  51.4935722
  52.5117493  23.9384422  52.7217941  85.5706863  57.9929085  39.2149658
  84.9432678  58.0548096  38.4947205  85.5716553  57.0657120  39.4527397
  83.2789841  34.7197685  19.5008297  82.6123352  34.0496216  19.3500938
  82.7865524  35.5384674  19.5597973  70.9418869  55.8780823  77.9429321
  71.6308365  56.3852158  77.5135269  70.1675339  56.0160942  77.3974380
   9.9145947  37.4540138  33.9460831  10.1103497  38.2907867  33.5245132
   9.1208420  37.1455269  33.5090218  60.3690605  57.6304436   9.1819658
  59.5953979  57.8963356   9.6789351  61.0641861  57.5666618   9.8369188
  77.6404114   4.2812839  16.8475933  77.3459473   3.3764961  16.9518948
  78.5556335   4.2690954  17.1276932  81.7398987  18.7025795  27.1661282
  82.4307480  18.0452824  27.0829010  81.4216232  18.6032372  28.0633793
  67.4339294  21.1535435  67.3775101  67.4974594  21.8564453  66.7308884
  66.7958527  20.5439472  67.0067215   3.0493701  39.6692276  79.7658920
   2.8853981  39.3322296  80.6466675   3.7487919  40.3123360  79.8818665
  32.7653961  47.7963409  76.9979782  33.2883072  47.0586967  77.3121185
  32.9713593  47.8558655  76.0651016  78.9761963  37.0525246   2.1268976
  79.2783356  36.2042847   1.8021941  78.0915375  37.1432343   1.7727946
  22.7742271  34.7164268   1.1314826  21.9052849  34.4166908   0.8644044
  23.1021461  35.2039719   0.3758360  31.4985561  24.8109589  69.9130020
  31.0323467  24.3664322  70.6210098  32.4221687  24.6219997  70.0787277
  59.9809341   7.8633156  33.1317711  60.1679993   7.9490972  32.1969566
  59.5437965   8.6823902  33.3647041  55.7111626  13.2990608  58.2665291
  56.6068459  12.9672489  58.2041855  55.1953125  12.5442505  58.5500603
  12.6971607  70.2972488  50.1230736  13.4412613  69.7789383  50.4295044
  12.9719524  70.6286240  49.2681389  73.6840210  31.3197460   8.2724819
  74.4998550  31.6911068   7.9367146  73.8590240  31.1558018   9.1991587
  34.2213440  48.7124863  74.5617599  33.5560760  49.3269691  74.2518234
  34.7954178  48.5803680  73.8072968  51.4370346   7.8958225  33.5321579
  51.6277885   6.9846325  33.3095016  51.6498146   7.9645452  34.4628754
  78.5080795  37.9446487  43.6468773  78.2055435  37.0408211  43.7352104
  79.3973541  37.9352417  44.0009041  49.2073593  64.7064133   5.1240082
  48.8153229  64.3871231   5.9367776  49.3154335  65.6471863   5.2636347
   2.8115616  49.8237343  49.8571167   1.9767885  49.3616333  49.7806473
   2.7775557  50.2386551  50.7190437  18.2997131  71.1473389  64.1938171
  18.0704956  70.3407135  63.7322388  17.4867535  71.4186401  64.6201019
  63.9110222   0.6150639  82.4776993  64.2416306   0.0821820  83.2008591
  64.5279922   0.4580417  81.7629013  83.7359390  64.1242218  31.0024662
  83.0868988  64.5668564  31.5493240  83.3775101  64.1754379  30.1163845
  64.1936188  55.2540436  62.8546257  63.8752518  55.2028999  63.7558823
  64.6359863  56.1014175  62.8045998  47.1923332  56.4216385  80.6398315
  47.5010490  57.0777092  80.0149307  47.3901672  56.7965431  81.4980469
  35.2992096  48.0183220   1.3895904  35.9704704  48.6829567   1.2349956
  34.5600319  48.5048103   1.7545233  45.1839256  65.1938477  31.0043545
  44.8758278  66.0322800  31.3483524  45.0975571  64.5870209  31.7395649
  40.1311646  41.6480179  12.5941124  40.6431885  41.3373833  13.3408184
  39.3081856  41.9512024  12.9775352  39.7805939  67.5003052  24.8965130
  40.1245804  66.6540527  25.1824417  40.5353394  67.9493942  24.5158424
  26.1472569  47.2019272  15.4803991  26.2602234  46.2594910  15.6040487
  27.0358448  47.5561676  15.5144262  13.0079718   6.0647783  65.8810654
  12.6564503   5.3694267  66.4370728  13.3419867   5.6082087  65.1089172
   6.9948864  61.5465508  61.5719070   7.8985362  61.4441414  61.2733040
   6.6641116  60.6513519  61.6456871   8.5495348  52.0177841  70.4787674
   8.6933613  51.0855713  70.3159180   8.5100069  52.0910301  71.4323425
  62.5986710  42.3377266  61.7294312  63.4298782  42.4331207  61.2644310
  62.8143311  42.5167198  62.6446838  37.5549774  42.8387756  13.3352194
  37.1522598  43.6717453  13.0898323  37.0924797  42.5741920  14.1304035
  81.4844666  19.2400818  39.7544403  81.0749969  20.1021023  39.8285065
  81.0957184  18.8570290  38.9680710  41.8011627   2.3023932  47.7015724
  41.0784035   1.8036182  47.3206902  42.1010818   2.8697672  46.9913864
  75.5000153  19.7304325  52.7025146  75.5603790  20.6319389  52.3864899
  75.3392258  19.8162975  53.6422005  45.6890182  50.4830589  25.7698860
  45.7054329  49.5266762  25.7339325  44.7857819  50.6985397  26.0021839
  18.5408306  70.3751450  41.9364319  18.5523376  71.3276138  42.0307732
  18.3089752  70.0510406  42.8067360  22.3022652   7.7263160  87.5298233
  21.4925308   7.7769589  87.0218887  22.2688675   8.4867334  88.1102448
  62.8036423  60.7517700   5.9579329  63.1100426  60.5907974   6.8503675
  62.7381516  59.8807602   5.5664153  15.9483519  40.3067322  56.4923210
  15.4189196  39.5397606  56.2739410  15.3480482  40.8865967  56.9609642
  24.7661324  58.8408318  34.0095558  24.7328644  59.1913261  34.8996544
  25.4666767  59.3348618  33.5836372  69.3655396  56.2392273  42.0700340
  70.0066986  56.9277000  42.2465172  69.0902405  55.9404373  42.9367371
  82.6302567  44.0309563  22.7303448  83.1166611  43.2989655  23.1096001
  83.1165543  44.8088455  23.0035400  57.3345528  65.1466751  37.0237808
  58.0696144  65.2869110  36.4269180  57.6924858  64.5945816  37.7189827
  15.3157434  56.8253250  68.9718933  14.7610092  56.3446198  68.3575516
  14.9291067  56.6515999  69.8301315  65.0364761   4.9961634  51.7554779
  65.1680222   4.0564919  51.6292076  65.5698853   5.4063029  51.0746765
  14.4399824  57.3903694  75.7155914  14.8425751  58.1550140  76.1272583
  13.7363319  57.7513504  75.1763306  10.8168039  17.2638130  62.8983612
  10.5962772  17.7446308  63.6961174  11.7660313  17.3567505  62.8173599
  13.1401501  63.6555405  12.5294724  13.3312283  62.8043404  12.1355381
  12.6695604  63.4458809  13.3362074  40.6675720  22.3190765   1.4061532
  39.9411316  22.9350796   1.5013222  40.5960541  21.7447720   2.1685779
  13.9183750  38.7390862  69.0145111  14.6486597  39.3555450  68.9607391
  13.9174290  38.2943649  68.1668930  44.6520309  25.3963966  63.8372574
  45.5887718  25.3664837  63.6426849  44.3418121  24.5086784  63.6585045
  81.3917236  23.4272919  80.4204559  82.2625961  23.2301750  80.7653503
  80.8765640  23.6638680  81.1917343  44.9089813  59.8003807  87.2340927
  44.9985924  59.3641586  86.3867950  45.7430649  59.6399841  87.6754608
  13.2999525  19.0300808  23.7125149  13.4252720  19.9783573  23.6764717
  12.8770027  18.8763218  24.5573235  85.1845398  43.5542183  60.8113403
  85.5816345  43.3368340  61.6547203  85.5494080  44.4106140  60.5884476
  78.1366119  12.6940174  42.0463791  78.8341827  12.5598173  42.6879578
  77.5850449  11.9157667  42.1259499  27.1829319  61.3568192   1.1498563
  27.9603596  61.9132385   1.1025705  27.2270832  60.9569092   2.0183935
  63.1736832  65.6473160  88.6654510  63.0453300  66.5246811  89.0259857
  62.4172287  65.1485367  88.9740372  79.5467606  31.6689777  16.9473248
  80.0769424  31.8308392  16.1669788  79.2570419  32.5381355  17.2245617
  70.7622757  42.3411217  66.5960693  71.2448654  43.1675415  66.6152802
  70.2035675  42.4079742  65.8217239  14.0749636  65.8302536  47.9579506
  14.5396461  66.2330017  48.6915016  14.1920900  66.4450302  47.2336807
  73.7211914  51.4723015  61.9773483  74.6173553  51.3126678  61.6813240
  73.6806793  52.4180679  62.1191788  45.3128853   6.1242919  70.4291306
  44.7977638   5.3860316  70.7544785  45.5441780   6.6197023  71.2148132
  68.8240967  13.2416782  22.8879910  68.1953278  13.9181013  23.1396523
  68.7234955  12.5614796  23.5539055  65.8197098  54.3034477  30.2854443
  65.2443695  54.9763985  30.6492481  66.7020340  54.5888481  30.5226955
  81.2266769  12.2666016  66.4774628  81.5465088  11.5557384  65.9219360
  81.3195877  11.9334221  67.3699799  39.5628624  37.8128319  13.0072651
  39.5362244  37.9615936  12.0620708  40.0459251  36.9925194  13.1070976
  52.9692078  57.7068672  35.8248901  52.4053116  57.5112267  35.0765724
  52.6665459  58.5598869  36.1363144  28.4106083  35.9215736   1.2072504
  27.7024536  36.2773132   1.7440902  28.8285656  35.2661858   1.7658279
  22.3308353   7.3681011  57.3160400  22.7863865   7.5602193  56.4964066
  22.9449921   7.6355500  57.9997902  61.3456917   2.3590035  57.4095497
  61.1351662   2.0905967  56.5151939  60.8835793   3.1892061  57.5255127
  67.1036530  15.7691708  30.0870113  66.1731720  15.7104321  29.8702488
  67.1499252  15.5265198  31.0117874  76.7397308  70.9828949  69.3506241
  76.1159973  71.4362793  69.9177475  76.6214752  70.0558167  69.5574646
  68.0719070  60.8747978  54.7819824  68.0193863  61.6145248  54.1767769
  68.8917770  60.4365501  54.5539970  86.5306625  46.5974960  24.6312275
  86.0469589  46.2287292  25.3703365  86.0236664  46.3405571  23.8610535
  66.7419205  69.6609955   5.4287834  66.6695099  69.1281815   6.2206788
  66.0346146  70.3013611   5.5054598  32.1388168  14.2409534  14.3545380
  32.6830063  14.5199327  13.6181555  32.4386902  14.7752991  15.0899172
  73.2333374  57.4439087  34.8601456  73.5990219  57.3709221  33.9785652
  73.1816025  56.5409317  35.1734962  80.1067505   7.2859631  80.6313782
  79.2852020   7.2851391  81.1225891  79.8492584   7.4987564  79.7343521
  38.4689560  65.8062668  80.9943848  39.0824585  66.5071869  81.2147293
  37.7150383  65.9600830  81.5637512   4.8059559  52.1371536  35.4167824
   4.9719944  51.7313995  36.2676773   5.6612282  52.4620476  35.1353836
   1.9648046  32.8630981  87.5542374   2.8215618  33.2797432  87.4614716
   1.7117233  32.6341400  86.6599503  46.2581558  70.9209976  10.1846418
  45.6809425  71.5022888  10.6797686  46.7472916  71.5055161   9.6055861
  37.3778801  71.1731491  58.7566376  36.7618408  70.7540588  59.3575516
  37.4081154  72.0860672  59.0428009   4.1867151   1.4159623  48.2518005
   4.8330531   1.4469547  48.9571495   3.9088228   0.5004854  48.2216377
  31.5594101  12.4798470  67.8959351  32.4867096  12.2735586  67.7784882
  31.2911873  12.8614101  67.0600586  18.6145725  41.0867462  67.3808975
  17.8277683  41.6197662  67.4951782  19.1805172  41.3353500  68.1117477
  85.5081177  53.6593704  31.2271881  84.9256439  54.4180717  31.1907921
  85.2209702  53.1738396  32.0005150  16.4735832  57.3919182  60.2058372
  16.3199692  56.5808067  59.7213478  17.3980560  57.3530807  60.4509392
  70.8492355  45.5541534  72.1996078  71.1524200  46.2253876  71.5882568
  70.6448288  46.0352592  73.0014725  28.2175694   7.9188051  28.1782932
  27.3648510   8.0651722  28.5877838  28.1010590   7.1221914  27.6605453
   5.6645007  68.4416275  63.9965439   6.3209982  67.7473373  64.0531235
   5.7645555  68.9328918  64.8119507  11.3919239  12.1107168  14.3194618
  11.8793545  12.1818733  13.4987421  10.9297075  12.9453602  14.3966522
   7.8869314  11.2116880  83.8884735   7.3507700  10.7718763  84.5482635
   7.6575246  12.1372690  83.9715576  59.5799904  54.7281075  24.7329884
  58.8266602  54.3879318  25.2157001  60.2642288  54.0715256  24.8631783
  77.1419907  48.6391830  11.9532795  77.0923615  47.7741623  12.3601055
  76.3727951  48.6811333  11.3851147   1.9306151   9.1381340  73.3853683
   1.3931960   9.8904305  73.1374512   2.8231888   9.3945990  73.1534805
  63.8618355   2.2125666  73.9664841  64.5565567   2.8657761  73.8833389
  64.2963333   1.4474537  74.3433762  15.7174578  24.9311295  64.5562515
  16.3748360  25.4013176  65.0690994  15.1911106  25.6207047  64.1516800
  83.6185455  36.4202194  37.0820122  84.2615967  35.7184639  37.1832962
  82.8032913  35.9684143  36.8641434  21.0700054  67.3214340  67.3666306
  21.4765682  67.3934174  68.2302017  20.4641819  66.5848007  67.4477692
  58.1440125  37.3039627  85.3368149  58.2030754  36.3524170  85.4222870
  57.7933960  37.5986290  86.1773376  82.5090408  53.3905258  10.5204144
  82.2639313  54.2976608  10.3380280  81.8241043  53.0707932  11.1076574
  22.9794521  19.5392475  73.6731720  23.6364803  19.1962147  73.0674667
  23.4778652  20.0793552  74.2864380  77.7928772  48.6938095  75.9192581
  78.0875854  47.8866158  75.4975815  77.8262329  49.3524399  75.2254791
   0.6281584  58.5869522   5.4024162   0.1221184  58.3018074   4.6415958
   0.6667396  59.5398979   5.3209386  55.3838997  42.8818855  81.7993088
  56.3318100  42.7747421  81.8782043  55.0651360  42.8659782  82.7017365
  53.3406792   3.7497487   2.9059665  54.0761604   3.8051121   3.5160725
  52.5663033   3.7106209   3.4672556  67.1914520  33.6024628  23.6021633
  66.5988464  33.6876831  24.3490181  66.6282806  33.7115440  22.8358917
  25.2412033   2.3892870  54.7764015  25.6072254   3.2384999  54.5292206
  25.8439999   1.7493182  54.3978386  14.0920630  67.6801682  74.7024689
  14.6920080  67.3948364  74.0133514  13.4806194  66.9508591  74.8048096
  31.5036106   4.0350308  61.7262955  31.2028370   4.5394363  62.4821701
  30.7878914   3.4259489  61.5446472   7.0228271  23.4067917  81.2324066
   7.6063814  23.2778587  81.9801178   6.4925094  24.1671638  81.4707947
  81.9816742  14.6056128  53.6745720  82.0400848  14.8234320  54.6048279
  81.2131500  15.0844736  53.3642578  78.3295746  28.3538094  67.2285538
  78.6287918  27.5374260  67.6288300  77.3817902  28.2473984  67.1472626
  78.0928421   8.8175755  43.6703911  77.1381073   8.8826437  43.6920090
  78.2696991   7.8775120  43.7055321   8.3291912  19.2576675  13.2409172
   8.9976397  18.6151390  13.0030813   8.5607815  19.5263195  14.1299744
  10.5705061  38.0943413  36.4594650  10.3670158  37.8638077  35.5530014
   9.9879332  38.8278008  36.6566277  13.9163275  62.8819923  48.5880699
  14.3287230  62.8893204  49.4518433  14.0001001  63.7826653  48.2750130
  84.9949112  67.7440033  60.1993828  85.1008606  68.3478775  59.4642982
  84.6438141  68.2860107  60.9059181  71.4973984  48.0862846  81.1703491
  71.6442566  47.2989807  80.6461258  71.3413010  48.7771111  80.5264435
  54.2567291  65.3858795  70.1715546  54.2363892  64.4908142  69.8329163
  55.1857681  65.6159897  70.1845398  19.0111008  43.8507385   9.3408365
  19.6981754  44.3821297   8.9386120  18.8429165  44.2740135  10.1827297
  19.5911808  60.2100258  71.7110062  20.1724606  60.7189178  72.2761307
  18.7125969  60.3939056  72.0434341  36.3838120  63.2462120  60.9884872
  37.0605659  63.6668205  60.4580879  36.8541908  62.5857201  61.4971352
  19.6828594   0.0405804  78.1786499  19.8934193   0.8002203  78.7216415
  19.5894947  -0.6804114  78.8012924  38.4662819   3.1321588  65.5406342
  39.0456123   3.5003192  66.2077637  39.0589714   2.7562802  64.8897324
   6.2022405  39.5316391  79.1519318   6.2996058  39.9563370  80.0042114
   5.9880104  40.2457237  78.5515823  48.6453705   3.9986167  33.0511322
  49.4142189   3.7094977  32.5596886  48.5642624   3.3646693  33.7637062
  83.5488052  22.6878109  44.8615570  82.9339142  22.6710320  44.1281738
  83.0361252  22.3848324  45.6109505  60.2528992   4.6292777  30.7597733
  59.6128540   5.3263206  30.6158829  60.4096718   4.6392393  31.7039948
  34.1963425  53.6812057  18.2828197  33.9985352  54.6060753  18.4302158
  35.1172714  53.5912399  18.5278187  35.2338753   5.0520034  78.9357071
  34.9092407   4.1728573  78.7409134  34.6846161   5.3554435  79.6585236
   1.6757395  38.6831322  47.2826500   2.1217864  38.5628471  48.1209831
   2.0897429  38.0484428  46.6978378  58.6331940  10.7641077  45.0118065
  59.4540863  10.3195114  44.8003769  58.8790588  11.4267426  45.6573296
  11.4769812  59.9402199  75.8134613  11.2090006  60.6051636  75.1792145
  11.9928055  60.4208565  76.4608765  55.1338730  11.4119053  66.5140915
  55.6818008  11.0622206  65.8114395  55.7495613  11.8466806  67.1041183
  30.1157455   6.1204882  38.9089813  30.9692211   6.5127282  39.0932541
  29.8199654   5.7824750  39.7542572  24.5033588  36.3762665  32.4960518
  23.8922462  36.2973480  31.7635593  25.3694782  36.3180733  32.0927124
  47.3483582  59.1341171  88.0990295  48.0200691  59.1650009  87.4178009
  47.3755493  58.2332993  88.4215469  70.2694931  71.0580750  70.3796005
  70.6238174  71.5977554  71.0863037  70.1880646  71.6577988  69.6380310
  10.5176973  20.4390640  80.8181152  10.7994757  20.2877293  79.9159317
   9.5638618  20.3652992  80.7866898  34.7034073  49.3240891  43.2902069
  34.5959396  48.3918724  43.1013832  35.4198914  49.6029205  42.7200012
  10.6849470  21.4372826  52.5082664   9.9631081  21.5431595  53.1279182
  10.8672457  20.4976082  52.5112038  31.1977787  50.8853989  22.8396320
  30.8539486  50.7514725  23.7228527  30.9062405  51.7650528  22.5999489
  59.1737137  25.5986214   8.3462515  58.4311905  25.4095898   7.7725272
  59.5737076  24.7444820   8.5095959  26.1672401  41.1158791  62.3770638
  25.3135281  40.9566422  61.9745064  26.6903400  41.5123940  61.6803780
   1.4030012  16.6274395  49.7258492   2.2193141  16.1787281  49.9461288
   1.5239114  16.9139175  48.8205643  25.8808804   0.6798949  35.7556610
  25.9525814   1.6165044  35.9396553  25.2663651   0.6259415  35.0237503
  12.6059141  11.4377165  16.9868736  13.1724844  12.2025986  17.0877953
  12.1256857  11.6008139  16.1750793  53.5253563   3.0467632  38.6856384
  53.3614616   2.1593370  38.3665047  54.4540825   3.1970193  38.5092392
  32.3227043  50.5241508  73.1604843  32.0677872  50.9265137  73.9907532
  32.1673241  51.2055511  72.5064316  86.1344376  31.6271133  48.9990044
  86.1504822  32.5230942  48.6625595  85.7105331  31.1190929  48.3073006
  13.8289804  71.0614014  47.7688560  14.4374237  70.3333740  47.8953590
  14.3920755  71.8264084  47.6508942  31.6214123  64.0921173  58.2725334
  31.9332905  64.9398499  57.9558029  32.0250893  63.9954224  59.1350479
  85.7158966  14.6749086  50.6325378  86.5377502  15.1238575  50.8306198
  85.0918350  15.3809214  50.4642410  67.6738815  67.6865845  76.0631256
  66.7961578  67.8361893  75.7117767  67.5301514  67.4795914  76.9865570
  25.8521900  51.4769211  27.1666508  25.2667637  50.7695465  27.4370823
  25.3781319  51.9257202  26.4665928   8.7564697   0.5728927   8.6750994
   8.0438147   0.6098067   8.0371399   9.4060574  -0.0054443   8.2753563
  72.1368790   2.5391006  30.0553913  71.5550308   3.2066364  29.6919727
  71.6050491   2.0896549  30.7121868  36.0098228  53.8822174  86.4739532
  36.5991364  54.5728455  86.7772141  35.1657295  54.0959435  86.8715210
  84.7838974  48.8904648  16.5852718  85.5954285  48.8048058  16.0849590
  84.1677551  48.3055840  16.1442299  67.6205139  35.7970238   5.5613046
  68.3743515  35.2563972   5.7972765  67.2710953  36.0997047   6.3994694
  13.6761360  71.6727295  10.2854815  13.1952896  70.9809189   9.8311472
  14.1025057  71.2270508  11.0174713   6.1304083  59.4977608  21.6463871
   6.5658727  60.3005295  21.9330311   6.5616722  58.8013840  22.1416664
  38.8877907  30.4263420  84.6686630  38.3897362  29.9586258  83.9982834
  38.8852768  31.3378773  84.3765564  42.0058975  60.8408661   9.5167112
  42.3653336  60.0967484   9.9997482  42.3966675  61.6085968   9.9339962
  38.3256111  68.7708435  85.6527328  38.6958885  68.5343704  84.8023224
  38.2466850  67.9387970  86.1193237  32.7503128  15.8086653   0.3335934
  32.9573326  14.9776917   0.7612122  33.5704231  16.3016529   0.3584315
  83.9561539  25.3535042  47.8256683  83.3577805  24.9972134  48.4823532
  84.4454498  26.0322037  48.2906303  16.2891140  35.8337212  20.7755890
  17.1844311  35.8364830  21.1141644  15.7386303  35.7558289  21.5547771
  22.8358402  53.1985397  68.6767426  22.3210602  53.0650139  69.4726105
  23.3174896  54.0101814  68.8363876  86.8533783  49.8195572  40.1516304
  87.0661240  48.9498329  40.4900780  85.9371490  49.9534264  40.3941841
  48.0738525   6.4943533  14.4702330  47.5833588   6.1053534  15.1943369
  47.9539719   7.4377422  14.5792170   3.2082922  55.4217834  50.2108841
   3.0812316  55.3141212  51.1534843   3.0956848  56.3602333  50.0596695
  28.6748524  33.2202072  58.5977402  28.4630756  32.8546295  57.7388268
  28.4890175  34.1553154  58.5124664   8.2340651  60.5708427  24.9855499
   7.3243055  60.8651466  24.9413548   8.6856327  61.0875244  24.3181992
  22.0321636  16.3422298  86.7632370  21.1242161  16.4578457  86.4830704
  22.4527206  15.8899040  86.0319595  86.8075485  43.2752075  21.7012596
  87.1837997  42.4517517  21.3904762  86.1772003  43.5211334  21.0241985
  35.7727394  45.5648003  74.1159439  35.0458450  45.5454330  73.4934616
  35.5052071  44.9684105  74.8152084  16.8455906  58.6325645  79.5238647
  16.7903976  59.1535759  80.3249512  15.9981651  58.1912079  79.4663467
  26.1768036   3.3128016  36.1190567  25.9626083   4.2316723  35.9577217
  26.9315872   3.1404173  35.5561905  15.1567783  35.6221123  84.8475113
  14.3445749  35.8845940  85.2807083  14.9047852  34.8833771  84.2934265
  57.3472939  32.0188332  49.6137657  57.1401520  32.9472427  49.5070877
  57.9807205  31.8335590  48.9204559  68.6848450  50.3102188   1.1401904
  68.1083603  50.6006355   0.4334005  69.4043808  49.8635254   0.6941324
  58.9787483  17.1725883  33.6944656  59.2503777  16.3033390  33.9891815
  59.0651588  17.7264061  34.4703865  85.7610092  52.0100708  11.4076128
  86.4595337  52.2752838  12.0059128  85.7421570  52.6974487  10.7417402
  86.3122864  13.0404930   2.4796193  86.3522110  13.9590197   2.7459774
  86.6169891  13.0407877   1.5722103  86.3985367   7.9132576  78.7933121
  85.9630280   7.1197968  79.1047287  87.3300858   7.6932311  78.7992706
  84.9358292  49.0151291  71.8654938  84.7697906  49.3966446  71.0034485
  84.3791809  49.5170975  72.4608078  69.4424438   1.7280802  68.9024887
  69.6079865   2.2670345  69.6760254  68.6154099   2.0592325  68.5523758
  12.1772709  43.2518768  63.8361092  11.7692118  44.1060028  63.6940308
  12.7307806  43.3761444  64.6070938  63.8686600  65.4741516  29.4610386
  64.1916199  66.1456146  30.0619278  63.4557381  65.9663239  28.7514648
  67.6574326  31.7383080  69.5582733  67.1501694  32.2874260  70.1560898
  68.5563965  32.0549774  69.6467056  31.4728088  35.5614166  71.8622742
  32.2360420  36.1372032  71.9089737  31.6317520  34.8980942  72.5338135
  75.2362823  61.4896049  87.2903061  74.3590469  61.7213516  87.5952377
  75.1839447  60.5530396  87.0996857  43.4335823  61.6522255   5.2905431
  42.8582802  60.9339561   5.0271912  43.5476875  61.5342560   6.2335677
  68.3812790  38.9015808  69.5349884  68.8984756  39.7067375  69.5134888
  68.6015472  38.4977570  70.3744125  85.8928070   3.8709581  39.3782120
  86.6266251   3.2563596  39.3823891  85.9466171   4.3024368  38.5254707
  30.7684879  67.7898254  47.8451920  30.6439133  66.8935852  48.1573868
  31.6467113  68.0272369  48.1428337  32.6561890  60.4465408  46.2770348
  31.8079033  60.6109123  45.8651772  32.5640526  60.7965889  47.1631546
  44.7034798  53.0835953  56.5702209  45.1115112  52.2621574  56.2964020
  45.4360580  53.6349449  56.8451309  22.7951069  38.5244598   1.1213840
  23.3418522  37.7979965   0.8221289  23.3640347  39.2920570   1.0635360
  78.8578568  32.2160149  25.6598549  78.7844162  32.0951920  26.6065540
  79.1711655  31.3721657  25.3342934  25.6191463  64.6049805  41.3817101
  25.7169838  65.3838272  40.8339348  24.8032742  64.7500610  41.8608055
  62.3527527  32.7236900  69.0402374  61.6766014  32.2882004  69.5592728
  62.5028915  32.1352234  68.3003769  24.7287693  53.2821655  25.3696480
  24.6526566  54.2275581  25.4987812  24.6695061  53.1643944  24.4215698
  71.7133942  15.4037695  29.6262264  71.5667038  15.0681448  30.5105724
  71.1248932  14.8890276  29.0740147  75.4294434  19.3377724  55.7069244
  76.3709641  19.1654644  55.7152405  75.0664902  18.7154980  56.3372231
  46.2550964  44.6709290  31.7291527  45.5148125  44.6222649  31.1243019
  46.3615952  43.7753754  32.0498924  28.6867504  14.9501896  85.2323990
  29.2817879  15.6885853  85.3625336  28.7611217  14.4378805  86.0375366
  50.1504288  70.3277206  13.1071005  49.5641670  70.6277618  13.8017263
  50.7144890  71.0800705  12.9281378  37.4110680  12.2557545  12.8790331
  37.2232552  12.3537941  13.8124914  36.5493660  12.2205286  12.4637499
  20.2684975  53.5583801  11.4990377  20.8322411  54.1915207  11.9435081
  20.8686543  52.8814468  11.1863003   2.4569993  66.2512360  86.9972382
   1.7399656  66.1138306  86.3781967   2.7534888  67.1450653  86.8257675
  13.8996172  38.9683990  52.8454552  13.7951698  38.4378548  53.6352959
  14.3825283  38.4051208  52.2406883  86.7599945  21.4839745  38.9236031
  86.6095581  21.0423393  39.7594032  86.8819656  22.4041195  39.1574593
  20.8417072  19.4477329   4.9988980  21.7208424  19.3947411   5.3737907
  20.3219337  19.8916264   5.6689916  74.1423798   6.6423144  48.2047958
  73.9128799   6.8052440  49.1196823  75.0639496   6.3849511  48.2312164
  54.9610710  60.4846992  48.8082657  55.5349007  60.1398888  49.4924126
  54.5369530  61.2425232  49.2108345  35.7318878  13.6364145  29.3605175
  35.1481361  14.3109417  29.0134163  36.3546677  13.4712391  28.6526394
  49.8891449  31.8231697  67.0986938  49.1826286  31.4107685  67.5956802
  50.5886459  31.1698341  67.0896683   5.7343826  68.7545853  48.7657471
   5.4941554  68.8211365  49.6899185   5.9070382  67.8229675  48.6296425
  21.6734142  63.6793175  13.0320272  21.8453426  63.4972534  12.1081629
  22.2630463  63.0925102  13.5055513  75.0662994  39.2578545  50.0914116
  75.4969940  39.2986031  50.9452667  75.0742188  38.3282700  49.8632812
  78.2411880  20.0288334  78.6197052  78.6996460  20.3649349  79.3898239
  78.8299103  20.2179050  77.8890228  40.4190025  37.7351952  86.0868759
  39.4707642  37.7757339  85.9626236  40.5626602  36.9215813  86.5702209
   1.9528351  71.0739517   4.5885892   2.0142355  70.1714249   4.9014869
   2.1312129  71.0147171   3.6500244  86.1139145  65.0688858  32.2485962
  85.4506149  64.4394760  31.9655685  86.9153595  64.5518951  32.3300896
  59.6289024  32.2287483  20.8370152  59.3876915  32.8821030  21.4936562
  59.8060226  31.4353485  21.3423634  72.3706284  67.7805862  66.5757980
  73.0113449  68.4915848  66.5616531  72.5748291  67.2899704  67.3719330
  43.9068565   1.9901403  44.6939850  44.4595337   1.5628295  45.3483429
  43.5234299   1.2681729  44.1960106  14.5353689  25.1791744  18.3284950
  13.6155863  25.3859863  18.4942055  15.0090904  25.6049690  19.0430012
  30.6958332  64.7116165  69.5848846  29.7711143  64.8447571  69.7932129
  31.1404877  65.4624710  69.9782410  61.3790054   4.2121496   5.9620104
  61.0381355   3.9068162   5.1212897  60.9093628   3.6920111   6.6140261
  74.6053848  50.4159546  28.2060585  74.2979813  49.6418152  28.6776981
  74.8707581  50.0841522  27.3483200   5.0305762  39.7170677  42.0416908
   4.3852315  39.5896683  41.3463287   5.5428510  38.9084892  42.0441055
  14.3199549  33.4621582  13.4375410  13.3695374  33.5677261  13.4798908
  14.6453514  34.3241196  13.1779833   6.0144238  15.3148594  64.2528839
   6.8787465  15.2407255  63.8483047   6.0467291  16.1397305  64.7374191
  14.2415257   4.1783633  47.2625809  13.4465046   4.2617421  47.7890968
  14.9048014   3.8662233  47.8781013  21.9965973  45.5209656  16.0547752
  22.0360146  44.6210976  16.3786774  22.5658569  45.5236855  15.2852516
  38.1118965   3.8439603  79.5232391  38.8334732   3.2869415  79.2311935
  37.7692146   4.2333946  78.7187881  25.2025452  53.3981590  58.9154739
  24.7989044  54.1694221  59.3135376  25.3008232  53.6290894  57.9917603
  81.7611313  20.3317814   7.3974981  80.9045410  20.2903748   7.8226752
  81.7140121  19.6782532   6.6997075  77.9679794  18.6484203  38.9431267
  77.9400101  18.4999580  37.9979248  78.5968170  18.0041504  39.2682610
  21.6323719  24.4289951  76.9342422  22.0961304  23.6903400  77.3286362
  20.8056221  24.0565796  76.6276093  56.4470062  35.1053238  74.0905609
  56.2128220  35.4549789  73.2308350  55.6095772  34.9973946  74.5414505
  55.4870110  69.7112808  63.5497818  54.7905083  70.0994339  63.0201950
  55.0975533  68.9151840  63.9114075  43.5831070  57.6842003  54.6636887
  43.3202591  56.9188881  54.1523819  43.9198685  58.3018036  54.0145416
  74.1790390  17.6699181  57.5483856  74.9797058  17.7212486  58.0704308
  73.5133514  18.0960484  58.0882950  44.3770943   2.6281374  34.6943474
  43.8205185   3.0865128  34.0647850  44.0262413   1.7379414  34.7205429
  15.1035223  52.7963715  42.8962708  15.0083017  51.8975182  43.2112808
  15.0843315  52.7191658  41.9423828  64.4040833   9.5068331  87.0064316
  63.5180130   9.1546259  86.9223785  64.5182343  10.0557299  86.2305984
   8.2132730  64.5621414  82.3025665   8.3217545  65.5071411  82.1956024
   9.1026678  64.2118073  82.2528152  22.7598934  30.9818230  28.8568172
  23.4065647  31.6874123  28.8706570  21.9192314  31.4292583  28.7602825
  72.7450485   5.4984913  19.5274010  73.4434738   5.0208936  19.0798149
  72.9557495   6.4211211  19.3838997  41.1062126   2.6075504  27.8915024
  41.2801552   3.2732887  28.5569115  40.5835609   3.0608869  27.2300262
  69.7981644  14.2260971  38.7598267  69.6209259  15.1667395  38.7628441
  69.5773315  13.9436073  37.8723221  83.3975067  65.9354095  18.3010998
  82.7428513  65.4948730  17.7592678  83.9655380  66.3829803  17.6740055
   8.6365986  63.0842590   5.7690654   8.2608356  62.3335686   5.3091774
   8.3416567  63.8444405   5.2676997  73.2057724   8.1085968  25.5379295
  73.5224915   8.5288162  24.7383461  73.1738663   8.8148813  26.1832027
  76.7834625  19.0611858   9.7998695  76.7291336  18.8742542   8.8626738
  75.8740311  19.1812191  10.0732756  57.2030907  56.1822281   2.8199058
  57.6383514  56.0548401   3.6628475  57.9020996  56.0881996   2.1727777
   4.2104917  46.7858658  20.1438580   5.1646466  46.7737579  20.0685368
   3.9621201  45.8625870  20.1897259  31.1942005  70.9573669  68.0056763
  32.0649834  71.1707840  67.6703796  30.8391972  70.3347702  67.3711853
  45.0414124  42.1739616  20.1432266  44.5824432  42.1242447  20.9817429
  45.6078835  41.4024315  20.1341305  71.9473038  69.8939514  26.6727276
  72.6746368  70.5145035  26.6265907  72.3643417  69.0477448  26.8347206
  79.9555969  30.1693726  54.1262169  79.9663010  31.1218300  54.0316544
  80.6744003  29.9804802  54.7294388  42.6520882  14.7665329   0.7513192
  41.9815254  14.0875854   0.8262006  43.4680519  14.2837753   0.6194992
  69.4768372  29.4133434  15.0253515  69.7320175  29.9615936  15.7673330
  70.3058777  29.1094875  14.6557674  64.5957870  61.6473427  55.7018623
  64.5851059  62.4785194  55.2272415  65.5229950  61.4796448  55.8703575
  51.1854172  55.1474724  65.9893494  50.9473610  55.0176086  65.0713654
  51.9525108  55.7192230  65.9592896  62.2753220  68.4613647   9.0354404
  61.8037376  67.6326523   9.1195517  61.8153191  69.0595474   9.6243429
  41.1252632  26.2851315  62.1300049  41.5521164  26.4422607  61.2877846
  41.1210518  25.3324032  62.2223358  41.4347763  24.5909233  65.8276291
  40.6056175  24.1458836  66.0027542  41.9300308  23.9721470  65.2909012
  18.3036919  66.2639923  70.5344772  18.3307304  66.1200485  69.5885468
  18.5986996  65.4350739  70.9114227  43.8826218  53.6732712  70.7364349
  44.2770386  52.8013077  70.7551575  42.9756584  53.5202560  70.4714127
  71.9956055  29.3960266  52.0011482  71.6982574  29.5354519  51.1020508
  71.7822876  28.4811535  52.1848145   7.6765976  55.4844475  30.5724316
   7.1093464  54.7140884  30.5407295   7.2961249  56.0340157  31.2575951
  76.3173904  21.7056770  24.8509197  76.2049866  21.5984287  23.9064121
  76.1082764  20.8459663  25.2161579  66.9306030  52.8909683   3.4023402
  66.2987442  53.6095428   3.4275382  67.5663376  53.1542664   2.7369490
  40.7532005  71.1885986  79.9599380  40.4354515  71.5768204  79.1447372
  41.1412430  71.9210205  80.4387131  81.4369278   8.9820871  77.8819275
  82.0283890   9.6278286  78.2684860  81.8340454   8.1370707  78.0928268
  36.4230957  32.2153587  78.7313690  37.1767120  31.6256924  78.7070618
  36.0989914  32.2270660  77.8307877  35.4720116  62.6184196  19.3102627
  34.9420319  63.3175278  19.6931458  36.3312569  62.7172813  19.7203293
  27.3890038  67.8262024   0.7263090  26.6836224  67.6586075   1.3512751
  27.8745670  68.5594788   1.1041480  70.1682892  31.9060192  52.3247414
  69.6932983  32.5604439  51.8125420  69.6212158  31.1219616  52.2778969
  84.6908722  62.8115082  82.3094254  84.2981644  62.8778038  83.1798401
  85.6093674  62.6001472  82.4765396   7.4786096   1.6004713  57.7813568
   6.5811896   1.4311366  58.0680504   7.6270885   0.9716933  57.0750809
  73.2311096  22.0068283  20.7459869  73.6002426  21.2110710  21.1290493
  73.3881836  21.9154034  19.8062000   9.9220524   8.6184263  88.9678040
  10.6241140   9.2673626  88.9206467   9.2111034   8.9966946  88.4504089
  52.3744812  12.3936472  69.1909866  51.6805992  12.3252850  68.5351791
  53.1311874  12.7224169  68.7056656  14.2005053  34.3861122  88.2577744
  13.6829147  33.5886459  88.1465302  13.5577965  35.0597458  88.4799805
   0.2364714  33.9954414  47.7307587  -0.1586827  34.8625336  47.6399879
   0.7165617  34.0364113  48.5578423  86.9996338  14.0745077  46.1350975
  86.3481598  13.6233215  46.6719818  86.5199966  14.8004770  45.7361603
  59.9120865   6.8461246  36.5475655  59.0139351   7.1501513  36.4167023
  60.2490158   7.3928905  37.2573280  75.2833023  34.2733841  33.9920235
  75.0071640  33.4357529  34.3639832  74.6172485  34.4747772  33.3347206
  37.5348167  56.5164757  29.5810471  37.2909012  57.1990623  28.9558964
  38.2380562  56.9070396  30.0998402  62.9790573  11.4362335   2.5324605
  63.0772285  10.9446020   3.3478699  63.4778519  12.2404661   2.6761410
  36.8490677  60.5392914  22.1227741  37.7127609  60.8370705  21.8371315
  36.4612808  61.3033867  22.5494061  72.9877777  29.4991875  64.8919067
  72.2396469  29.6639175  65.4658432  72.7170486  29.8434105  64.0407639
  83.5065765  63.1609001  12.1252975  82.6164169  62.8262939  12.2343426
  83.8723068  63.1613770  13.0098705  72.2370377  68.9708099  61.9612160
  72.6267166  69.7709045  61.6087494  71.5205460  68.7682419  61.3596840
   9.5210056  36.1862144  84.6565704   9.7287054  35.5173302  85.3090134
   9.7581882  37.0127563  85.0770493  82.3528442  55.8353348  63.0756607
  83.1339111  56.1245117  62.6039124  81.6440125  56.3674545  62.7142220
  25.9596939  68.4842682  67.9941025  26.8752460  68.2354889  68.1210175
  25.6819878  68.8188248  68.8468552  63.7475471  71.7017975   7.9003420
  63.3563957  71.6434708   8.7720242  63.6512833  70.8221970   7.5352831
  53.5153694  47.7010040  71.8049469  52.7761879  48.2654953  71.5786896
  53.4065819  46.9295273  71.2488708  16.1987534  54.1080093  31.9879208
  15.6398964  54.8782196  32.0913048  17.0901718  54.4567184  31.9911880
  27.8520317  10.1993618  16.1833820  28.0923824  10.6975384  15.4021749
  27.2625103  10.7793674  16.6653461  36.1107559  67.6255188  59.4514465
  36.0662003  68.5244675  59.7772408  36.4588966  67.1212463  60.1867943
  16.1956120  10.3018389  58.6189957  15.3284292   9.9154730  58.4967346
  16.1027966  10.8589907  59.3917847   8.4382563  22.3341846  87.3387222
   7.8412089  22.4887276  86.6066818   9.0723963  21.7016106  87.0011597
  13.4905806  31.0292339   4.3412924  13.5871363  30.1574535   4.7245765
  12.6191206  31.3158245   4.6145272  37.3523140  65.5075912  39.8434219
  36.9211807  64.6650925  39.7000771  37.2753029  65.9618759  39.0044174
  64.1419754  63.9882889  38.5401840  63.4301224  64.2282486  39.1334076
  64.9388657  64.1429443  39.0474091  80.0089722  34.1897430  58.8336716
  79.3639145  34.8384895  58.5521355  80.8101044  34.6942062  58.9748726
  50.5281334  67.1476364  57.5636635  51.1709099  66.8822937  58.2214355
  51.0495415  67.5432129  56.8651772  16.7729397   1.7426667  84.4221573
  16.3476505   1.3122914  83.6804504  16.0813026   2.2700677  84.8218079
  57.3629761  29.1950035   8.3446741  56.8899689  28.9066544   9.1252813
  56.7053833  29.1859722   7.6491733  24.4959011  61.1144447  22.2662144
  24.0977859  60.4364586  21.7202511  24.3008614  60.8444748  23.1636047
  67.9604950  67.0589294  88.2165375  68.7459564  66.8538284  87.7093735
  68.2764053  67.6033707  88.9376602  81.9558411  10.7254543  86.2681198
  82.0028458   9.9537458  86.8324661  82.3302155  10.4366951  85.4358368
  43.9281273  48.0237274  57.9007339  43.7740898  47.0971298  58.0849113
  43.8697205  48.4507408  58.7554131  51.1068954  50.4348869  16.2504368
  50.4031372  50.0563431  16.7773743  51.4194298  49.7085648  15.7109823
  28.7809372  55.2204361  12.5814648  29.6792336  55.4348717  12.8330898
  28.8736362  54.6971893  11.7853165   7.2765565  33.0452843  70.6341476
   7.7559843  32.5291595  71.2822189   6.7319698  33.6363831  71.1540146
  86.0509262  23.3973808  35.4383659  85.2007599  23.4153175  35.8778419
  86.5359955  24.1262150  35.8253250  44.9158249  11.2492914  22.3642311
  45.5287476  11.9747286  22.2446594  44.1372452  11.5099831  21.8722115
   7.2775612  41.9746590  80.6384735   8.0580225  41.4243507  80.5730972
   7.6187615  42.8610077  80.7576523  38.2396088  49.8208618  74.0805664
  39.0409203  49.5470085  74.5268097  37.8869400  49.0141335  73.7050095
  78.5012054   5.2948008  11.9468241  78.4125290   4.3665838  11.7305326
  78.2628632   5.3489094  12.8722954  28.3966999   5.5557599  65.3395920
  28.1842060   5.2210946  66.2108383  27.8019295   5.0893855  64.7522430
   0.1537630  27.2282715  27.2186451  -0.6491047  27.7162476  27.0355721
   0.5713870  27.7127342  27.9307671  70.4821167  26.9877281  64.3773956
  70.9772186  26.7324276  65.1558075  71.0208588  26.6924629  63.6433640
  71.2587280  11.0749998  18.9687328  70.9408875  11.2253361  18.0784492
  71.8422165  11.8135967  19.1426544  83.9043427  25.3210049  55.6474304
  84.1150436  25.9473057  54.9549141  84.6365433  25.3864708  56.2604713
  36.6525650  24.7277470  68.1799011  37.4395485  24.3303471  68.5526810
  36.6263199  25.6069126  68.5575409  55.8459816  17.6818256  21.0620975
  55.1120911  17.3152523  21.5553112  55.7489548  18.6293430  21.1571217
  54.5117989  11.1678104  84.4027176  54.6286011  11.6036873  83.5585632
  53.6270180  11.4094095  84.6766281  34.8185310  41.4243088  68.8542023
  35.4702339  40.9234734  68.3636169  34.6238365  42.1764297  68.2950592
  85.5309525  47.5482979  56.0224457  85.7905731  47.1725426  56.8636551
  85.0650177  48.3520966  56.2527504   9.6085243  42.9275055  75.0962906
   8.8638210  43.2086868  74.5647049   9.2255096  42.6988869  75.9432068
  77.4983826  18.4329929  12.8567791  77.2444992  19.3471165  12.7296648
  77.3056107  18.0121517  12.0189457  60.3290939  58.2850761  56.7051468
  59.9517021  58.3992004  55.8329201  61.2596207  58.1280670  56.5448341
   4.8997545  41.2683449  58.4418411   4.7344742  41.7472534  59.2539749
   5.3962812  40.4970779  58.7154121  67.9569397  50.9620361  75.0913086
  68.3755951  51.8037949  74.9113007  67.0307693  51.1748352  75.2059708
   9.8362293  60.0103722  70.9717026   9.4312391  59.1666222  70.7709579
   9.5148487  60.2281876  71.8466263  41.9369850  11.2958412  35.5332756
  41.9033890  10.8249531  36.3659630  42.0126266  12.2170715  35.7819595
  18.0749798  32.8907890  60.9686127  17.2411060  32.4763565  60.7469597
  18.5297394  32.9770737  60.1307716  26.4096508  55.1813469  43.4996681
  26.9999237  55.6405754  42.9022408  26.9265633  54.4460945  43.8289642
  12.9421034  45.6471405  21.0563297  12.3850164  46.3847275  21.3050327
  13.7078829  45.7227364  21.6256256   7.0747924  46.0525703  36.1047134
   7.9337244  46.2425308  36.4820480   7.0097375  45.0978165  36.1258659
  60.6384659  25.3039589  55.4211960  60.4682045  25.8596611  56.1817474
  60.5182724  24.4112797  55.7450905  73.4840240  47.9310226  67.1413269
  74.2428055  47.4221992  66.8557053  73.0521393  47.3739967  67.7889633
  10.5443888  50.6560478  75.7911987  10.1125622  50.1059494  75.1376266
   9.8857908  50.7772026  76.4751587  60.5390739  38.1973267  54.0735092
  61.2666435  38.4061737  54.6593971  59.8244133  38.7616425  54.3685303
  85.7797699  26.0595970  83.7068787  84.9898071  25.5422077  83.8633804
  86.4826431  25.4123249  83.6499634  61.4063721  43.2026978  33.3345222
  60.6212959  43.4216232  32.8325653  61.2579918  43.5955658  34.1946754
  55.0152931  68.3675919  78.7231903  55.0276260  68.9513321  77.9646835
  55.0131111  67.4870834  78.3477707  28.9634800  66.9843903  60.3800049
  29.8470383  67.0624771  60.7398071  28.8560658  66.0486069  60.2096939
  45.2066994  25.2546444  80.0541916  45.3568230  24.3530731  79.7698288
  44.3663292  25.4925404  79.6625061  69.3730240  42.7040825  74.4223862
  68.5869522  42.5300598  73.9046631  70.0910492  42.6558647  73.7912369
  43.3886337  38.7779694  70.4610367  42.7525024  38.1366005  70.7776031
  43.4147949  39.4470749  71.1450272  63.7996712  47.6198921   8.6708632
  63.7337379  47.0632172   7.8949776  63.0966988  48.2610474   8.5660715
  17.1769066  56.3271027  35.6807938  17.0885811  57.2741280  35.5732307
  18.0028896  56.1127968  35.2471390  69.6663666  34.4460945  79.1079025
  69.3629684  34.8844299  79.9029160  70.5328064  34.8187599  78.9447174
  58.1001549  67.4842987  16.6908588  58.2834587  67.6994400  15.7763405
  58.9328957  67.6246719  17.1414871  26.8822136  18.6641312  63.6875191
  27.0049515  18.1441689  64.4817505  26.7346516  18.0168839  62.9979324
  48.1798439  17.2847824  85.8133087  48.7550583  17.0655670  85.0802994
  48.6697922  17.0167637  86.5907059  50.4747238  53.1598434  54.6254730
  49.9744492  53.8813438  55.0067825  50.8202515  53.5145798  53.8063278
  45.8964386  12.5155087   7.7972264  46.1446724  13.1811724   7.1557422
  45.9159775  11.6927595   7.3084178  71.5990906  37.5415230  24.9975796
  70.9523697  37.1159744  24.4346428  71.9121628  36.8434753  25.5728607
  83.2178955  47.0898590  15.4994078  83.4010162  46.1769676  15.2773056
  82.4590988  47.3193054  14.9629288  76.7558289  55.5980568  36.2217789
  77.5672836  55.4354935  35.7407875  76.2516556  54.7906952  36.1207314
   1.2577670  33.8408928  11.8303919   1.8597285  33.7642975  11.0901165
   1.3775861  33.0281334  12.3216133   2.5503063  30.1155338  65.9773712
   2.2899470  29.9189072  66.8772507   2.4914689  29.2756176  65.5220566
  79.5227203  37.4270897  49.5549736  78.7063980  37.9085312  49.4205704
  79.4216080  36.6329575  49.0302277  70.7308121  15.1042271  46.2123985
  71.5683823  14.7558222  45.9069099  70.9079742  15.4073820  47.1028709
  74.5452881  59.0377121  62.9162483  74.2755508  59.7672539  63.4741402
  74.4531555  59.3717384  62.0239639  28.2005177  56.8565369  33.0878983
  27.4146957  56.5019608  33.5038261  28.2680321  57.7496338  33.4256172
  37.3593445  70.9645691   1.1189979  37.9509811  71.6393585   1.4519404
  37.8776436  70.4916382   0.4678925  54.0833511   1.6891128  84.7199326
  54.1579857   1.9729135  85.6310425  54.8752327   2.0239215  84.2991486
  86.7596970  59.9464378  43.9272194  86.3979797  60.8294907  43.8523521
  86.9700470  59.8517380  44.8562050  34.0062599   9.7512016  20.2790031
  33.3295135  10.0572929  20.8827839  34.8304634  10.0041399  20.6948719
   9.7856045  46.7384834  36.6910095  10.2951965  46.2640495  36.0341530
  10.0881166  46.3871956  37.5284538  15.3461952  17.1108742   7.1577759
  14.8446054  17.6963158   6.5904169  16.0925522  16.8404198   6.6229486
  15.5691061  53.5706711  68.5849152  14.8197517  53.0910721  68.9380188
  16.0562782  53.8564796  69.3577042  85.5465469  49.7694511   7.3976350
  85.9678268  49.6070213   8.2416544  86.2632751  50.0270729   6.8178377
  69.5714722  16.6680012  80.6085739  68.6818314  16.3550320  80.4447937
  69.4836044  17.2589226  81.3564529  51.7645912   9.6247387   9.2274294
  51.0237389   9.3976440   9.7893858  52.0089684  10.5094309   9.4991503
  32.0798531  50.2032471  12.6833878  32.6004753  50.1693459  13.4859047
  31.1932392  50.4064560  12.9814749  46.0267754  66.9043961  54.1348419
  45.2079391  67.3773880  54.2832413  45.9812698  66.1547241  54.7282677
  33.5114326  37.9526672  63.8637886  32.6628456  37.5305901  63.9978828
  33.3141098  38.7235336  63.3317566  76.5932007  69.9515381  13.5055199
  76.5107269  69.4320984  12.7057619  75.9359055  70.6410828  13.4121151
  27.1180801  57.5500183  12.2257776  27.4549408  56.6555901  12.2782907
  27.8872681  58.0844421  12.0283651  46.3453598  69.4108276  70.6383514
  46.4724541  69.2455673  69.7041245  45.4312057  69.1779327  70.8005829
  54.1603889  63.5837860   0.9194370  53.2578049  63.6772156   0.6147408
  54.3804741  62.6697464   0.7396403  15.7128258  65.0928116  22.2059326
  16.3217850  65.3574448  22.8954010  16.1866417  64.4239044  21.7116680
  59.6182747  63.5809021  21.3287277  59.7128754  63.0776138  20.5200367
  60.4238396  64.0946426  21.3867340  68.9110489  10.5798264  66.7896500
  68.6956787  11.5066595  66.8937149  69.6964493  10.5764017  66.2425079
  52.5724449  35.2674904  78.1792679  52.5189819  34.9880257  79.0932007
  52.9475822  36.1472054  78.2193604  42.8521805  69.1103287  74.1059189
  42.3788185  68.5862808  74.7520905  42.2796288  69.1192169  73.3388901
  80.1286087  69.6522675  50.0228119  80.1827621  70.4723969  50.5134201
  80.9067764  69.6547775  49.4654274  27.7299938  26.6193180  73.5062866
  27.0555668  26.3578224  74.1331863  27.3920708  26.3331509  72.6576691
  42.5741196  34.8443832  16.4757500  41.8956680  34.6983147  17.1349907
  43.3853798  34.9158669  16.9787254  16.2483730  25.9372025  78.3716354
  16.0134830  25.0538483  78.6557846  16.1249580  26.4800320  79.1503143
  35.3824730  63.9394226  51.5773201  35.3262787  64.8156586  51.1961479
  34.4714394  63.6743851  51.7038269   5.9864688  37.4992790  26.1555367
   6.8838449  37.1682816  26.1182747   5.4460773  36.7155762  26.2556381
  18.1731911  66.5299301  80.7204742  18.8178253  65.9968719  81.1857986
  18.5926361  67.3851852  80.6264572  37.9628143  58.1392059  44.5130043
  38.8999100  58.1757622  44.3213005  37.6591873  59.0394478  44.3963623
  45.7739830   8.7807102  35.0286942  46.7007370   8.9653654  34.8761749
  45.5611534   9.2658157  35.8259430   1.0649763  25.7869835  17.6168938
   1.9914460  26.0051479  17.5154552   0.8430164  26.0883408  18.4978867
  68.3532639  22.0281448  50.1822777  69.0435944  21.4534855  49.8514481
  68.5138397  22.0774860  51.1246223  70.1028671  69.9609070   6.0356116
  70.0688477  70.0064545   5.0801010  71.0297394  69.8311920   6.2363644
  46.3970375  70.1871490  30.6335945  46.7626648  71.0657501  30.5306110
  46.2983360  69.8623810  29.7385979  81.7609253   0.9260936  61.1214485
  80.9172516   0.9675924  60.6712036  82.1158371   0.0687118  60.8865738
  36.8053513  35.3147774  10.7583179  36.5967255  35.7771072  11.5700808
  35.9854660  34.8891449  10.5075979  61.2644043   2.9736559  27.2275963
  61.8985291   2.6878486  27.8851910  61.7959747   3.3792400  26.5426407
  61.5850639   7.4567347  81.9368515  61.2961159   6.6519194  81.5067215
  61.1611443   7.4352674  82.7947922  42.7971115   3.7372954  64.6742554
  43.2575874   4.2375503  64.0005035  42.8699341   4.2744784  65.4631577
  13.4057941  30.7778320  84.3268433  12.4898357  30.5130005  84.4112015
  13.8222466  30.0540867  83.8588791   4.4246268  33.6491852  72.2345123
   4.4057231  34.6040535  72.2985687   3.7067566  33.4348450  71.6387329
  25.5072346  22.3586445  88.4848862  25.9405899  21.5102558  88.5780029
  26.2238541  22.9817257  88.3646469  61.4341621  62.2552261  28.7548714
  61.5721359  61.3376083  28.9897499  61.3804436  62.2523727  27.7991848
  25.9193897  54.4374275   4.4797263  25.4127960  54.9716034   5.0914893
  25.5337601  53.5640297   4.5482631  27.4511490  49.2165833  69.2690964
  26.6207294  49.6489334  69.4683685  27.4398613  49.1026459  68.3187714
  86.7390823  66.3205109  34.5934143  86.3720551  65.9580231  33.7871094
  86.0341949  66.2379761  35.2357140  21.1031551  61.1453629   9.6770172
  20.8862858  60.2357750   9.4724483  21.5658741  61.0989265  10.5136566
  51.9820023   1.7091898  81.6302643  51.0398788   1.8378714  81.7401505
  52.3792152   2.4624238  82.0674057   4.4941268  41.8773308  80.1803818
   3.8716536  42.4188385  80.6656952   5.3264017  42.0018959  80.6364899
  45.9753456  10.8031073  60.7700081  45.5424232  11.5658646  61.1534309
  45.3054047  10.3997974  60.2179680  27.5786495  51.8253670  85.1569138
  26.6518116  51.5916138  85.2075272  27.7161503  52.4205246  85.8938751
  31.7791462  33.3128929   7.1632171  32.4231110  33.7504120   6.6063380
  32.0449028  33.5338707   8.0558386  49.3274422  28.0188732  77.7975998
  48.3873062  27.8592224  77.8805923  49.4701920  28.8498421  78.2507477
  71.7360153   6.4356790   8.7603512  71.3596115   7.1502972   9.2740374
  72.6201553   6.3284335   9.1110983  62.2262573  17.7695389  26.1335773
  62.0034790  17.0856438  25.5019989  62.1479034  18.5859928  25.6401272
  24.6001377  22.6925068  68.2569275  24.5429745  22.0941277  69.0018539
  25.4739590  22.5428467  67.8960037  24.1801033  55.5290680  60.0112495
  23.5630741  55.9894714  60.5800476  24.9085007  56.1406403  59.9033203
  10.6381664  34.4817963  77.3632507  10.6900949  33.5348930  77.4933014
  11.4562140  34.7079926  76.9206848   8.9180546  17.9357319  44.4529305
   8.2907209  17.9032040  43.7306938   8.9609461  17.0348911  44.7736778
  41.7973785  10.1412668  74.0681992  41.1016045  10.0153770  73.4230042
  42.6077118  10.0677557  73.5640259  43.0608635  62.6101799  48.5073967
  42.1276665  62.5656433  48.2990952  43.2979202  63.5242043  48.3505745
  79.2265854  62.3149567  27.7549210  78.4473114  61.7591629  27.7474079
  78.8977127  63.1855316  27.9789200   5.4672089  67.7904053   2.3465214
   5.6472950  67.4814453   1.4586350   6.3245783  68.0386505   2.6922441
   5.9608192   0.4158456  64.1229935   6.0968742  -0.0698832  63.3094902
   6.3745527   1.2648181  63.9670982  65.4453354  35.6557083  81.0841446
  65.0506058  36.5215454  80.9804993  64.8092194  35.0545311  80.6966248
  28.2723465  49.9885406  49.5374069  28.7300320  49.1542664  49.6410332
  28.8924332  50.6433716  49.8582230   1.1419141  38.4036217  32.1523705
   1.6705549  38.8711052  31.5056629   0.5669349  37.8429222  31.6315536
  22.2657070   2.5040884  56.7437744  21.7425480   3.1870940  57.1633453
  21.8653221   1.6841316  57.0328979  66.4774780  29.0763760  77.6532516
  65.8347855  28.3769894  77.7717438  66.7283325  29.0174770  76.7313843
  82.9527130  39.6185303  20.5274639  82.8994751  40.4726143  20.0985889
  82.6546021  39.7809258  21.4224415  20.1701908  62.2928352  24.4238968
  20.2546082  61.5194931  23.8661785  20.9814281  62.7805328  24.2815075
  62.4015579  29.2451954  19.5641747  62.9271545  30.0150280  19.7817516
  61.4958305  29.5493793  19.6221619  76.1979141  12.9144440  77.1144257
  76.2345200  12.6562366  78.0354156  76.8950500  13.5634995  77.0197601
  47.3971901  16.5498753  13.8673954  46.5880508  17.0554752  13.7906075
  47.6128311  16.5830841  14.7993975  86.2319260  14.3997431  66.1127625
  86.7502899  14.8216743  65.4275589  85.4776230  14.9768238  66.2320633
  65.9864502  23.0943069   1.8223997  66.8017120  23.0831928   2.3238449
  65.8196640  24.0222263   1.6569245  24.8642406   0.5506299   5.2631602
  25.0788021   0.3011667   6.1620283  24.1107101   1.1344812   5.3500104
  67.9751740   5.2058239  77.2654037  68.8903809   5.4610066  77.3816452
  67.5657425   5.9649372  76.8502655  69.0468140  49.0251007  71.2953033
  68.1531067  49.2117996  71.5827942  69.4732819  49.8815956  71.2673645
  36.5941429  13.2404222  77.4069901  37.2292290  13.4804192  78.0817490
  37.0793304  13.3122826  76.5850067  18.4087734  46.7658539  42.8551064
  19.2344208  46.7585449  42.3708687  17.7468510  46.9771843  42.1967545
  36.2124901  65.8562851   6.6781578  36.6331787  66.6877975   6.4594207
  36.8103790  65.4417038   7.3001533  14.7729578  37.2001572  50.9516716
  13.8215666  37.0948601  50.9512482  15.1052647  36.3735466  51.3016968
  16.1903324  11.9860344  19.2238979  16.1591206  12.4772921  18.4029694
  16.2087307  11.0681038  18.9531631   2.3101802  52.7033463  85.1202927
   1.6069317  53.2143402  84.7195969   2.2311659  51.8354683  84.7243423
  13.9946041   4.3554702   4.0308180  14.5170288   3.8132279   4.6218147
  14.4094915   5.2173276   4.0669045   5.3402448  64.6188049  31.8957710
   4.9359674  63.9774857  32.4801559   4.7245998  65.3516159  31.8817616
  31.7317486   8.5683975  85.1327820  31.8646851   8.5929375  84.1851730
  32.1026344   7.7290139  85.4050064  66.2381973  13.0029554  59.4162521
  66.9882584  12.6694603  59.9086151  66.1765976  13.9242640  59.6684952
  79.6656036  13.1808090  62.7418671  80.2980576  13.4745865  63.3975563
  78.9345016  12.8336697  63.2529526   0.7432297  42.6980553  50.5340614
   0.6611655  43.1719971  49.7064896   0.0901243  42.0006561  50.4764633
   7.1206188  50.4746094  38.9365387   6.3294091  50.3828735  38.4056854
   6.8214135  50.8979568  39.7412033  20.3455086  26.7138271  13.4166136
  19.3929787  26.6529198  13.3444490  20.5879555  25.9948692  14.0001822
  49.6566010  45.6486320  49.7740669  49.5671310  46.1914902  48.9907799
  50.5740166  45.3755417  49.7727013  81.1142426  25.6739788  86.4914017
  80.4693451  24.9768429  86.6111374  80.6383591  26.3635635  86.0285416
  41.4571419  62.8484917  86.6110153  42.2750130  62.7798920  86.1184540
  41.5884933  62.2844429  87.3731308  70.7931290  12.5978575  68.2994385
  71.0647736  11.6890602  68.1708908  71.1462784  13.0629625  67.5410233
   6.2794418  62.0807419  45.8448410   6.8461013  61.9904594  45.0786972
   6.8283672  61.8124771  46.5816917  55.3405495  57.6165924  70.1413269
  55.4302406  57.2022629  70.9995346  56.1900101  57.4829140  69.7208786
  83.3677750  50.7327309  13.1743574  84.2303696  51.1249924  13.0390968
  83.2426071  50.1620674  12.4161320  59.9620895  23.8237839  40.7686882
  59.6695023  24.7319927  40.6926575  59.4395027  23.4629517  41.4848824
  26.3074474   8.1782665  65.7443085  26.2924957   8.5672607  66.6187820
  27.2107697   7.8835230  65.6287003  54.4634933   6.9668646  66.8338242
  54.1542664   7.8263130  67.1201019  53.9885597   6.8004522  66.0195923
   1.5300519  58.8678093  84.6929932   2.1759839  59.3506508  85.2086182
   2.0506773  58.3679543  84.0642471  82.6336899  10.6925287  39.5936661
  81.9555969  10.3410358  40.1706238  82.8908081  11.5191545  40.0020905
   9.0868225  23.0430088  83.2831268   9.5806732  23.3873005  82.5389404
   9.5119638  22.2102489  83.4880524  18.6824303  56.3889503  41.5077744
  18.4242878  56.2705421  42.4218712  18.1045818  57.0796051  41.1832466
  68.2206573  13.1730280  71.5439758  68.7374115  12.5998487  72.1102448
  67.7556076  12.5753517  70.9585342  71.6987305  20.1581764  39.3717308
  72.5383911  20.2578030  38.9230995  71.3983917  21.0548992  39.5197716
  20.8850517  10.9663858  75.5816879  21.7734280  11.3163433  75.6491470
  20.9758244  10.1863480  75.0343933  14.9037895   7.9161067   6.3024311
  15.0193396   8.6781006   6.8700986  15.1826239   8.2171898   5.4376583
   9.6217756  36.1780891  66.0823898   9.8011847  36.5151253  65.2046356
   9.3136673  35.2835503  65.9371262  58.0413589  17.9615707  62.1785393
  58.5675125  18.6773434  61.8220749  57.7255135  18.2922306  63.0194511
  48.3794556  27.9257374  20.4322357  48.9682655  27.4361668  19.8579082
  48.3846893  27.4357243  21.2544842  76.0888290  33.0349007  63.5091171
  75.1648102  32.8091965  63.4020042  76.5297241  32.5888138  62.7860336
   0.5699672   9.6799269   8.5509615   0.5402800   8.7232018   8.5562763
   0.1410636   9.9283171   7.7320747   1.4388531  19.1971970  76.8185120
   1.1345971  18.2961712  76.7098160   2.1916869  19.2682247  76.2316284
   5.6042662  44.7198105   6.4574232   5.7270894  44.8781052   7.3934197
   5.3617578  43.7955856   6.4006095  45.0968399   3.1818068   8.4060001
  44.2525291   2.8690746   8.0810833  45.0718040   4.1283264   8.2656231
  76.8171005  20.7468433  59.3730965  75.9133072  21.0575886  59.4263115
  76.7581635  19.8076534  59.5482559  76.9032135  21.8442764  64.2631226
  77.1354065  22.6867752  64.6536560  77.6641541  21.6084194  63.7324829
   2.6159236  49.8811607   0.1228365   2.6987052  48.9759140   0.4226730
   3.5148025  50.2094650   0.1012385  75.2072601  29.8465748  33.0107651
  75.4942474  28.9849358  32.7083664  75.9463806  30.4249153  32.8224792
   9.8075752  56.2207603  17.2964973   8.9236727  56.4630928  17.5725822
   9.6741018  55.5444565  16.6323948  68.6152344  69.6928787  32.2743797
  67.8640213  69.2292938  32.6445122  68.8192978  69.2149506  31.4705334
  67.5169144  18.8433018  49.9134712  67.4784622  18.2030258  49.2029800
  68.0644379  18.4286518  50.5801888  39.1844521  56.2772331  85.2995148
  39.3812866  56.2922401  84.3628922  38.5620384  56.9935417  85.4249649
  23.1742535  60.2923622   1.7867208  23.3961372  61.0031090   1.1851906
  24.0016632  59.8330040   1.9302895   4.9788570  34.1334648  12.6300879
   4.1999855  34.0677795  13.1826057   4.6706119  33.9041748  11.7533655
  45.6558685  68.9060745  86.3458862  46.4744682  69.1028137  85.8904495
  44.9780312  69.0183640  85.6794281  48.1379852  70.3226929  15.4980288
  47.3215446  69.8305283  15.4118567  48.8174210  69.6510544  15.5572062
  61.6932220  24.2864208  67.5819016  60.9306488  24.7585182  67.9163284
  61.3734589  23.8394623  66.7981873  34.7090111  18.0540581  66.3125534
  34.1962738  18.3738842  67.0548782  34.9198532  18.8411179  65.8102417
  69.9165649  26.5719051  56.4759483  69.3554688  27.0771275  57.0642967
  70.1833878  27.1981373  55.8029900  15.0039434  26.8090897  10.3777189
  14.4373045  26.0643826  10.1763153  15.5706358  26.8931408   9.6108894
  30.1510582  20.5603790   6.6807504  29.8417244  20.3136959   5.8091469
  30.7086754  21.3236160   6.5298710  24.4459629  21.0290203  75.3121567
  23.6378746  21.3824692  75.6840439  25.0279579  21.7856445  75.2412033
  80.8731232  54.2299767  27.9061623  81.7478333  53.9464340  27.6402378
  80.6386032  53.6418152  28.6240044  17.2360458   4.8015633   3.2693644
  17.3511219   5.6245227   2.7942572  16.9616947   4.1748486   2.5998929
  79.7039261  27.0788708  25.3154716  79.9562607  26.3684711  25.9052963
  78.7486343  27.0313683  25.2782459  13.7602253  37.9170647  66.3324814
  14.6340828  37.8467064  65.9482193  13.4282503  37.0192947  66.3385315
  44.3124580  19.5055580  73.2307739  44.9097710  19.2061062  73.9161758
  44.7851753  20.2139645  72.7938232  38.3372459  36.8365097  51.5562744
  38.5532265  37.7321930  51.8157692  38.1602554  36.8952293  50.6174164
   8.7325220  49.2504959  18.0235424   8.0096731  48.6966095  18.3183804
   8.7628155  49.9640923  18.6608009  50.9532089  64.1607132  24.2176933
  51.7525711  64.6053772  24.4996986  50.2433968  64.7014313  24.5641308
  31.3609352  54.0700150  41.4967651  31.1618023  54.9805908  41.2789764
  32.3150253  54.0141716  41.4435921   4.1734591  44.5435677  26.0891552
   3.6236427  44.0708046  26.7139988   3.6945837  45.3535919  25.9137440
  80.9294510   9.4616318  10.2873030  80.8869705   9.0953350   9.4039831
  80.4870987   8.8143892  10.8365192  36.2731476  19.1240463  63.6495247
  36.5847931  19.7534275  62.9991493  35.8400307  18.4427795  63.1352158
   9.2334929  49.7240410  12.5669479   9.3693933  49.0936775  11.8595543
   9.8211536  49.4322929  13.2639189  49.9488487  60.6823921  45.9426193
  49.7907791  61.2118034  46.7242661  49.5934944  59.8208389  46.1609840
  65.6540527  59.5335503  69.0376053  64.8042068  59.2468719  69.3719711
  66.1136169  58.7215614  68.8238220  85.9678802  52.0367126  21.9421444
  85.4276123  51.7483940  22.6778164  86.8675842  51.9492073  22.2569466
  14.6206350  71.2120972  61.9677887  15.0261564  70.4301300  62.3423653
  14.8728971  71.9200592  62.5605698  53.7526512   3.6357615  41.9663849
  54.4712448   3.0111809  41.8676300  53.1758728   3.4566450  41.2237740
  23.8928909  11.0576496  51.1889343  23.1028976  10.7607355  51.6405792
  24.4945698  11.2997684  51.8929176  65.1735001  40.6556664  50.5315628
  65.5574875  39.9226646  51.0126991  65.9020386  41.2617569  50.3969841
  31.1144276   1.3686342  88.6796036  31.8052387   0.9934157  88.1335068
  30.3470440   1.3984067  88.1082306   1.9402328  13.8811226   1.3223401
   1.8456210  13.6875782   2.2549820   2.0325048  14.8330698   1.2834327
  74.6815262  36.3840942  18.7038479  74.0231400  36.4944382  18.0178604
  74.2913437  36.7901726  19.4778576  24.8817177  49.5482483  58.1159439
  24.2476387  50.2637558  58.0687790  25.5224018  49.7506638  57.4341927
  82.9231796  15.4055119  58.3876228  83.0919189  15.7513466  59.2640648
  83.1371765  16.1294956  57.7991638  16.2563839  17.7675629  76.9127197
  16.3062515  18.3769608  76.1762543  15.6204081  17.1081562  76.6353149
  82.1078568  31.6877995  22.1390877  83.0077820  31.9566288  22.3237686
  81.5712128  32.4152756  22.4537563  58.4457321  63.2620010   6.5469728
  58.5565109  63.7822189   5.7511506  58.0553741  62.4419632   6.2446671
  15.0626783  62.0830269  76.7227859  15.3195353  61.9582825  77.6363983
  14.6833820  62.9615326  76.6984329  80.0652161   4.5005260  14.2632389
  79.5152893   4.6908116  15.0232449  80.8929443   4.9436860  14.4495506
  42.2045937  31.9524097  71.5339355  43.1278572  32.0972214  71.7409134
  42.1690407  31.0502281  71.2160721  25.3937149  43.7064133   8.6986675
  25.2429123  44.4665222   9.2605572  26.3411427  43.5727081   8.7257957
  38.3177719   2.5191844  23.3117924  39.1516685   2.9473877  23.1181736
  37.6612244   3.2034266  23.1814461  51.0823059  12.3808908  50.0458336
  51.8767815  12.6842213  49.6064796  50.9234695  13.0315723  50.7296562
  82.0387497  17.0385475  45.6485939  82.2149887  16.1015644  45.7336617
  82.7895508  17.3803692  45.1631165   3.0141568  58.1474686  34.7907066
   2.9584796  58.2936668  35.7350388   2.5305488  58.8785820  34.4062271
  40.3472214  26.6901417  74.5945129  40.5106316  27.0012417  73.7041473
  41.1121902  26.1547890  74.8053436  76.2348251  57.2806931  33.9632797
  75.8211746  56.5228271  33.5500412  76.1050644  57.1424332  34.9015121
  80.1264648   3.6477792   8.1271524  80.4678802   4.1183066   7.3667107
  79.3839417   3.1488807   7.7865701  76.6928482  52.2947693   9.0536728
  76.5545959  53.2384605   9.1347179  77.0663300  52.0342407   9.8956175
  78.1506653  36.7101746  75.4621735  77.9936218  37.6515617  75.5353851
  77.5151367  36.3142471  76.0584793  23.2743950  22.0385723  86.8966522
  23.2557640  22.8182735  86.3417206  23.9904842  22.1990509  87.5112228
  37.4696198  16.4480400  71.9406204  37.1135445  16.1369953  72.7729034
  37.9972878  17.2111530  72.1761093  47.1210213  45.3058167  40.8108444
  47.2526894  44.3642349  40.6998444  47.9793434  45.6903076  40.6328506
  32.7883301  57.8178940  10.9048738  32.5321236  57.4928131  10.0417910
  33.7316170  57.9647942  10.8351564  61.3759727   3.5024865  51.7152557
  61.4180374   2.6678698  51.2484856  60.4957771   3.5227518  52.0908585
  71.5929718   5.7132263  11.6198101  71.4281921   4.8430495  11.2566681
  72.5461273   5.7672486  11.6891890  81.3529892  53.7888412  67.6739807
  80.6110687  54.3237762  67.9561768  81.6041031  53.2963257  68.4553909
  33.3826332  27.8018589  80.2705841  34.2797699  27.5914288  80.5296249
  33.4204369  27.8789463  79.3172455   3.6514702  51.7628250  56.6591263
   2.8237820  51.9529381  57.1007385   3.5739713  50.8479271  56.3885956
  34.5439606  56.3730240  85.3817215  34.0375061  55.6339378  85.7186050
  34.2627068  57.1180344  85.9128418  69.4566803   8.0923891  36.1366348
  68.8429337   8.1844149  36.8653870  68.9000854   8.0439043  35.3594093
  10.5644026  31.2893944   4.3427944  10.2281790  30.5073929   4.7805829
  10.1777296  32.0194626   4.8262367  65.9177933  19.2677155  69.7092667
  66.5259705  19.4044380  68.9828644  65.0770493  19.5864620  69.3809662
  61.3309937  16.3034267  10.8629580  61.4049683  16.5655670  11.7805872
  60.7567673  15.5377445  10.8781433  46.5125084  69.7359848  48.8058929
  46.5691986  70.3060913  49.5727043  46.1342239  68.9225235  49.1396675
  45.6255379  44.5530777  50.7715645  45.9033661  44.6172142  49.8578186
  44.9624252  43.8627777  50.7723923  40.0602150  71.4889374  16.4395885
  40.6056099  70.7024155  16.4519634  39.7402573  71.5726929  17.3378334
  10.3139362  20.5996761  66.0704803  10.3987446  19.6551647  66.2006302
   9.3696432  20.7557507  66.0569382  41.8389091   6.0751758  88.2026062
  42.1318703   5.7094512  87.3679504  42.1597214   5.4580984  88.8602753
  20.2368126  44.7257690  34.8103790  19.6611004  44.5173225  35.5461349
  19.6654606  45.1543961  34.1731453  31.4946594  10.5595818  74.7270126
  31.8117752  10.2784786  73.8687286  30.5770817  10.2875814  74.7441940
  64.8434448   4.0428939  64.0299377  65.4453278   4.0938978  63.2873955
  64.5449219   3.1334450  64.0342484  13.5723171  23.6957512  71.0662384
  13.9849958  24.4758987  71.4367752  14.2419090  23.3187714  70.4954834
  44.3779602  61.3027573  56.0953865  45.1532059  61.6891212  56.5027504
  43.9358177  60.8436279  56.8094902  76.0943604  60.9108582  20.2808514
  76.5039368  61.0424461  19.4257679  76.7950821  61.0799942  20.9106274
  11.9032059   9.3056726  60.1949234  12.6165552   8.7708426  59.8466110
  11.1985855   9.2120228  59.5538521   7.8028007  52.5902519  12.2038507
   7.6766891  52.0339737  11.4351616   7.1946998  53.3181686  12.0750914
  67.5034180  41.9134064   9.0117588  68.3415298  41.4866905   9.1898365
  67.2342758  41.5670128   8.1609917   2.9327867  59.9011269  51.3807449
   2.6650274  60.6350784  51.9337845   3.6870162  59.5231590  51.8329697
  52.2453880  19.4943924  10.3339577  52.9712944  18.9051075  10.5389719
  51.9311752  19.7932587  11.1872940   0.1885305  22.8326912  70.0092087
   0.9509737  23.4103718  69.9745865   0.3115617  22.2295113  69.2762222
  74.8046875  35.1716080  69.5363159  74.2800140  34.3828583  69.3991013
  75.3961945  35.1996384  68.7842789   7.3375568  66.5726624  77.8531189
   6.4277310  66.6987305  78.1224823   7.4800029  65.6288452  77.9248581
  28.9294415  34.3894386  87.5852051  28.0457306  34.1221695  87.3325119
  29.1265507  35.1334763  87.0161819  26.8741455  28.7076225  64.0724564
  26.8421574  29.6380463  63.8499298  25.9597816  28.4251423  64.0530548
  60.9220276  62.1379128  32.8042221  60.6280556  62.1761780  33.7143555
  60.7338181  63.0090027  32.4549103  66.8864441  20.2845917   4.1939430
  67.3904724  20.6559467   4.9180169  67.5453796  19.9002533   3.6157444
  18.1286869  48.4785843   6.9473095  18.9961014  48.7296715   7.2647657
  17.5265465  48.7930870   7.6216593  22.9274273  51.6851311  58.1041222
  23.0148430  52.6040802  58.3573418  22.4863930  51.2729149  58.8469543
   4.6803126   5.1455169  23.6642971   4.0235415   5.8142343  23.8584652
   4.2725973   4.5967879  22.9942989  28.1822281  43.8968124  12.4219790
  28.9174900  43.7615776  11.8242054  27.9108028  44.8015404  12.2669706
  26.9703617  50.9935188  12.3093309  26.2248688  50.3960381  12.2502594
  26.6524601  51.7210159  12.8440409   0.4460433  39.5890045  65.8323822
   1.3506049  39.4236717  66.0982056   0.3222242  40.5274010  65.9749146
  74.1228561  14.6788998  50.1991615  74.4135056  14.5955210  51.1073456
  73.9550705  13.7794876  49.9178429  15.5845699  45.9140320  17.0642033
  15.3876963  46.3570671  17.8895473  14.8180838  45.3652458  16.8981781
  81.5430603  16.2585411  32.3633347  82.2630234  15.6768131  32.6072197
  80.7527542  15.7465706  32.5351601  54.3978310  34.5159454  24.7683563
  53.4620476  34.7170601  24.7778625  54.8047218  35.2472839  25.2329121
  80.1131210  66.4248505  68.1476440  80.6419296  67.2225037  68.1294479
  79.9757233  66.2074814  67.2256317  59.9255791  54.4685020  65.7473755
  59.1483269  54.6936226  65.2360764  59.7600365  53.5773430  66.0550461
  32.9183540   5.8320618  56.3638458  32.9663734   6.7876549  56.3361359
  33.5253525   5.5818448  57.0603943  32.2990646  48.2714920  52.0554771
  31.6315651  48.1406059  51.3820229  31.8019695  48.4443321  52.8550110
  77.3276138  11.9897442  35.7157402  76.6345825  12.4038754  35.2015114
  77.5305252  11.1845255  35.2396317  19.3868465  70.6915207  69.5107422
  18.5899391  71.0964432  69.8530960  19.2503662  70.6572418  68.5639420
  61.2846832  69.8371658  71.5807648  61.3260422  69.5209427  72.4832764
  60.4295959  70.2622757  71.5148697  64.0783081   9.7203226  13.8179560
  63.2110863   9.3635101  14.0098925  64.1471863  10.4953489  14.3754702
  73.0115128   8.9139643  73.1802292  73.6898270   8.4249620  73.6460648
  72.2658310   8.9201355  73.7803574  49.0974922  31.5074272  73.3513565
  48.8160553  30.9967518  74.1104584  49.8524361  32.0056992  73.6644440
  85.4356461  59.3587646  28.7160969  85.7461395  59.2089310  27.8231392
  85.5843582  60.2920685  28.8679466  84.6444397   6.4645977  13.0482197
  85.4257889   6.5166883  13.5986891  84.3100052   7.3610783  13.0216084
  74.7307663  58.5288010  29.5160675  75.1660538  58.7020874  30.3507690
  75.4304428  58.2194672  28.9407482  75.8353348  66.7817535  59.1972580
  75.0257797  66.2714081  59.1772423  75.9425964  67.0247574  60.1168671
  62.4555321  53.4862442  88.1784973  63.0022316  53.3165169  87.4113312
  62.0898094  54.3572273  88.0240173  50.5144348  54.2491493   6.9527354
  51.3106880  54.7377663   6.7442646  49.8171730  54.9043503   6.9249406
  31.1620026  42.3361549  43.3759384  30.3190765  41.9191704  43.1975174
  31.0191364  42.8290253  44.1839600  50.8132706  17.0298748  64.7885513
  51.3181534  16.2167549  64.7758102  50.0715866  16.8422909  65.3638306
   2.6632800  57.9032631  12.3170357   2.4587047  57.5453568  11.4531593
   2.8494034  58.8281364  12.1551685  30.7525177  61.8977051  70.2966385
  30.9366474  62.8367233  70.3205490  31.4870224  61.4976730  70.7621613
   6.3372350  66.2094955  56.9707642   6.5124178  65.6479797  56.2156181
   6.0465164  65.6067123  57.6551399  52.6581917  39.4096603  80.0388412
  51.8055649  39.1023521  80.3467789  52.5296288  40.3430023  79.8697968
  13.7624998  66.6581726   2.9431365  13.8149328  67.5854263   3.1748502
  12.8725853  66.4009933   3.1842630   8.3890495  44.7296791  57.0390091
   8.9100933  43.9894676  57.3501816   8.0839624  45.1603470  57.8375587
  78.1086884  23.2302876   7.9841256  78.9462051  23.6567192   7.8025956
  78.3471756  22.3587685   8.3000574  54.9527817  60.9481697  20.4011822
  54.7146378  60.0912819  20.0472603  54.9625740  60.8211632  21.3498688
  33.3362923  69.3584976  17.2690182  32.4724312  69.3276062  17.6801414
  33.3655815  70.2121811  16.8370571  73.7554474  42.0601196  57.9187737
  73.2484741  42.0420074  58.7304916  74.6524734  41.8684196  58.1923141
   9.4379339  36.0544395  57.2352409   8.7318125  35.5678444  57.6604996
  10.1507120  35.4206772  57.1544838  81.5987091   5.4733057  36.2702065
  82.3806000   5.7473483  35.7908592  81.5140533   6.1137404  36.9765434
  37.4580307  66.1760788  87.0405884  36.7926712  65.6672745  87.5038834
  37.8656197  65.5493622  86.4428177  55.4277115  54.6725540  53.2076225
  56.3251457  54.7926559  53.5181274  55.2582932  55.4404831  52.6618958
  78.2037048  35.0007019  53.5783310  78.0202026  35.6832504  54.2238426
  77.7379074  34.2308388  53.9047852  36.8550911  26.9198608  62.9451485
  37.7514458  26.9150410  63.2809448  36.3175697  27.1575794  63.7006569
   6.9893951  51.6125984  51.7015610   6.7981510  52.0669823  52.5220451
   6.4412580  52.0517006  51.0512047  32.3380852  70.9477081  85.0518417
  31.5328522  71.3340225  84.7074661  32.6658020  70.4008636  84.3378448
  10.0796299  63.1900940  74.9282761   9.1914377  63.4887733  74.7329941
   9.9692364  62.5595398  75.6399307   0.3614805  60.6382065   8.7290487
   0.9930873  59.9196014   8.6988297   0.8787762  61.4200401   8.5357342
  18.3834839  70.6399536  53.6839218  18.1595097  70.3279877  52.8071442
  19.3263454  70.8008957  53.6472855  51.7151184  11.4343863  84.5605316
  51.0461159  11.7101040  83.9339142  51.3986855  10.5951958  84.8949890
  80.3980637  11.3776932  15.0162821  79.8186111  12.1330833  15.1155748
  81.2126694  11.7442713  14.6723938  18.1689186  36.9906197  78.1972427
  17.3073273  37.3769379  78.3542557  18.6680527  37.6850929  77.7673569
  80.5002136  71.0706558  54.3754883  79.8676453  70.4296875  54.6999016
  80.2930832  71.1620331  53.4454460  75.4125214  70.7859039  33.9116020
  76.1502380  70.3301392  33.5062790  75.2425537  70.2974701  34.7170715
  75.5780640  11.9538794  24.5117798  76.2089920  11.2344151  24.4887714
  74.7446289  11.5493555  24.2710037  51.0490608  40.6523094  61.9550591
  51.3519440  41.3726692  62.5078468  50.1677856  40.4591675  62.2748833
  59.6845093  48.0611916  65.6816177  59.5857353  47.9463730  66.6267548
  59.3697968  47.2388191  65.3062592  53.9112091  25.4995213  76.0392761
  53.8941841  25.1860027  75.1350327  54.8313103  25.7057037  76.2040024
  52.9180984  14.6164017  51.6195755  51.9831276  14.5874195  51.8226051
  53.2668839  13.8012161  51.9802055  34.6391487  57.3841972  58.3171692
  35.5505371  57.3595772  58.6087112  34.6125221  58.0924644  57.6738358
  26.4651318  48.7475281  44.4567413  26.6301346  49.6876755  44.3851242
  26.8432522  48.5016212  45.3010063  24.3295918  51.3604393  42.3730698
  24.0461788  50.5647392  41.9227715  25.2855701  51.3128204  42.3646584
  85.1168671  67.1076050   7.9270205  85.9178543  67.5400238   7.6309304
  85.2656174  66.1791763   7.7477870  55.0549965   6.7314558  57.6883507
  54.8108749   7.6466446  57.5502777  54.5776176   6.2515092  57.0116005
  56.4436531  25.2066803  70.3668671  55.7984734  25.8094597  70.7365112
  55.9941559  24.3620300  70.3394699  52.6771317  30.9674358  55.6618423
  53.2919273  30.2338028  55.6553574  51.8130684  30.5559998  55.6432991
  34.5847054  24.3208561  70.0444565  35.2327843  24.2278614  69.3461914
  35.0392342  24.0266895  70.8338242  60.8296547  51.0164185  75.7549133
  60.5407829  50.3984718  76.4264221  60.8393326  51.8646927  76.1982803
  70.8103714  32.9284248  57.9440155  71.5430145  33.3990135  57.5465164
  70.4878922  32.3555946  57.2482376  71.9383392  48.9522820  65.1472702
  72.1901169  48.5862770  64.2994003  72.5654144  48.5773888  65.7657089
  54.7953758  34.0946579  87.6918182  55.5950279  34.5163994  88.0063324
  54.8526077  33.1974602  88.0204391  31.1059246   1.8414806  31.9166698
  30.9046135   1.5188050  31.0382690  31.4481907   2.7240992  31.7750015
  67.5556335  50.5655746  28.4000988  68.3266678  51.0204391  28.7389622
  67.4226074  49.8360977  29.0054073  51.7546883   8.7012148  56.4771652
  51.6704178   7.8943062  56.9851265  52.6479912   8.9996157  56.6480446
  47.9665260  64.0134659   7.6301928  47.1331215  63.8947182   8.0857859
  48.5925179  64.2169952   8.3251362  35.4604759  58.6862984  80.5047302
  35.7718544  59.5565109  80.7537308  36.2558060  58.1582985  80.4347000
  51.5026016  66.3355865  28.7712917  52.0276489  66.7122345  29.4774704
  51.5489883  65.3905563  28.9162006  30.7769203  39.6972237  10.0922241
  30.7686081  38.9570427  10.6990976  30.5800705  40.4576607  10.6392317
  70.9462967  59.0841331  46.1507721  69.9995499  59.0431175  46.2857857
  71.0938492  59.9394836  45.7472420  82.1505966  49.2299194  54.9868927
  82.7100220  49.1066513  54.2200317  81.5539627  49.9355431  54.7371826
  60.1410103  61.9254646   8.1699972  59.7544479  62.5809174   7.5893202
  60.9052582  61.6031456   7.6922226  57.0250893  13.3402195  10.3372746
  57.0354881  13.8097496   9.5032082  56.5221100  13.9051323  10.9238882
  53.4604797  36.2217979  10.2140408  54.1036797  36.8926125  10.4432411
  53.5854912  36.0808220   9.2755690  15.0558949  69.4983597  84.0887756
  14.8555069  68.7673569  83.5042114  15.9833937  69.3896713  84.2989349
  86.7259445  62.6884270  78.6854782  86.2367020  63.1982079  78.0397263
  87.3548737  63.3089027  79.0538483  79.3916321  67.9505463  34.1175728
  79.5419464  68.3797760  34.9598312  79.1821671  67.0445251  34.3444862
  40.2305031  66.8921890  51.9511681  39.3635330  66.5247574  52.1231689
  40.4141693  67.4400101  52.7143135  79.5106354  41.1653214  88.8716583
  80.2015152  41.8249626  88.8100662  79.6540985  40.7467651  89.7204590
  86.5519943  34.4919357  84.4531250  86.5981750  34.6015358  83.5033417
  87.0443497  33.6894493  84.6258469  30.3803158  67.4665222  56.2654495
  30.6294212  66.6095734  55.9193077  30.2741737  68.0166779  55.4893723
  53.2367973  59.9877167  42.7337646  53.5791893  59.3083878  42.1528091
  52.5119438  60.3777046  42.2451668  17.8354340  24.6427231  23.8345203
  18.6932182  25.0669765  23.8133430  17.6604195  24.4106655  22.9225178
  62.6551933  71.5176697  69.8995743  62.3076134  71.1059494  69.1084366
  62.3133583  70.9842758  70.6171265   1.1681421   7.2891788  56.7226295
   1.7867953   6.5609508  56.7790604   1.0696886   7.5903511  57.6258659
  63.2524147  28.2810364   5.6992669  63.3208504  28.1466541   4.7540216
  62.3765602  28.6455994   5.8265672  27.6163464  36.6795731  73.1116943
  27.7747364  37.3078690  73.8162460  27.8470325  35.8314438  73.4907684
  15.9245291  70.7248611  70.7418365  16.4590397  70.9449463  71.5047913
  15.0252876  70.7301483  71.0698166  23.0844765  25.0013046  52.5906448
  23.4792652  25.0911350  53.4579964  22.5636883  25.7969055  52.4809685
  11.5519056  34.2569160  58.1218414  12.4751120  34.1105957  58.3280258
  11.0944624  34.1020737  58.9482803  78.1479874  49.8816261  65.6818771
  78.6952667  50.6667709  65.6657333  77.4669418  50.0775833  66.3253174
  40.5895386  57.6553497  28.2446384  40.4852524  56.8503418  27.7373695
  39.7384644  58.0890961  28.1832294  59.3700752  45.2867508  58.1805611
  59.9427681  44.9565849  58.8728333  58.8360863  44.5324326  57.9313850
  82.6699066   6.4675345  69.5642242  83.1338730   6.5229077  68.7288208
  82.7869797   7.3307729  69.9608917  40.2270546  47.8283081   4.8126345
  39.9408150  47.2938423   4.0719295  40.7202644  47.2240982   5.3675289
  36.7771530  32.3858986   9.8396807  36.8544426  32.7309990  10.7291546
  35.8945045  32.6321869   9.5630770  82.3188248  35.4667015  63.4334717
  82.1786499  34.6142387  63.8456497  82.6719131  36.0159912  64.1333618
  80.4247208  54.3231583  79.2370148  79.6529388  54.0084991  79.7077255
  80.3068542  55.2719536  79.1909485  81.9841461  37.0216560  19.4826012
  82.1896515  37.8493423  19.9172726  81.9982834  37.2315521  18.5488052
   2.1451440  70.0884933  30.1690578   2.8582215  70.3225861  30.7631569
   1.8747876  70.9201965  29.7799435  19.4352112  54.3881721  86.1988983
  18.7136192  53.8621788  85.8541260  19.6264400  54.0015755  87.0534210
  40.3585663  59.2897758  22.6726856  41.2390976  58.9759178  22.4668045
  40.3557777  59.3878288  23.6248474  18.3799095   1.2034708  27.6172962
  17.8048668   1.1511836  26.8538666  17.9786263   1.8706301  28.1741657
  18.5124016  42.4937592   0.5735525  18.1211796  41.6220932   0.6316206
  17.7671947  43.0836678   0.4599284  21.8697948  26.6555061  57.2380447
  21.7747040  27.4379921  56.6949959  21.0030403  26.2494946  57.2269707
  13.1645632  60.1244240  26.9441853  12.2393894  60.1441765  27.1889191
  13.5477085  60.8768272  27.3950939  45.1856308  12.2521486  87.2566605
  44.4021721  12.2528381  86.7067261  45.6243668  13.0772810  87.0495377
   0.2553786  21.6238785  81.6777802   0.8010651  21.1129780  82.2756348
   0.4427088  21.2600842  80.8124466  59.8082809  52.9240150  85.0126572
  59.9696198  52.6744118  84.1027679  60.5351143  52.5360527  85.4999313
  21.2502289  14.4404125  76.1334000  21.5493126  14.5279837  77.0384445
  21.8224678  13.7725449  75.7556000  49.2794456  37.7124100  48.8731232
  49.9925957  37.7928314  48.2397346  48.5016441  37.5515518  48.3389091
  22.9965725  63.5211487  74.0408401  23.3714523  63.8654518  73.2301865
  23.6998520  63.6054420  74.6846771  76.6221771  48.3358650  78.7808990
  76.6143723  49.2875061  78.8836060  76.8277206  48.1964111  77.8564835
  65.9238281  22.7726002  37.3598404  65.6457520  21.9634590  37.7890205
  66.7734528  22.5593014  36.9740105   2.1003201  21.3576164  27.1715698
   1.3471065  21.7276497  26.7111607   2.7676642  22.0424519  27.1281738
  50.1698570  60.7680473  81.6376648  50.0554771  59.9979248  82.1944962
  49.3060570  61.1800003  81.6182556  85.7621231   4.6035957  47.7479477
  86.4950790   4.4673991  48.3483353  85.7117462   5.5537043  47.6431274
   6.1581440  67.2433090  40.9306145   5.8820982  66.3843307  41.2502747
   5.3442626  67.7397079  40.8444748  71.2563553   5.9522672   6.1213007
  71.3493576   6.7166047   5.5526433  71.5134125   6.2660751   6.9882946
  68.0333710  17.2714005  84.9838181  67.3525696  16.6154213  84.8340454
  67.5572128  18.0479050  85.2779999  18.8232288  52.2308578  61.6161003
  19.5617523  52.4977341  61.0687523  19.0668373  52.5086708  62.4991112
   4.8916063   6.5644798  51.8459053   4.0839586   6.4655380  51.3417740
   5.2956409   7.3591752  51.4974136  78.0286179  18.1534233  36.1934166
  77.5374527  17.3389091  36.0858994  77.4252014  18.8371582  35.9025040
  39.9318085  41.9874802  51.9729729  40.3746567  42.1487389  52.8061066
  40.3695488  42.5700912  51.3523445  21.7021484  70.0065765  35.5303688
  21.0130615  70.4266968  35.0156898  21.5869961  69.0706482  35.3660126
  27.8877964  41.2654381  69.2290802  27.5342941  41.3042641  68.3403931
  27.1392574  41.0230789  69.7742233  80.7648697  49.1420212  47.6530838
  80.6990738  50.0162544  48.0373039  79.8606415  48.8992653  47.4538994
  42.6372261  64.5931320  70.1621475  42.8137093  64.9879913  69.3082352
  43.5026436  64.4673538  70.5513306  82.5479660  70.0930634   5.5101676
  82.2962723  70.7448502   4.8559122  82.4654312  70.5497742   6.3473258
   4.8930902  35.9256287  20.7436256   5.4907260  35.1798897  20.7978420
   4.6846638  36.1322594  21.6547203  13.6890774  64.8412170  65.3373108
  13.0848398  64.1170349  65.1739426  14.3823090  64.4581223  65.8748093
  61.6088982   9.6109343  50.4048347  60.9970169   8.8898888  50.2567673
  62.3250847   9.2185841  50.9042053  25.2309856  34.0675278  72.8484726
  25.9276276  34.0542107  73.5047836  25.2146530  33.1767807  72.4984207
   1.8993239  67.8904495  35.5859108   1.1563418  67.5131531  35.1148949
   1.7863683  68.8364182  35.4930725   8.9078703  70.9846878  28.6551895
   8.5133419  71.7087631  28.1690807   8.2076969  70.6706924  29.2273750
  75.7798920  28.8351135  52.6031380  76.7134933  29.0342808  52.6734886
  75.7416840  27.8798542  52.5556831  20.8874912   7.4841413  77.4444122
  20.9012260   6.5983367  77.0819321  20.0747032   7.8659635  77.1130219
  73.0560379  41.7968140  63.8313599  73.0319824  42.3581924  64.6062851
  73.0999527  42.4067879  63.0949898  50.6656570  49.3288498  87.0390701
  50.9537964  50.2329102  87.1651001  51.3101387  48.9534912  86.4390869
  11.2681980  68.5237274  66.2521057  12.1614008  68.2038574  66.3790207
  11.1519985  68.5390549  65.3021088   3.5456648  29.2391338   8.0867891
   3.6674113  30.0918922   7.6694026   3.9519851  28.6169624   7.4834328
  51.7451096  44.4615707  52.5571899  52.6019516  44.3266449  52.9619675
  51.1611176  43.8678703  53.0291100  87.0006561   3.9617834  20.9573441
  86.4930496   3.6668563  21.7133751  86.7166824   3.3931632  20.2416191
  63.2379112  52.0594788  79.4879990  63.6536064  51.4455681  78.8825760
  62.6022072  52.5322571  78.9507904  14.0219135  46.7388725   5.8440948
  14.9346762  46.9424973   6.0481362  13.6791401  46.3453979   6.6465392
  81.4526596  52.7449760  55.9142532  82.1892014  52.3063316  55.4884377
  81.5995941  53.6760483  55.7476959   2.6706345  67.5307693  72.5924072
   1.9783317  66.9013977  72.7945175   3.1573853  67.1285782  71.8729935
  64.5736084   9.0082951  43.4826584  64.0662003   8.9044580  42.6776810
  65.4796677   9.0919542  43.1855431  36.6431923  40.1116524   6.9995832
  37.1842613  39.3959007   6.6661501  36.2884483  39.7796059   7.8242850
  12.9876423  45.7882423  30.1978893  12.7174149  44.9038391  30.4449539
  12.1803999  46.3018799  30.2256584  74.7835388  26.0679302  38.0794220
  73.9379425  26.4984703  37.9535942  75.4278259  26.7652969  37.9577713
  38.2096634  26.1570530  88.5519104  38.7059593  26.6434860  89.2101669
  38.1275558  25.2758980  88.9166718   3.1978879  50.2369614  52.7037735
   2.7055290  49.5023346  53.0700188   4.0792894  49.8898354  52.5664215
  63.6598625  22.6576328  68.9391251  62.8642654  23.0461617  68.5753860
  63.4174728  21.7519855  69.1322174  62.3077965  21.7239628  63.5180817
  62.4127350  22.6746922  63.4815674  62.2676926  21.4520321  62.6011963
  77.8569717  57.2867126  50.1077309  77.0095444  57.7025642  50.2663689
  77.6396866  56.4473000  49.7022629  67.2334366  48.2474480  29.6254368
  67.0484085  48.0839119  28.7006378  66.8234253  47.5146637  30.0849514
  46.4950447  40.6504059  16.6300964  47.1329689  40.5556412  15.9227753
  46.2566795  39.7522125  16.8595810  70.8977280  36.5064659  77.1248779
  71.1201172  36.3673172  76.2043304  71.7039490  36.8404007  77.5182190
  29.4376640  30.4625740  65.0956726  28.6679115  30.7230530  64.5898438
  29.5018349  29.5166283  64.9641418   7.4133396  64.4748688  75.0028763
   6.8534193  64.4711380  74.2265320   6.8761010  64.8799210  75.6837082
   6.1189332   8.0639906  38.1008873   6.0212550   9.0124779  38.0168457
   6.4011493   7.9315319  39.0058975   4.0061784  70.0694122  14.4135647
   4.0871372  70.8797836  13.9106035   3.4254966  69.5186386  13.8885050
  60.6934204  68.7424240  47.0985565  60.9143524  67.9744339  47.6254463
  60.0850067  69.2404556  47.6444740  51.0561333   4.1163402  66.8497162
  50.1323967   3.9183381  67.0037918  51.0820274   5.0666780  66.7382736
   9.0337229  25.0225544   7.8277931   8.3096170  25.6365414   7.9499507
   9.8088713  25.5067177   8.1123343  22.6337204  51.6786537  72.0615234
  23.0471230  51.9686432  72.8746872  22.8275127  50.7424355  72.0149384
   2.1352153   3.2504916  45.4626770   1.4390675   2.9761040  44.8657494
   2.3149540   2.4746759  45.9937477  30.6535244  18.3968391  63.8349190
  30.1338825  17.9535694  64.5055313  31.4989548  17.9482880  63.8516655
  54.9224815  43.0245590   3.0824378  54.6558609  43.7666283   2.5397816
  55.7486992  43.3019180   3.4782531  25.6841125  47.5923691  75.3341446
  25.9013500  48.4311981  74.9274445  26.4314919  47.4000626  75.9004211
  44.5728073  27.5883636  87.6606674  44.2630043  28.2556992  87.0483627
  44.0285301  27.7064381  88.4391556  76.7563782  51.3879166  78.7759094
  76.9452591  52.1906395  79.2619095  77.5274506  51.2546539  78.2246170
  44.4570656   0.6537955  19.4392796  44.3919067  -0.0626797  18.8078918
  45.2864647   0.4997433  19.8916054  81.6850510   1.5951643  71.1129456
  81.7311554   2.5337720  71.2949371  82.4819946   1.4079499  70.6168900
  73.3904877  48.8162842  76.9654541  74.0946579  49.4340515  76.7686157
  73.7510376  48.2521820  77.6495743  81.2776184  20.4629574  69.6591492
  81.3330154  21.2304554  70.2284546  81.3247299  20.8189964  68.7718735
  62.3842773  25.4539146   0.4607173  62.0024529  26.3009834   0.2306737
  61.6334724  24.8647041   0.5338887   8.1901417  26.1696053  11.1346941
   8.3492956  26.2525883  10.1944733   8.7476683  26.8386211  11.5319519
  78.8303986   2.0120668  20.3533840  79.3198013   1.6341622  19.6226959
  78.9830704   2.9543190  20.2820759  66.3701630  63.1697769  54.3425369
  67.2462540  63.2714577  54.7144966  66.2148056  63.9868469  53.8687325
  64.0890350  12.2289610  55.5326157  63.8928490  12.6140747  56.3866806
  63.5251007  11.4571342  55.4826736  30.2030773  56.8047409   3.3737261
  30.6915035  57.4780388   2.9000795  29.3607464  56.7572021   2.9215653
  78.9829407  30.3164005  46.2764969  78.9479752  29.4561024  45.8582916
  79.4671402  30.1683273  47.0888138  24.6285400  59.5127525  19.8410778
  24.7442722  58.8469505  19.1631832  25.4363308  60.0255394  19.8135414
  61.6740112   4.9777021  60.0913963  61.1150932   4.7664795  59.3435822
  61.7255592   5.9335117  60.0894737  54.9017448  31.8967018  77.4857864
  54.1732101  31.4747639  77.9412384  55.4354057  31.1704693  77.1632614
  26.5062943  69.1407394  41.9088745  27.3781605  68.7520523  41.8381271
  26.5703468  69.9627533  41.4226418  65.2154846  44.3269730  37.8680954
  65.0779877  44.1845741  38.8046074  64.5184708  43.8257866  37.4447517
  47.3021049   3.3580744  38.0273933  46.8063240   2.9988749  38.7631950
  48.2188835   3.2445216  38.2781029  76.4376373  25.8051949  73.9912796
  76.1712418  25.9463139  74.8997650  77.2334442  26.3275890  73.8911285
  19.1767292   7.1783037  19.1641445  19.4059601   7.1184578  18.2367268
  19.2986126   8.1024160  19.3818417  71.9333801  10.9806519  83.5991745
  71.0229492  11.0234938  83.3067627  72.3654556  11.7032795  83.1438141
  78.6125336  23.0303764  19.2852478  78.5514832  22.8538570  20.2240486
  79.3306427  23.6582565  19.2057953  12.1797132  66.8952026  50.0247650
  11.9110336  66.0023193  50.2411079  11.5157919  67.2021484  49.4073334
  74.7298203  69.4450378  63.5889435  73.9471970  69.3026123  63.0565491
  74.4206390  69.3769684  64.4922714  42.9983025  57.9710388  26.3379326
  42.1705551  58.0323677  25.8611698  42.7445450  57.9822807  27.2608166
  48.3627090  69.6512909  46.8652992  47.6642761  69.8717270  47.4816055
  48.0567894  68.8547363  46.4315338  47.2787247  33.1579933  83.7852097
  46.4932098  33.6879158  83.6496429  47.3650017  32.6473198  82.9802246
  11.4418516  24.4081287  21.3522110  10.5739260  24.5334167  21.7359314
  11.3648300  24.7603722  20.4655190  15.1622019  44.7994766  25.2032642
  15.2395926  44.7575188  26.1564064  16.0304279  44.5567551  24.8815517
  10.6970615  10.0560341  72.3150406   9.9799919   9.5254259  72.6621704
  10.9934778   9.5800247  71.5392990  29.4760265  57.8474922  38.3180580
  29.8647079  57.0952988  38.7645607  28.5324802  57.7304077  38.4287148
  75.8806610   1.7579277  78.2570496  76.5810089   2.3744643  78.4706650
  75.8078995   1.2003413  79.0316620  34.0861588  20.8177395   0.5276834
  33.4871254  20.8305283   1.2741617  33.7575417  20.1134491  -0.0310800
  77.7430878  10.3800116  51.5992126  78.2172546  10.5336895  50.7820282
  78.1136246  11.0133600  52.2138672  71.3396072  17.0040760  24.1307850
  72.1974640  17.4064789  23.9951706  70.7625580  17.4573994  23.5161800
  36.9272804  49.6727486  55.4516716  36.4993744  49.4898376  56.2881355
  37.7907715  50.0082130  55.6926765  82.4796829  10.2399988   0.5407261
  82.1491928  10.2870064   1.4378304  82.4228134  11.1390371   0.2171101
  46.6129837  45.9160728  46.2235565  46.0555954  45.4962959  46.8787956
  47.4054375  45.3795395  46.2040520  36.3132973  43.0383759  10.0044289
  36.4691467  43.7289391   9.3601742  37.0747147  42.4633560   9.9281235
  18.1792412  66.7627869  35.2641563  17.2396164  66.8986816  35.3860817
  18.5877094  67.5139389  35.6944504  73.4059601  34.8760376  32.2345123
  72.4916840  34.5935211  32.2571487  73.7736588  34.4361725  31.4679928
  53.9359550  23.4775009   9.8841391  53.3555756  22.8113041   9.5159416
  54.6715393  23.5185623   9.2730207  77.6685333  27.1330528  15.1189394
  76.7361221  27.2077599  15.3220472  78.0267029  27.9985485  15.3160820
  42.2981491  28.9979649  63.1003380  41.8478584  29.2974129  63.8901443
  42.0541191  28.0758381  63.0205498  22.4365883  43.4504128  84.9243546
  21.4964905  43.3702583  84.7630386  22.8107204  43.6497955  84.0661621
  26.2803516  30.7229347  76.9657516  26.7665176  31.0523930  77.7216110
  26.8834915  30.8258724  76.2296371  24.0401764  27.8054523   7.8493519
  24.2070293  27.0442429   8.4051857  24.0577774  27.4590473   6.9572058
  55.5746002  35.9562073   3.8573182  56.4757881  35.7071457   4.0624108
  55.0651245  35.1607971   4.0121975   4.4989643  39.1803627  21.7864170
   3.8162861  39.8323135  21.9449730   4.3898144  38.5428123  22.4920025
  81.7112122  18.3826828   5.5258832  80.8542404  17.9605160   5.5859604
  82.0219803  18.1696796   4.6459489  28.5412865  51.8558464  20.7515354
  28.5080910  51.7886734  21.7057972  28.0689087  51.0836143  20.4404945
   2.6666980  64.4681168  78.0973587   2.1438642  64.9033203  77.4239502
   2.6647651  65.0791168  78.8341827  40.2635727  38.7131271  18.7691689
  39.6928673  39.4630280  18.6013069  40.1294785  38.1369133  18.0166874
   3.1339922  71.1923599  64.4127426   3.0775704  70.5295258  63.7244911
   4.0407763  71.4969559  64.3781662  30.3636780  55.2545624  33.0569191
  29.9240093  54.4532661  32.7725792  29.6820507  55.9258461  33.0254517
  32.4360199   6.6881599  60.2169991  32.2268295   7.3713779  60.8539314
  32.0757217   5.8872795  60.5978012  22.7748680   1.4740793  48.0955276
  22.7973957   1.0036669  48.9288559  23.6452370   1.8646975  48.0173836
  62.6409492  61.2554626  57.7333946  61.8666077  61.7210999  57.4174690
  63.1904831  61.1500435  56.9567795   0.8244538  27.0892830  20.0505066
   1.0215536  27.9176941  20.4876785  -0.0512282  26.8575993  20.3599167
  55.6551514  69.9256134  25.2856483  55.2633324  70.6258545  24.7637539
  55.6969948  70.2827682  26.1727314  65.1336899  29.1821346  38.0889015
  64.2839966  29.1815472  37.6481667  65.6459045  29.8414249  37.6207047
  30.9267960   4.0751734  67.6141205  30.6748753   3.3023233  68.1195602
  30.0964813   4.4929891  67.3855591   4.5775027   8.8971739  83.0990829
   5.4653463   9.1907625  82.8946991   4.3957987   8.2154484  82.4521942
  61.6732407  52.5638466  12.9255390  61.0385628  53.1931686  13.2681313
  61.3633537  51.7150688  13.2414103  53.2811966   2.5344195   0.3431448
  53.6134834   3.4033842   0.1179377  53.2108459   2.5448787   1.2976987
  84.2649078  22.3606853  68.8130264  84.2457962  23.2941284  68.6019516
  85.1611862  22.2001801  69.1082458  18.0237350  47.7707291  53.8412514
  17.8822727  48.6879959  54.0754395  17.7482033  47.7118530  52.9264603
  21.7754459  66.4596863  30.7703037  22.0380306  66.2701035  29.8695602
  22.5911427  66.6929932  31.2135124  10.3311357  54.3373642  20.7315350
  10.8615913  55.1307907  20.6585903  10.9698162  53.6279564  20.8026924
  67.4799042  59.5510445  50.5304909  66.7886810  59.0747986  50.0704498
  67.4217529  59.2431488  51.4349556  39.0770264  67.5937881  83.3334427
  39.9113617  67.9377289  83.0143433  38.4147263  68.1341782  82.9026566
  59.8969116  16.6571121  30.9702663  59.8753357  17.5638599  30.6643677
  60.0531540  16.7257347  31.9121304  67.0960846  22.9020252  64.9944687
  68.0118561  22.9617233  64.7223816  66.6266251  22.6455517  64.2007065
  23.1073017  54.4802246   3.8055751  23.3165779  53.5497475   3.7240484
  22.1555748  54.5038452   3.9050314  41.2441940  23.8153458   7.3375058
  41.8850212  23.5208302   6.6903315  41.0374985  24.7133389   7.0784302
   1.3426731  21.7527313  22.8078556   0.7012798  21.5897846  22.1162682
   1.1214433  21.1220894  23.4931145  12.2455482  32.2514877  30.4862480
  11.5559483  31.8506813  31.0154343  11.7999535  32.9418144  29.9952011
  34.8391190  49.0037193  46.0077095  34.2475471  48.6247177  46.6578102
  34.4767342  48.7293205  45.1653214  69.0673523  33.9305878  42.4799538
  68.2626724  33.6269264  42.9000893  68.7776413  34.2978592  41.6448441
  39.5336647  34.3049850  81.5135574  40.4506950  34.5640259  81.6040344
  39.3699341  34.3288765  80.5707703  45.9291039  47.7261848   1.7909571
  46.6236992  48.2523003   1.3947606  46.0442810  46.8541222   1.4135082
  77.4821777  66.9100342   8.8130636  78.0255203  67.6802673   8.6465111
  77.7301712  66.6278152   9.6934528  57.5303802   1.4001813  63.8285446
  57.2302666   1.2328665  64.7219467  56.7587318   1.2453866  63.2837257
   1.1083459  31.3692818   5.8941727   1.9197292  30.9004402   6.0893078
   0.7144987  31.5333099   6.7510338   2.6473155  50.1232262  84.9570160
   2.2987003  49.5401115  85.6313095   1.9794537  50.1227455  84.2713089
  48.8646622  29.3675861  10.5879250  48.4847450  29.0256233   9.7786293
  49.8015785  29.4337387  10.4034319  37.8215637  60.2122269  84.8909149
  37.4457245  60.9390068  84.3941650  38.1720619  60.6194763  85.6830826
  10.8514824  68.2204819   1.3271457  11.3322296  67.7663498   2.0191562
  10.9235878  69.1475677   1.5541582  46.9080887  58.2953377  18.1255932
  45.9754677  58.2581978  18.3378887  47.1781120  59.1759758  18.3859653
  76.4393158  58.0116539  79.3398895  75.5883026  58.4283447  79.4754257
  77.0527954  58.7416267  79.2561035  34.6447449  62.2621346  46.0568123
  34.2120934  63.0949707  46.2450447  33.9283257  61.6319466  45.9804153
  86.0125351  16.3670616   1.4257774  86.7889633  16.5092773   0.8843324
  86.3578796  16.2252216   2.3071687  79.1916580  57.3940659  59.1640282
  78.2627487  57.1747208  59.0915680  79.3179626  58.1100655  58.5414314
  53.9365692  28.7495403   9.5089064  54.7010422  28.5569992  10.0518093
  53.8385620  27.9779530   8.9509821  39.9101677   5.8899655  68.2630157
  39.6985855   6.7877431  68.0071640  39.5034447   5.7838211  69.1229782
  32.4446831   5.2940578   9.2223558  32.3044815   6.2282267   9.0677462
  32.3981590   4.8976665   8.3523321  69.6289291  56.0799141  23.0480995
  69.4891663  56.8861008  23.5448475  68.7594376  55.6850052  22.9828529
   4.5255761  56.1523399  39.7027283   4.8124862  55.4772186  39.0878105
   3.5983055  55.9649582  39.8486366  23.4420090  20.6130905  66.4714203
  23.4210835  20.9824009  65.5885849  24.0962238  21.1363525  66.9344940
  49.2392502  51.8717003   5.0765362  48.9324722  52.6140137   5.5972018
  48.5232239  51.2378120   5.1180692  83.0895615  44.4733925  51.9988708
  83.9394302  44.7420998  52.3477974  82.6491470  45.2950554  51.7817650
  31.2168598  65.3653030  41.7697067  30.5771255  64.9074936  42.3150330
  31.9700851  64.7754974  41.7377739  79.7822723   4.6505823  87.6775589
  80.6522293   4.6233664  87.2792358  79.2247925   4.1661320  87.0686646
  70.6882477  64.4212799  81.5782700  70.4294662  63.7147598  82.1699448
  69.8820953  64.9148865  81.4276199  86.3996811  49.5527954  10.0308151
  87.1403961  50.1590385  10.0374002  86.2449722  49.3536224  10.9541931
  78.4043350  70.3323441  18.3721848  77.7062073  70.8067703  17.9207878
  77.9720459  69.9294510  19.1252041   6.5896945  13.0957365  44.3735619
   6.7219777  13.8103476  43.7506180   7.2654529  13.2292233  45.0382156
  53.0576935  56.2652054  15.9959707  53.9443321  55.9931793  16.2328358
  52.5054893  55.9182281  16.6966190  16.1274738  13.5739212  71.1385040
  16.9048824  13.2412128  71.5870285  15.5837393  13.9358053  71.8382339
  53.1781616  13.8099403   4.7102160  53.4838448  14.6160393   4.2942905
  52.3989258  14.0735540   5.1996336   9.5099001  58.4270363   9.9806061
   8.7336578  57.9231796   9.7360487  10.2286348  58.0018234   9.5127945
  38.4057083  68.5817642  35.4885101  39.1917419  69.0854568  35.6998825
  38.4125023  68.5167542  34.5335464  37.2188110  31.9001541  14.1178427
  37.6846657  32.7091942  14.3291845  36.4875870  31.8765907  14.7350817
  57.0321350  18.9276199  64.9481812  56.6444702  18.6132717  65.7649612
  57.9639893  19.0214138  65.1458740  28.5702324  34.2691879  10.0054140
  28.6888027  35.1940536   9.7890902  28.8189793  34.2050858  10.9275036
  64.8891983  29.3631172  28.5680733  65.6112976  29.7979660  29.0216351
  64.8399429  28.4966145  28.9717789  35.9032669  35.4270706  88.5144272
  36.8004951  35.7604599  88.5066452  35.3686714  36.1837311  88.7550659
  80.9536209  59.0067024  42.5900269  80.5758591  59.0367432  41.7110367
  81.7888031  59.4670525  42.5076485  44.2709389  27.6089649  12.6525564
  44.6859665  27.5350838  11.7931814  44.9749641  27.8946171  13.2347775
  76.9008102   9.0452261  10.5961056  77.1357422   9.6437902  11.3051596
  75.9476852   9.1087961  10.5349159  25.1173229  66.9716492  63.6481056
  24.6801243  67.7499390  63.3026390  24.6525192  66.7772446  64.4619827
   7.0657783  48.8210983   7.6707721   7.3264713  48.2477074   6.9500113
   6.9959412  49.6889992   7.2731509  85.8409576   1.0272369  80.0532761
  85.8715210   0.0738042  80.1324158  85.1655655   1.2976806  80.6753235
  14.5373936  41.5889702  53.2267685  15.2401161  41.7361908  52.5937271
  14.1851835  40.7288513  52.9979134  16.6236458  61.5896492  27.7704468
  17.1354923  61.2792358  27.0235271  15.7802496  61.8419228  27.3945847
  56.1906052  26.4733696  66.3445282  56.0161476  25.5330486  66.3046188
  55.3812675  26.8528042  66.6869202  23.5890579  64.9500885  45.5900040
  22.8420200  64.8231888  46.1748619  24.2002811  64.2527542  45.8274269
  76.3335571  13.0326300  72.4536743  77.0375443  13.6076155  72.1536407
  75.6210938  13.6278543  72.6867752   6.0244374   6.5508099  28.6732960
   6.2350507   6.4413548  27.7459927   6.5116429   7.3306775  28.9391327
   9.1474743  58.0610390  52.1319389   9.7765617  57.7429504  51.4844055
   8.4035501  57.4634018  52.0568352  66.1696701  25.1654720  65.9244080
  66.6076050  25.2383461  66.7724304  66.5397797  24.3753147  65.5308304
   5.2542720   9.7777004  16.5817719   5.6242390  10.4577465  16.0188389
   4.3122425   9.9472980  16.5747986  85.1450653   7.8504305  87.3315201
  85.8780823   7.2946444  87.0669022  84.5973969   7.9131932  86.5489960
  83.0981903  28.3144932  51.3549309  83.5467148  29.1388683  51.1666145
  82.2629547  28.3852444  50.8927498   4.7068243  43.9999161  73.9764557
   4.0060225  44.6155281  74.1912384   5.3087082  44.0536804  74.7188034
  24.3921089  45.9497910   5.0537615  24.6391773  45.8712921   4.1323342
  24.9621639  46.6379738   5.3967967  14.1369686  20.0980682  85.4441833
  13.3954897  19.7195168  84.9718018  13.9349222  19.9471951  86.3675690
  46.9452972  52.4006004  24.3996906  46.6317101  51.7133217  24.9875221
  47.3493729  51.9275970  23.6722145  11.9085417  62.0589714  77.3084030
  12.2606630  62.8140488  76.8371277  12.4496355  61.9941673  78.0953293
  10.9258957   2.2541938  16.4056740  10.0231848   2.0483358  16.1628418
  11.3562431   2.4597433  15.5757446  69.0228271  25.0078278  39.8708153
  68.3563538  25.2617531  40.5092278  68.5364532  24.5468807  39.1872940
  50.0904541  58.2740364  57.1324043  50.4529762  57.8937607  56.3322830
  49.1534157  58.0845795  57.0844231  24.4703007  38.7134819   5.2337370
  25.1281586  38.0296059   5.1081691  24.8787670  39.5057144   4.8848047
  40.0441399  68.1434097  70.0648575  39.0888710  68.2041779  70.0654984
  40.2430611  67.5049667  69.3799820  80.2772522  53.2153358  88.9723358
  80.7815399  52.7313232  89.6262970  80.8889160  53.3476791  88.2480469
  20.1806374   6.3733788  80.8858109  19.4817677   6.3728237  80.2317352
  20.8179531   7.0062332  80.5548172  73.2939758  32.3044014  45.7015152
  73.3905945  31.5151119  45.1686707  74.1880722  32.5324287  45.9561157
  55.2144279  44.4332657  27.3590794  54.8660698  43.7698479  26.7634640
  56.0772858  44.1021156  27.6081810  21.4277058  25.6382637  84.3162842
  21.9726887  25.2701778  85.0117950  21.6660061  25.1385212  83.5354538
  29.5658512  51.6499825  51.0602531  29.5036602  51.4142876  51.9858971
  30.4637699  51.9637108  50.9527893  68.2331619   8.8171225  71.6017761
  68.3408356   9.7359581  71.3560562  69.1246033   8.4692078  71.6244583
  22.4709797  55.6339302  88.4361877  22.0715981  54.9969177  89.0285873
  22.5899258  56.4178886  88.9723663  43.6453743  42.7599831  74.8816833
  43.2055473  43.6068649  74.8070145  44.2537651  42.8696747  75.6124802
  60.6712532  70.3698654  30.9850121  60.6950302  69.4963837  30.5942478
  59.7521057  70.5038986  31.2161713  84.8532639  64.3399887   7.6714520
  84.4239426  63.6002998   8.1013184  84.7038422  64.1938019   6.7373552
  76.4871216  17.2703495  30.1154442  76.9494476  17.7237434  30.8203697
  75.5601044  17.3841381  30.3250179  32.8987923  70.8399048   1.4836147
  32.0214577  71.0896759   1.1935691  32.7727890  70.0067291   1.9376779
  26.3615608  21.6035805  66.2589722  25.7701912  21.5849400  65.5065384
  26.4640179  22.5337887  66.4600983  -0.1357273  44.4381294  83.1071854
   0.4540503  45.1905098  83.1553421   0.3061912  43.7547531  83.6111069
  14.4684429  18.4042645  71.8289032  13.5190372  18.3948765  71.7073593
  14.6578178  17.5920296  72.2986298  58.8063240  27.7215080  26.1176548
  58.5925484  27.3499641  26.9735088  57.9599762  27.8217793  25.6819096
  84.4789658  14.4836922  76.0673752  84.2899094  13.8543577  76.7633820
  85.1815567  14.0764961  75.5606308  73.5186996  28.7339497  20.7921848
  74.2379913  29.3654976  20.7914371  73.8365555  28.0095577  21.3311234
  54.5570107  55.4834709  22.1359844  54.9871864  56.2321243  21.7228317
  53.6632347  55.7828064  22.3027020  16.0053940  69.0698090  48.9662323
  16.6810570  69.1391296  48.2917633  15.9460621  68.1323624  49.1503677
   0.8944930  13.9747610  31.3718338   1.2428534  14.8470097  31.1872845
   1.5939218  13.3768101  31.1082325  12.2330256  31.9154110   1.0852009
  12.2873240  31.9006214   0.1296567  12.8451605  31.2370472   1.3704119
  79.2476654   4.7196102  54.9533691  79.5257492   3.8499539  55.2407722
  79.0750732   5.1963563  55.7652550  13.3597136  39.4448471  34.2994347
  14.2929029  39.5412292  34.1094360  13.3313456  39.1008797  35.1922455
  15.8985453  66.5414429  39.1163788  16.6920757  66.0102234  39.0504189
  15.3265324  66.2041473  38.4269829  83.0687943  35.0921249  82.1709900
  83.5875549  34.2913399  82.0944443  83.3153458  35.6113091  81.4055557
  41.7227974  43.6176872  41.3323441  41.2207794  43.9813271  40.6029816
  42.2196617  42.8968811  40.9453125  50.0198669   3.1061816  38.0307732
  50.6824379   3.7858493  38.1543961  50.5088806   2.2844219  38.0732918
  48.8044510  13.8101254  74.6253357  49.4201660  14.3459988  74.1253738
  49.2705078  12.9878292  74.7764969   6.6436472  55.6577148  86.6217194
   5.7556858  55.3165321  86.7282639   6.5463004  56.6068840  86.6980972
  78.5964813  59.4764786   4.5529928  78.8105774  60.3036766   4.1215572
  78.0592728  59.0059395   3.9156239  72.4473495  48.4241447  45.7822647
  71.7506790  47.9915581  45.2885590  73.2267532  47.8959999  45.6095657
  53.3604012  16.1614666  10.3328428  53.0781975  15.8567715   9.4704323
  52.5599174  16.4845181  10.7464828  67.0301514  59.0019264  18.2931156
  67.4680710  58.5720367  19.0277233  66.1511536  59.1959991  18.6185932
  30.4214058  54.9045944  88.7134323  31.1817760  55.3510895  88.3409958
  30.0837307  55.5138245  89.3699722  57.8296356  69.5594864  34.5381470
  57.5285301  68.7744370  34.9956093  58.7846794  69.5046234  34.5714531
   3.9134459  28.9754868  23.2971039   3.1261837  28.4488945  23.4354858
   3.6482441  29.8668709  23.5236740  66.1771240  15.7719288   9.0513411
  65.3145981  16.0966644   9.3098564  66.6871414  15.7757730   9.8613377
  57.9187202  69.9740448  58.5303040  57.4464188  70.1577988  59.3423347
  58.7063866  69.5084686  58.8114586  58.3631439  70.2573318  37.9960365
  58.4450760  69.7314835  38.7916489  58.8334274  69.7572784  37.3289452
  80.8104858  25.5471649  23.3947659  80.1757736  24.9392700  23.0155029
  80.2932663  26.0973225  23.9830227  78.7424850  26.2328091  32.9802094
  78.6021271  25.8698463  32.1056862  79.6943054  26.2643948  33.0764885
  66.3195267  24.5601349  26.8395042  65.6779404  23.9322872  26.5072365
  66.5105286  24.2598534  27.7280884  32.8071365  52.3418732   6.0508351
  32.8716583  51.3906250   5.9659753  33.5856514  52.5912666   6.5487823
  80.4739075  48.5209961   1.9186832  80.0773849  49.3669395   2.1269584
  80.6821060  48.5771790   0.9860899  38.8041077  67.4137192   4.2333159
  39.6817245  67.7755966   4.1105914  38.4039001  67.9757538   4.8967786
  32.3169823  63.8455811  51.4138298  32.0958099  64.7085800  51.7638893
  32.7158699  64.0273209  50.5628929   1.9843341   7.3220072  77.2114792
   2.3651044   8.0723114  76.7550964   2.7099259   6.9557414  77.7170486
  77.2631531   5.9153285  32.6560707  76.7134552   6.3924241  33.2777138
  78.0457458   5.6844063  33.1565208  75.1995544  29.4582958  72.6528397
  75.2411270  30.1566925  73.3060989  76.1147537  29.2387180  72.4783936
  85.8536453  50.9122238  18.0316544  85.5875931  50.3273506  17.3221684
  85.0301895  51.2071953  18.4204235   9.8987064  24.1143665  73.2233124
  10.6902676  23.6423359  73.4818649  10.1757660  24.6625404  72.4891663
  17.5933762  40.7337265  48.5647888  17.3545837  40.7091179  47.6381798
  18.1691933  39.9784203  48.6838760  23.2854042  35.1221161  22.7061634
  23.5184689  35.4407043  21.8341446  22.8094673  35.8491974  23.1075020
  47.5763283  33.4862900  68.7345200  47.9604111  34.3224907  68.9981155
  46.6332703  33.6121826  68.8395309  20.2547264  24.1964779  68.8769989
  19.3903465  24.4537029  69.1977997  20.0814590  23.7689610  68.0382843
  51.9463692  22.5706615  33.4526405  52.7903023  22.7168961  33.8799858
  51.3035164  22.6550331  34.1568069  49.4231339  31.7087116  18.5259228
  50.1308517  31.5636940  17.8979588  49.7761765  32.3522720  19.1402702
  23.4085159  46.8150902  63.9778137  22.7336445  47.4553566  63.7523346
  23.3653164  46.1646461  63.2768936  56.3457565  50.8346443  17.9689884
  56.6417732  49.9544983  18.2012520  56.6796570  51.3927612  18.6713066
  54.3063965  32.8204803  57.5230637  53.9093132  33.6218910  57.1820412
  53.6728210  32.1330338  57.3175583  72.7223282   4.2500086  59.5164795
  71.8176956   4.4245815  59.7761040  73.0735245   5.1084552  59.2799187
   4.2078066  41.8125648   1.8102714   4.2912354  41.1863556   1.0911533
   4.9321804  42.4245987   1.6801568  46.9255409  50.7044830  29.0069199
  46.4742851  50.7702522  28.1653309  47.8314285  50.9448051  28.8123798
  72.1666107  38.8559265  54.2968559  72.0075912  38.0376472  54.7673492
  72.1725616  38.6039925  53.3734245  74.0763474   3.2837896  65.3526382
  73.9673996   2.9904292  64.4480362  74.8539047   3.8416333  65.3315201
  20.0324192  33.5933571   4.0268054  20.9095554  33.8694115   3.7609818
  19.5509777  33.5009346   3.2046719  14.2290812  70.4003754  24.5273399
  15.1152620  70.6424561  24.7962475  13.6783018  70.6426163  25.2717800
  58.6609268   0.4585100  74.1268234  58.9723396   1.3246251  74.3896866
  59.0536079   0.3138983  73.2659378  57.9932861  41.6681671  24.9846420
  57.2601624  41.1045761  24.7373962  57.7203102  42.5464249  24.7193489
  11.2829199  58.2417259  16.2979259  10.6839705  57.5765381  16.6370697
  11.3230619  58.9026566  16.9891510  45.3832817  31.6419086   2.9731987
  45.0691795  31.4499264   2.0896187  45.6713905  32.5537987   2.9321153
  49.3654938  33.8266449  23.4624062  48.6339340  34.3242149  23.0970650
  48.9903564  33.3649368  24.2122955   9.4114513  62.9430351  12.9064283
   9.9155598  62.6860161  13.6784697   9.5471916  62.2292938  12.2832298
  21.6677990  60.3650818  78.5823669  22.4275379  59.8995895  78.9321442
  21.9424477  61.2814598  78.5499039  78.8510895  26.2800579  39.2411461
  78.3432922  26.6059761  38.4980736  78.3410645  25.5417843  39.5744019
  19.2617493  43.5917435  64.7143173  19.2452488  43.9171944  65.6143417
  18.4139900  43.1624374  64.5992813  77.2335434  29.9167175  43.0108109
  76.6262207  29.3986320  42.4826241  77.9966507  29.3499451  43.1233597
  76.5106430  47.9616508  47.0123634  75.8896103  47.2875824  46.7363548
  76.4096832  48.6597404  46.3652878   9.2179432  31.9554634   0.9973445
  10.0927010  31.9059505   1.3828043   8.6319914  31.6606159   1.6944516
  11.4712791   4.7750945  22.3308964  12.0664883   4.6609674  21.5899963
  11.7695322   5.5791430  22.7560825  22.0289955  63.5143547  47.7168694
  22.4686279  62.9084244  48.3133621  21.6121540  62.9496117  47.0660667
  14.2339277  68.7297058  71.8197403  13.5710325  68.8207169  72.5042267
  15.0625191  68.6698227  72.2952194  38.8407707   5.8232532  77.0102615
  39.2343063   6.5815067  76.5785141  39.3911896   5.0855651  76.7474213
   3.8848138  12.0158424  44.3692894   4.7761292  12.3634634  44.4000854
   3.9870994  11.0791445  44.5377121  19.2415009   9.8660107  19.3878002
  18.3149376   9.8892889  19.6269016  19.4652386  10.7789841  19.2070961
  61.0632744  20.7452126  45.3566360  61.2850494  19.8666973  45.0479965
  60.1459465  20.8615246  45.1092300  59.3063507  58.9135399   6.9035220
  59.6270905  58.1899300   7.4418011  58.4346466  58.6351166   6.6227355
  79.2904892  61.7603149   3.2133067  80.1099243  62.1161919   2.8696473
  78.8055878  61.4822617   2.4362659  35.9667854  20.6928463  65.8413696
  36.4674454  21.5086555  65.8466339  36.2343445  20.2528286  65.0345078
  80.6247406  21.9516983  73.6781845  80.8773804  22.8534622  73.4801254
  81.4424362  21.4568710  73.6257935  85.5878296  23.2261543  75.9664307
  85.3938065  23.9629612  75.3870316  85.4018173  22.4502296  75.4376831
  42.4942436  49.8899536  42.6259384  41.8372078  49.5028229  42.0474358
  42.3512535  50.8336105  42.5531502  23.4240570  49.0683975  88.3609390
  23.6647720  48.1874809  88.6477661  22.5488186  49.2072868  88.7227402
   1.5905941  37.0213585  88.2084961   2.0384200  36.4415588  88.8245392
   1.3359503  37.7792664  88.7347717  80.3101273  55.6257973  44.6740227
  79.7040024  55.7616997  45.4022865  80.9007568  54.9371758  44.9792976
  53.0031967  37.3682327  33.3755302  53.7981415  37.8935051  33.2839699
  53.1853104  36.7845345  34.1119804   3.9872441  68.4443741  40.9217453
   3.6045692  68.4841690  41.7982216   3.2352619  68.3585663  40.3357506
   6.4827657  48.4781876  30.3617268   6.4084158  47.5665092  30.6437607
   7.1678362  48.4670105  29.6933060  36.0475349   4.5763497  54.7892876
  35.9689865   3.6366537  54.6248703  35.2492638   4.8036246  55.2660942
  75.0123672   2.6872523  86.9553757  74.4475327   1.9192152  86.8698730
  74.6076660   3.3461883  86.3912354  47.9535370  44.1449623  36.0961609
  48.6226158  43.6930275  35.5820465  47.3117180  43.4658508  36.3037949
  79.8667679  35.2495003  20.1511288  80.2888336  35.5824280  20.9431210
  80.1151123  35.8719368  19.4676571  79.6284409  62.1559334  87.0554047
  78.9660263  61.4999123  87.2723694  80.4599152  61.7428474  87.2883072
  65.6435547  20.7208710   6.8614764  65.1074142  20.0276031   7.2464004
  65.7451630  20.4641132   5.9449711  48.4612694  49.5077629  72.8917389
  47.8301697  49.2900887  72.2057648  48.5350380  50.4614258  72.8554611
  21.4821815  54.0945206  73.9084778  20.9213524  53.3667107  74.1767960
  21.6107883  54.6051178  74.7078400  34.3596878  38.2868156  85.4501190
  34.0643692  37.5015602  84.9892578  33.7013435  38.9493217  85.2406082
  81.8834915  44.0117722  79.7790756  82.0649261  43.7837257  78.8673096
  82.6040955  43.6194267  80.2720566  56.9701729  42.9782372  10.9597273
  57.5517807  43.5331459  11.4793816  56.3001060  42.6878853  11.5785484
  62.4510078  16.5149384  46.4211235  63.2688675  17.0085449  46.3603973
  62.6275558  15.8383703  47.0748177   0.9477417  48.4063911  53.1842804
   0.3865618  47.9865799  52.5323067   0.5825279  49.2855186  53.2841988
  45.9556274  12.2420263  72.5952377  46.2427864  13.0804672  72.9568787
  46.3705711  11.5852680  73.1544495  51.0593452  60.5631332  55.6550980
  50.1703644  60.3360977  55.9278603  51.4363708  59.7360802  55.3549843
  28.2346935  44.7291374  44.5598412  27.5288620  44.9451904  43.9504547
  27.9811497  43.8835716  44.9299355   1.1716118  58.6560783  63.8885193
   0.9033893  58.6687737  64.8072815   1.9592738  58.1123161  63.8764496
  79.5426102  40.7645988   8.7669172  78.8633804  41.4369431   8.8201714
  79.1504135  39.9947662   9.1789494  14.3858948  23.3191338  21.2956238
  14.0384054  22.5881233  20.7846375  13.6714401  23.9556999  21.3194790
  69.4561539  10.0560789  45.6958694  69.3339386   9.1452360  45.9635658
  69.6209793  10.0088930  44.7541504  52.5533905   3.9990702  15.2838964
  52.3688049   3.1344080  14.9171286  53.1602707   3.8290679  16.0043335
  44.0732613  62.4333344  60.6224442  43.8820953  61.6913719  61.1961823
  44.2636337  63.1558876  61.2206917  75.5216217  37.2686081  27.0653381
  74.8638611  37.8718338  27.4113121  75.7763824  36.7347374  27.8178749
  15.5692177  10.3327875  88.9457474  16.0279636  11.0283546  88.4746094
  15.2627430  10.7504930  89.7506256   4.2756596  46.8398705  33.1212425
   4.2589545  47.7965889  33.1465340   5.2051916  46.6153488  33.1635818
  64.7167511   6.5048041  13.2897558  64.7238617   5.5894494  13.5695896
  64.6470642   7.0035739  14.1037617   8.0582829  49.2775726  53.6725082
   7.3011351  48.8030090  53.3293648   7.9629126  50.1642647  53.3247795
  77.9006348   0.1555745  42.1385193  78.8143997  -0.0449429  42.3411369
  77.9431076   0.6936719  41.3480263  58.5037918  44.0398369  74.8213501
  58.1361008  44.3785934  74.0050964  59.4045410  44.3635483  74.8308105
  54.8232460  42.9113274  69.7593384  54.6854477  41.9707527  69.8714371
  54.2555161  43.1509514  69.0268860   7.9547987  12.9146786  25.8043213
   7.9721842  11.9891062  26.0477257   8.7705431  13.2703972  26.1568222
  82.4588394  32.1334953  27.4676876  81.8195038  32.8457642  27.4800072
  83.3067856  32.5714684  27.5411301  46.3661842  37.7237053   4.7092161
  46.4958878  38.4891891   5.2690778  45.8184319  38.0418701   3.9916027
  30.5330448  57.6896362  59.1698036  30.7103081  58.5429726  58.7740440
  30.1679916  57.1660004  58.4565163   1.4660623  54.9418793  30.8698368
   0.7264411  54.5336227  31.3198566   1.0628697  55.5310135  30.2321930
  86.8766174  18.7168159   4.5929918  86.3070297  18.7905846   3.8272536
  86.4648438  19.2751675   5.2524753  44.1604958   9.9204893  72.7246552
  44.9920044  10.3918867  72.6735840  43.8763618   9.8367357  71.8144379
  12.7493792   2.7220476  24.0434780  12.4436340   2.0501485  23.4341316
  12.6976061   3.5380991  23.5458736  19.4138947  13.8351707  69.5491791
  19.5817375  12.8934069  69.5153885  19.7332993  14.1656551  68.7095413
  30.4209423  59.8340721   6.7535505  30.6999989  60.4393349   6.0665159
  29.5539169  60.1473846   7.0111036  25.1279888  11.8259058  60.1322365
  25.3362427  12.6936960  60.4783592  25.3882332  11.2218781  60.8276863
  11.5998411   6.9849052  85.8664780  12.1832342   6.7553239  85.1431656
  12.1060104   7.6008925  86.3961792  20.4202805  36.9192772   5.8077550
  20.8794746  37.3849792   5.1088300  21.0576611  36.8674469   6.5199990
  52.7155228  15.4288683  32.2397232  52.9338799  15.3894806  33.1708527
  52.0537338  14.7477617  32.1198883  58.2317200  38.4657669  37.2989082
  57.6840439  37.7663116  36.9424782  57.6195526  39.0356293  37.7644615
  50.0735474  58.2081146  39.3476067  50.3042374  58.0412521  40.2614822
  49.2480392  57.7407455  39.2197876  58.3451920  13.5074520  63.4067078
  58.1679459  14.0945807  62.6717949  59.1120758  13.8862886  63.8363647
  77.1184006  32.2328110  14.9331579  76.8502808  33.0086555  15.4255133
  78.0314102  32.4008522  14.6999159  85.9622269  54.1631279  28.5304832
  86.5870285  54.8800888  28.6391888  85.8044052  53.8460693  29.4197521
   5.1116805  28.0681114  57.0616531   4.1683464  27.9070930  57.0822678
   5.1964865  29.0121670  57.1950722  71.9302750  53.3066940  12.9115791
  72.2369308  53.6445274  12.0701151  72.0450668  54.0373383  13.5192089
  12.9746637   1.4614700  40.9400978  13.6174831   0.7915716  40.7071800
  12.2164145   0.9676010  41.2521629  55.1318359  36.7454185  14.1062193
  55.0091095  36.1589394  14.8526859  55.7445679  36.2816811  13.5354834
  45.9480591  41.8572311  56.0775299  45.8686295  41.3847084  56.9061699
  45.5220566  41.2888412  55.4359016   8.4550056   8.3429193  56.2088089
   8.8840704   7.5189776  55.9780350   8.0281658   8.6254339  55.3999672
  86.5378189  62.8400993  13.0365067  86.9179230  63.5441856  13.5618773
  86.4053802  63.2305603  12.1726589  10.7144089  36.3730659  63.7762032
  11.3125763  36.8739281  63.2216187  11.1324205  35.5167732  63.8671150
  22.9815159  54.3011971  39.3960571  23.0827770  54.2163315  40.3440933
  22.9333897  53.3994408  39.0786476  37.3708458  57.9607697  17.7343407
  36.5845795  58.4088326  18.0461960  38.0488396  58.6364555  17.7377777
  20.4368877   1.4846985  14.7157516  19.5445900   1.1495563  14.8035889
  20.5059586   2.1613834  15.3892193  82.0476990   0.2919566  37.9001579
  82.1084747   0.6974586  38.7650909  82.9573669   0.1658620  37.6302910
  31.5329247  55.0868149  46.9258499  32.1660767  55.7990265  46.8358383
  31.5225353  54.6655312  46.0664062  72.8318710  44.6309128   0.3006476
  73.5120392  44.6827011   0.9721548  72.3350143  43.8436203   0.5232195
  81.5504074  33.7201920  38.5958023  81.7832184  32.7991943  38.4783783
  82.0232773  34.1773186  37.9003448  60.3554268  65.0180893  31.3267593
  60.9421616  65.7609177  31.4688244  60.3831482  64.8682938  30.3817596
  64.4399567  45.5664864  28.8106289  63.5127792  45.5139618  29.0425949
  64.8253784  44.7735138  29.1832905  82.6264496  42.4463234  59.6002579
  83.4411316  42.7329063  60.0130386  82.8697815  41.6612587  59.1096535
  60.6019554  27.8667831  22.3313713  61.4462662  28.0674686  22.7352257
  60.2150269  28.7227192  22.1472797  42.4449234  55.6788406  31.6880760
  41.6963539  55.5728912  31.1010056  42.5835991  54.8074112  32.0590363
  26.0043869  14.1295986  61.5643654  26.5239048  13.6822481  62.2323570
  25.9953232  15.0456934  61.8417091  22.1854095  63.2324524  85.5332336
  22.2786846  62.8392525  84.6655273  23.0537586  63.5826797  85.7320862
  54.2499695  37.7111740  18.2505932  53.6313820  38.0437431  18.9009609
  53.6986122  37.4014816  17.5320320  58.8836441  37.8940773  69.8275681
  59.2075424  37.4748077  69.0303574  59.6191216  38.4237366  70.1354065
  31.2909145   2.5050352  43.4093552  31.1542873   2.6462781  42.4725456
  30.9146595   3.2804012  43.8258553   9.8513002  44.6542816  31.7256508
   9.9849672  44.0813026  30.9706287   9.4120541  45.4251938  31.3664970
   2.8635614   3.0347998  61.2764320   3.8115399   3.1410508  61.3556786
   2.5379760   3.1131883  62.1731377   3.0374146  32.6310844  65.6467209
   3.3331811  32.7004776  66.5544281   2.5925407  31.7846355  65.6038132
  75.4145432  47.7914276  33.7401505  74.7726593  47.9205627  33.0419083
  74.9060059  47.8582001  34.5483322  77.2828217  14.7984028  50.5312996
  76.9729691  15.5374756  51.0547409  76.9641571  14.0250168  50.9966545
  59.9662399  63.0066414  44.7911530  60.7374802  62.8506241  45.3362007
  60.1319923  63.8543396  44.3786430   4.7650990  23.9034653  43.2680283
   5.1637530  24.2176876  42.4565048   3.8697684  24.2409649  43.2413902
  23.3144455   7.3751616  28.4892273  23.0642796   7.8869801  27.7200146
  24.1055679   7.8040919  28.8153820  10.7856445   2.1672988   4.7759929
  10.8229094   3.0695395   5.0934901  10.2273264   2.2094579   3.9996319
   4.8588181  65.8416443  12.5068007   5.6080260  65.6460342  11.9440784
   4.4153829  65.0004425  12.6162386  45.8899460  68.8067017  56.6046562
  46.5301094  68.1815414  56.9446526  45.5073624  68.3683014  55.8446121
  63.6279488  50.9161263  28.5744915  63.0038300  51.5364342  28.9512253
  64.2026443  51.4549713  28.0308018   5.6779485  43.8765793  13.4237604
   5.1492991  43.4313164  14.0859556   6.4602652  44.1633377  13.8949108
  46.5555954   2.2944262  47.8007927  46.9249649   2.1226337  48.6669846
  46.2039528   3.1825736  47.8622169  49.5709763  42.9840164  34.3458481
  49.5123940  42.2365494  33.7507858  50.1851349  43.5818672  33.9196815
  49.2703819  45.3166771  69.5431366  48.4567833  44.8357315  69.3915634
  49.8750839  44.9785767  68.8826370  16.3122787  43.6736641  83.2223129
  16.7670975  44.3534279  82.7250290  15.6424551  43.3456497  82.6223297
  36.0164375  32.7687912   0.7112807  36.9539566  32.5827713   0.7631162
  35.9686432  33.6783524   0.4169302  85.1586151   4.5703106  68.5728683
  85.7199326   4.2639146  69.2851028  85.1330109   5.5211306  68.6801834
  79.3618393  50.4182434  87.0177612  80.2529907  50.2418022  87.3193436
  79.0276260  51.0745735  87.6291275  36.8853035  14.9963131  74.4180527
  36.0650864  15.1172361  74.8964386  36.6909904  14.3107347  73.7789459
  54.8461456  52.0329628  16.0483646  54.0988159  52.2254601  16.6146450
  55.4121399  51.4737930  16.5805397  19.8713551  31.2971039  22.2737427
  20.4965725  31.9337788  22.6201248  19.7649822  31.5416183  21.3544331
  19.8567715  30.0885468  84.9239883  20.6889477  29.6189938  84.9808502
  20.1057529  30.9983540  84.7612305  72.0787888   6.2351971  43.3998222
  71.8907166   6.8048658  42.6539421  71.2939529   5.6951551  43.4926300
  15.6150026  42.2244263  21.8939228  16.3156605  42.8318176  21.6564617
  15.0912933  42.1396217  21.0971985  46.3478584  65.0983047  58.4291077
  45.9768219  65.1253128  57.5471573  47.2224770  64.7281265  58.3097610
  35.8796234  69.9050064   3.2403860  34.9713135  70.2055817   3.2112069
  36.3085060  70.3684616   2.5210135  79.5932693   7.4776211   3.9682536
  78.7237167   7.0787258   3.9997528  79.5500259   8.0885391   3.2326307
  59.2675285   2.6414459  78.2444534  59.1977882   2.8874769  79.1668625
  59.2285042   3.4725926  77.7712631  29.1079788  29.2475052  84.0268860
  29.7654572  29.3861771  84.7085953  29.4405537  28.5063629  83.5205917
   4.9608645   1.2971722  31.3088779   4.0965385   1.1993525  31.7083817
   5.0625091   2.2409976  31.1860199  65.8582535  70.3001633  46.6167526
  66.0832138  69.9037476  47.4584618  64.9523392  70.5904007  46.7231903
  55.1355972  13.7622757  35.0236282  54.9493980  13.3849421  34.1638718
  54.2732811  13.9140177  35.4104385  15.4017143   2.3240466  62.5290794
  14.8246689   2.7892687  61.9234276  16.1560440   2.9038353  62.6342697
  68.1587753  23.9382038   3.3988204  68.0991974  24.1544380   4.3293715
  68.7740707  24.5792561   3.0428774  50.8918877   2.9551427  34.4134331
  51.7246780   3.2629070  34.7711639  50.9944229   3.0350487  33.4651031
  85.0906067  18.8025246   2.6337738  85.2776794  17.9975281   2.1508491
  84.5141144  19.3008575   2.0545070  84.1162796  57.9505577  49.6984444
  84.6910019  57.6164360  50.3871307  84.6950455  58.0856400  48.9480972
  64.4717331  45.0035095  21.2112732  64.7342072  44.2419930  20.6941319
  64.8134766  44.8271065  22.0878124   2.4764278   7.0148163  50.5261917
   2.4156671   7.7658548  49.9358673   1.8918471   7.2328444  51.2521133
  55.1993256  42.1757469  73.5306625  54.7425537  41.4410324  73.1210403
  55.2953072  41.9171028  74.4472427  60.9873314  65.4164047  24.8262405
  61.0574226  66.2940521  24.4506664  60.1521149  65.0820160  24.4993916
   1.1502460  44.7066078  56.8147850   0.3876680  44.3463287  57.2674522
   1.7429936  43.9617958  56.7140884  67.8337097   7.2166543  40.0309067
  67.3064499   8.0085487  40.1364098  68.6508331   7.5235481  39.6380234
  32.0828629   0.7686826  61.8862152  31.7935905   1.1744093  62.7034912
  31.4491844   1.0665250  61.2335510  86.4416428  52.6427994  14.8875513
  87.2068329  52.6808662  15.4613676  86.6991882  53.1405334  14.1115580
   2.4162886  12.1370916  75.2755890   1.8344897  11.6647167  74.6800995
   3.1974237  12.3189831  74.7531128   5.0397429  40.2433472  25.5743294
   4.2157121  39.9453049  25.1891327   5.6004958  39.4676094  25.5701370
  56.6935768  46.4057236  35.4556732  56.2498550  45.9439697  34.7442474
  57.2706032  45.7484665  35.8446312  84.1525269  29.2548714  75.7702866
  84.7715988  29.8165665  76.2366333  83.3164444  29.7167892  75.8321991
  29.3803368  21.3753185  78.5987549  28.7461414  20.9034843  78.0589371
  30.2121143  21.2721310  78.1364441  80.0882645  16.5540752  21.8179932
  80.5441513  16.5877361  22.6589851  80.0569839  15.6226425  21.5996189
  68.0497742  21.1611996  75.8617325  68.8100586  20.7441959  76.2670746
  67.8884659  21.9377670  76.3975983  81.3877106  33.0452538  64.8974152
  82.1736221  32.5062714  64.8075714  80.8330688  32.7844162  64.1621857
  34.0561790   1.9974449  67.6288223  33.4924622   2.7306557  67.8755112
  34.0533447   2.0046296  66.6716537  60.6310539  46.4368057  78.4454651
  60.2419701  47.2449074  78.1110764  61.2073250  46.7236977  79.1538696
  80.1596069  44.3949623   4.9897738  80.7861557  43.8923721   5.5104208
  80.0143204  45.1943092   5.4959011  28.5835724  10.1456852  75.6894913
  27.9487095  10.8560114  75.5966568  28.7693253  10.1115856  76.6278763
  50.6407738  26.1064949  30.2398891  50.8500175  26.9220104  29.7844963
  50.7079010  25.4311905  29.5648403  43.7791824   5.2376256  61.2301407
  43.1196022   4.7101192  60.7796707  43.6815376   6.1134439  60.8564568
  85.1397552  60.3738899  86.3179932  85.2406235  59.4412880  86.1274414
  85.9825668  60.6350670  86.6890411  63.0877953  55.5841064  46.6756668
  62.2703781  56.0759163  46.7542992  62.8322029  54.7591095  46.2630119
  51.4097633   0.9100600  62.6051941  51.5819702   1.6893766  62.0767632
  50.9188576   1.2358782  63.3595734   2.1583192  61.0422592  80.9892960
   1.7413492  61.4251099  81.7611694   1.5207909  60.4072647  80.6628418
  22.7221050  53.6063385  42.0740318  23.4896259  53.0344162  42.0668297
  22.5057144  53.7051201  43.0012054  32.6628571  57.5868721  45.6560593
  33.2583351  57.2602921  46.3305855  32.7187920  58.5397148  45.7281265
  26.3338051   5.9977722  89.0466156  25.4417114   5.8733916  88.7226868
  26.4774151   6.9427838  88.9960022   9.8576632  60.2583237  81.8874435
   9.2573109  59.5128059  81.8907242  10.7268000  59.8663139  81.9720688
  17.9297886   8.7149839  16.1626587  17.5055313   8.6260710  15.3092346
  18.5129280   7.9581070  16.2202568  14.4392786  19.1217556  17.0202198
  13.5604477  18.7435284  16.9914036  14.9876919  18.4260159  17.3827419
  11.8499069  45.7448082  79.8783188  11.6688633  46.6028442  79.4946136
  11.7839270  45.1350555  79.1434174  37.4437866  39.0641060  72.3357010
  37.0127563  39.8383064  71.9736786  38.3789787  39.2554321  72.2646866
  -0.0832672   5.9737582  84.4272614   0.8662754   6.0489945  84.5218124
  -0.3064897   6.6042967  83.7425537  22.8106918  36.9871902   7.4317670
  23.2589169  36.2301483   7.8088827  23.4003849  37.2966766   6.7442288
  22.9506302  44.7703743  65.8474655  23.6089554  45.3964996  65.5461273
  22.1750679  45.3035965  66.0218582  70.3708801  63.2999535  85.7679138
  70.7552109  63.7155457  86.5397949  71.1050262  63.1926270  85.1631470
  13.4382696   5.0537095  20.4487839  13.8966665   5.8935089  20.4777927
  13.3747072   4.8476233  19.5161953  37.0221748  67.0918503  37.5606575
  36.2850380  67.6548080  37.7971687  37.4901428  67.5815201  36.8842964
  36.1186142  26.9476128  81.6501846  36.2968483  26.0666199  81.3210754
  36.8465233  27.1335258  82.2433319  82.4151077  21.1606770  26.5268459
  81.9832840  20.3078156  26.5757065  82.9016800  21.1359234  25.7029133
  26.0606461  67.0682907  15.1429834  26.1421852  66.7864685  14.2318525
  25.7084103  66.3042068  15.5994234  13.1214027  14.2340546  16.8984966
  12.8912659  14.8385553  17.6040783  12.5122604  14.4478140  16.1917534
  86.2723007  33.3330269   9.0031509  85.6676941  32.6064034   9.1537914
  86.3667603  33.7477264   9.8606672  44.7178841  49.1670876  72.7079086
  44.1719170  48.4874191  72.3126755  44.2407532  49.9811668  72.5471268
  70.6851044  35.2760582  33.0081253  70.1470490  36.0094452  32.7099991
  70.0537186  34.5980873  33.2488365  47.6007881   3.5640745  66.7938995
  47.0515823   3.6240439  67.5755692  48.3695068   3.0698736  67.0786209
  71.6491699  40.4567680  74.8162994  72.3595428  41.0062256  75.1475067
  70.8655624  40.7882843  75.2548065  41.0921059  47.8050079   9.8592005
  41.9697723  47.5590668  10.1515121  41.2402878  48.3357048   9.0764904
  74.7101822   5.1235676  28.8057194  74.3452988   4.4620142  28.2179775
  75.1694794   4.6198144  29.4776669  55.6732559  20.2256680  86.9729691
  55.2931366  20.3763733  86.1075058  56.3644333  20.8835030  87.0488510
  27.7582989  15.0967274  12.7496748  27.4610977  14.4977856  12.0647135
  26.9858971  15.2362175  13.2975512  36.9300270  66.9155045  62.4605217
  37.3615646  66.5433578  63.2296257  36.2289581  67.4597015  62.8191185
  35.7307510  60.9400940   9.1945753  36.3193321  61.1764069   8.4776630
  34.9155693  61.4013176   8.9971333  30.1260548  34.9147682  82.5401382
  30.8849182  34.7503777  83.0999069  29.6297474  34.0966110  82.5631332
  70.5356445  49.9312820  79.4552231  70.5241623  50.8756638  79.2994995
  70.4798126  49.5438118  78.5817337  74.3283386  61.0330238  44.5675697
  74.8080063  60.2677383  44.8845787  74.2800140  60.9096222  43.6195869
  49.2268028  26.7877254   1.6623693  49.4239540  26.5894604   2.5778224
  49.7821503  26.1892490   1.1627214  84.6852951   3.7408054  77.7919159
  84.5872650   3.7634170  76.8400116  84.1227798   3.0193586  78.0735550
  66.8812408  20.5701447  40.9064674  66.0785446  20.7344074  40.4115715
  66.8474960  21.1941128  41.6315613  71.5329971  42.7173538  77.8727951
  70.6721115  42.5194550  77.5040665  71.8606110  43.4423485  77.3405457
  12.8920546  42.9830132  44.2691803  11.9817982  43.2142296  44.4541245
  13.3361979  43.8243446  44.1637077  42.6569519  67.1106339  18.7156124
  43.5334358  67.1976318  18.3408604  42.0671959  67.3740692  18.0091972
   1.1455269  20.5733967  14.3878803   2.0041869  20.1583900  14.4697561
   0.5904154  20.0994530  15.0071211  80.4022751  40.9805336   6.0754600
  81.0465469  41.6645279   6.2579389  80.1782990  40.6266937   6.9361944
  84.9582672  34.6915054  31.4365959  84.1410675  34.7070694  31.9347687
  85.5754929  34.2288170  32.0033340  73.8527985  23.8783569   6.7672205
  72.9726562  23.8252735   6.3947115  73.7088776  24.0383682   7.6999135
  70.5472946   6.7703862  30.2536373  71.3598785   7.2752347  30.2863560
  70.1893005   6.8351059  31.1390057  33.4119225  43.9216995  17.1801281
  33.8203850  44.4893265  17.8337269  32.9190254  44.5195885  16.6181526
  54.8487167  30.6271400  29.0366707  54.0707130  30.3902607  29.5414772
  55.4668083  29.9149475  29.2009163   1.0124451  59.5103989  46.3232117
   1.8856347  59.3018951  45.9911003   1.1735420  59.9963493  47.1320000
  58.2604752   4.4878860  44.0667877  57.3565979   4.1751342  44.0291214
  58.4136238   4.8817544  43.2079277  11.2566643  68.3649979  18.9991665
  10.3071871  68.3419189  19.1182976  11.3790569  68.3630905  18.0498257
  19.0994205  26.6271000  87.6940842  18.7281704  26.2455521  86.8985825
  19.9839687  26.2646332  87.7433243  83.3013535  59.2755127  83.6354523
  83.1108780  59.1063576  84.5581360  82.4567642  59.5206718  83.2575684
  69.0662155  37.3587952  85.8279114  69.2030258  36.4197922  85.7022400
  68.1555176  37.4320602  86.1133804  85.6029739  42.6069374  86.5402679
  85.8103104  41.9057808  87.1580200  84.7208862  42.4006577  86.2310715
  18.9360256  25.4259300  60.3999710  18.1774826  24.8757248  60.2047310
  18.5612507  26.2699795  60.6516762  81.0683594  27.1297245  70.0971832
  80.7261963  27.9543781  70.4422913  81.3439636  27.3395061  69.2048416
   1.7004679  21.6400375  45.4124260   2.3940473  21.4751053  46.0511551
   2.1603951  21.9623184  44.6372910  51.3932953  65.7561874  37.1248779
  50.5829926  66.0983505  36.7472992  51.3232460  64.8070831  37.0223312
  20.7640762  11.1149950  87.5918579  21.0489712  12.0244827  87.5029831
  20.3894310  10.8968849  86.7384491  19.8625259  62.8319931  21.2925320
  20.3663254  62.6675301  22.0896339  19.8309765  61.9838829  20.8498688
  25.4762478  21.5055561  78.9033432  26.2913380  21.3661919  79.3854599
  25.7494335  21.9238491  78.0868683   4.9502378  55.3147049  47.4087639
   4.7000275  56.2330093  47.5104752   5.5235238  55.1386185  48.1547966
  15.1098118  28.6077194  86.1556396  15.6385803  28.0439148  85.5910492
  15.2872152  29.4945850  85.8422241  17.6682129  52.1977158   2.4322875
  18.1857243  51.4734955   2.0802627  17.2414780  51.8325768   3.2074022
  54.9552116  66.5772858  64.3046112  54.0942001  66.4567337  64.7050629
  54.8252716  66.3493118  63.3840828  77.6151581  60.9985962   0.9682738
  76.8118744  60.6315842   1.3374234  77.3701477  61.8817291   0.6920854
  38.3009224  60.9266167  59.8881073  37.3919067  61.1596184  60.0768738
  38.2546768  60.4182434  59.0783844   2.6279678  18.4003162  24.9166164
   3.2325096  18.6851006  25.6019325   3.1542876  18.4019833  24.1171055
  72.3866882   7.2734919  40.8191719  73.1162186   7.7321696  40.4024773
  72.4957199   6.3600254  40.5547409  60.0465736  48.0577393  49.5451851
  59.4028244  48.1152000  50.2512398  59.7193527  48.6560097  48.8734474
   1.9100039  58.2516937  66.8666153   2.5540438  57.6464500  67.2341995
   2.3569236  59.0980530  66.8534470  75.2145920   0.4149872  56.9753532
  74.2722855   0.3014308  57.0993843  75.5762482  -0.4664581  57.0675278
  55.5260582  19.1051083  15.0936575  55.3761978  18.4230328  15.7482939
  56.2916374  18.8036003  14.6045589  28.6164474  67.5843430  32.5264435
  28.2978306  66.7313461  32.2313042  27.8496037  68.1553879  32.4806747
  82.0007706   6.4369035  49.6457977  81.5378952   6.1247945  48.8682594
  82.6660767   7.0345936  49.3046684  63.8445091  56.0251770  42.2103729
  64.1021118  56.3319016  41.3410072  63.8586922  56.8116684  42.7557716
  25.4670219  17.5588551  69.3680801  24.8367958  17.7435570  68.6717072
  25.4958649  16.6033802  69.4177704  61.7354584  44.3936844  82.5242538
  61.2433472  44.9985008  83.0794678  61.5077286  43.5250626  82.8557129
  16.5909100  63.2419014  25.2357178  17.0102406  63.9026489  24.6845303
  17.0720596  62.4353409  25.0508251  50.5466881  51.3955231  73.2090912
  50.8671417  51.3307762  74.1087265  50.3597794  52.3264313  73.0878296
  71.9132080   6.1159058  46.4593735  71.3900223   5.3399191  46.6602554
  72.4765320   6.2297096  47.2248459  21.5386429  29.0712891  14.3932743
  22.3778572  28.7172260  14.0990105  20.8906269  28.4361248  14.0885220
   9.1660376  12.5741463  78.6354752  10.1197157  12.5789795  78.5535812
   9.0042095  12.7563772  79.5611343  37.4716339  43.0196571  61.7792282
  38.2671738  42.5484085  61.5316849  36.7784729  42.6063843  61.2644806
  64.9281845  30.4238815  87.1776810  64.2833405  29.7227879  87.2718506
  64.6180954  30.9357567  86.4306412  83.9738312  30.1309471  84.0004425
  83.4440536  30.9273129  83.9634094  84.0583801  29.9427776  84.9351501
  36.1488152  49.8106194  76.4614487  36.4975243  48.9977493  76.8273392
  35.7321205  49.5449142  75.6416931  12.0377541  36.6341324  51.2702637
  11.7593555  36.3637466  52.1452599  11.4752970  37.3794479  51.0596046
  61.8811493  66.5831528  71.7011032  62.2383080  66.9923248  72.4892883
  62.6343346  66.1606445  71.2882690  77.8969574  33.9626732  24.0437641
  78.4204102  33.5038223  24.7007942  77.6886444  34.8045845  24.4487572
  79.2344589  33.6721382  44.6775589  79.6901169  33.8152733  45.5070915
  79.8411331  33.1435204  44.1591568  52.5159492  27.7974644  18.0022659
  53.2471581  28.3463554  18.2856102  52.8590813  27.3089123  17.2540627
  26.7679825  20.0694027  88.2054520  26.4179459  19.9446659  87.3233261
  27.6133022  20.4973698  88.0693970  14.0041933  55.2166328  67.3002243
  13.2038021  54.7447929  67.0700607  14.5618000  54.5561104  67.7113342
  69.6836090  11.6486912   3.8376977  70.1920242  11.3704939   3.0758917
  70.3027649  11.6084042   4.5665698   1.4481032  55.9747391  45.2715645
   0.6153170  55.9737816  45.7434731   1.8352821  56.8271790  45.4707413
  41.1532211  37.2080765  70.3345413  41.4830513  36.5613136  69.7107239
  40.2127571  37.0364952  70.3826904  67.2993393  38.9376526  14.7941437
  67.1472321  38.0162811  14.5839806  67.1000443  39.0064049  15.7278385
  59.9297867  23.4100895  22.3667507  60.1218681  24.3389816  22.2383232
  59.0232925  23.3105164  22.0759182  78.8998718   2.0643187  49.5901566
  79.3065262   2.8629427  49.2539062  78.9677353   1.4389300  48.8686867
  42.5168037  55.0942268  16.3514843  42.7006149  55.8098412  15.7429266
  41.8599281  54.5614395  15.9032879  67.1319199  27.0985336   2.1944201
  67.4178619  26.3936672   1.6133618  66.2617111  27.3352470   1.8735878
  11.0992270  66.0967712  72.0468750  11.5120153  65.9648590  72.9003601
  11.7718735  65.8451691  71.4140472  58.9969978  36.3173447   1.3440050
  59.4547424  35.9299622   2.0900848  59.6638336  36.8405647   0.8992570
  49.6655922  48.5872650  17.9395256  50.5580978  48.2549706  17.8433533
  49.5779266  48.7710419  18.8748169   5.9393106  -0.2837998  29.1440697
   5.6551480   0.1378920  29.9550323   5.6398659   0.3042227  28.4506760
  14.8489647  32.8403015  57.6863670  14.7290897  33.7511864  57.9549713
  15.6445885  32.8502197  57.1542816  61.5272255  22.2938309   2.9073908
  62.2766609  22.8321972   3.1618350  61.8037682  21.8660374   2.0969915
  67.3337479  16.5765629  88.6480942  68.0718536  16.8863144  89.1729660
  66.5685349  16.7134438  89.2066040  71.2944412  31.4213829  86.1068344
  71.1729202  32.1513901  85.4997482  72.1906357  31.5230637  86.4273529
  27.4993439  59.6985092   3.3877330  27.9751072  59.0158119   2.9146533
  27.2899532  59.3022919   4.2335458  24.1944466  40.1905861  65.7710342
  24.9251385  39.6408615  65.4879684  24.6070042  40.9094658  66.2498245
  47.9266014   3.5317636  52.1457291  47.8044319   3.1483288  53.0142250
  47.5694275   4.4165354  52.2221336  85.4084473  41.2995300  37.4486160
  84.9951172  41.3159676  36.5854111  85.0723953  40.5032310  37.8599586
  37.3632011   4.4691062  59.1477242  38.0777206   4.7171693  58.5610733
  37.2599182   5.2212014  59.7307472  48.0346642  39.5658302  14.4356203
  48.4876900  38.7344322  14.2950115  47.6203766  39.7581100  13.5944138
  53.0782166  47.5584259  48.4710083  53.3773727  46.8746414  47.8716965
  53.0177879  47.1223297  49.3209496  52.1777992  14.2265978  20.9279976
  51.6139870  13.5943851  20.4822903  51.7583466  15.0728512  20.7726078
  46.0224571   5.3571000  33.9318390  46.9547997   5.4913721  34.1019630
  45.8179092   5.9674988  33.2234573  52.7807846  51.4047852  19.4083405
  53.5570641  51.8792305  19.7058754  52.6309280  51.7246704  18.5187073
  54.7408638  39.4871330  62.4498024  55.0788689  40.3578644  62.2404900
  54.2385864  39.2327309  61.6757011  34.9787445  47.8804169  11.6616287
  34.9559975  48.6291695  11.0657415  35.1385651  47.1268768  11.0934153
   0.5057602  28.5933437  71.0782242   0.8843056  28.0809212  71.7926178
  -0.4287164  28.6338844  71.2815552  76.4994202  66.5032043  36.6425400
  77.1291199  65.8270569  36.3924789  76.7744904  66.7745819  37.5182800
   1.3590816  39.3257294  13.1972256   1.6604627  38.4836273  12.8562527
   1.1058096  39.8223877  12.4191399  51.8999557  38.7232323  76.8661270
  52.6632004  38.1640701  77.0111313  51.6751709  39.0521278  77.7364883
  57.8314819   6.6401968  30.1728764  57.6136932   6.3042178  29.3034401
  56.9909554   6.9103022  30.5427322  47.5067215   4.4434471  62.8186302
  46.6669807   4.8481030  63.0361595  47.4286690   3.5439839  63.1366005
  81.7477722  62.7763710  14.4919577  81.9593735  63.7001991  14.3578110
  80.7912598  62.7510719  14.5179672  73.4953384  56.5523643  37.9397964
  72.7814178  56.7241020  38.5538445  73.0735092  56.1211510  37.1965981
  28.5086174  65.4104156  34.6917801  28.0338745  64.9665451  35.3945160
  28.8900337  66.1820145  35.1105728  27.2063751  56.6055374  64.3076935
  26.8845234  56.6009674  63.4062347  27.9391823  55.9897385  64.3034973
  68.9557114  48.3885498  20.4358177  69.6430130  47.7342529  20.5612869
  68.5292511  48.1340523  19.6175308  54.5181046  32.4478226  41.5199852
  55.2866249  32.1460266  41.0357056  54.3137856  31.7284393  42.1174583
  40.5943832  11.8468885  10.0054474  39.9157486  12.1256390   9.3906431
  40.2690773  12.1225691  10.8624229  64.9288559  22.7781944  51.7354050
  65.4299545  21.9627228  51.7239532  65.3706970  23.3397903  51.0985260
  85.2582932  62.0732841  32.5950279  84.5028687  62.2649460  32.0392990
  86.0149155  62.1985245  32.0222549  29.8078251  43.6221542  62.5725632
  30.6503239  44.0714073  62.5047493  29.5518799  43.4549026  61.6655083
  70.4765625  47.7615395  61.4685669  69.7030869  47.9828987  61.9871788
  71.0223694  47.2446480  62.0611534  37.3180923  51.5606461  38.6835556
  37.3836021  50.9799805  37.9254227  36.6688919  51.1431313  39.2496376
  31.1546116  65.9004822  85.7940292  31.0016670  66.7213669  86.2619934
  30.8858795  65.2195511  86.4107590  18.8531570  10.2310076  57.9663582
  19.0707016   9.7625284  57.1604843  17.9108486  10.1004496  58.0723686
   9.1004448   1.4984461  30.6502914   9.8363914   2.0411198  30.3672371
   8.3242693   1.9751806  30.3561707  31.1053810  12.3759212   0.8225448
  31.0810719  12.8249912  -0.0224271  32.0332298  12.3567438   1.0569832
  40.1091576   4.9905014  81.7590637  40.9583282   4.5847425  81.5844116
  39.7085037   5.0888033  80.8953247  82.0712509  34.4293633  56.1757126
  82.6577911  34.6587410  56.8965416  81.6754913  35.2610245  55.9150505
  69.7260742  17.5779762  21.8944607  68.9340897  17.1641178  22.2375565
  69.4403076  18.0126915  21.0909729   8.5394554  54.6470757  66.6343613
   8.1857729  55.5344048  66.5728073   8.9212627  54.4810944  65.7724457
   7.1513562  20.2108822  59.2730141   7.1338820  21.1480656  59.4669533
   6.4580674  19.8403111  59.8191452  44.9043350  31.9772453  72.0379715
  44.8803329  32.8173103  72.4961777  45.8083344  31.8959770  71.7339783
  76.1814804  21.9398251   0.8946397  76.1803741  21.0896053   0.4549170
  75.7370148  21.7795162   1.7270951  77.5654221  60.4271240  57.6930733
  77.9678802  61.2461090  57.9820709  76.6929932  60.4369888  58.0867805
  75.7741013  27.3971729  68.1296616  76.4975433  26.9184246  68.5342102
  75.5162277  28.0425587  68.7878494  80.1489868  36.0896149  36.3456230
  79.2314529  35.8668671  36.1883240  80.5906219  35.2440453  36.4244270
  55.2850914   1.9639477  75.3756332  54.8499107   1.6113944  74.5993881
  55.9939308   1.3459901  75.5542526   4.9698677  31.3582573  59.0119476
   5.2719307  32.0823326  58.4635811   4.0149093  31.4139690  58.9775581
  11.5355692  26.1856709  12.0035429  11.4006119  25.2592201  12.2028160
  11.3477612  26.2592258  11.0678339  12.1415634  22.9817753  74.7924423
  12.3597374  22.2715702  74.1889191  12.4560852  22.6777096  75.6438293
  50.1334839  15.4985971  27.6394196  50.3599472  16.3216400  27.2063522
  49.1789360  15.4536285  27.5841885  70.6623459  27.8246174  86.6310120
  70.0479507  28.5216675  86.8609543  70.6975479  27.8422432  85.6746216
  35.3739548  32.1225586  71.6338348  34.5899391  32.6700172  71.5909119
  35.9850769  32.6214752  72.1759109  75.4126740  24.7101192  84.8934479
  75.4839783  25.5420609  84.4254456  74.7574005  24.8724422  85.5720444
  20.0651798  48.9950104  36.8411751  19.6845951  49.8629646  36.9754944
  20.5346699  48.8108330  37.6547394  75.6986008  24.0163612  66.4878311
  74.7933731  23.8264694  66.7342834  75.6375198  24.7929516  65.9315872
  10.5064440  61.6184998  30.4909554  10.8542910  62.4038239  30.9134464
   9.5565519  61.7338943  30.5158901  43.4331627  66.5210571  85.2333908
  43.0204468  65.8202972  84.7285843  42.7461395  66.8258667  85.8261185
  26.3123398  68.2220993  12.2386732  25.8670769  68.7128983  11.5479603
  26.5930920  68.8900146  12.8642111  81.2156982   9.9130344  50.4408760
  81.3158646   9.0381603  50.8161049  81.8413773  10.4535608  50.9231567
  39.9099007  44.8534050  24.7307091  40.2730789  45.5872879  24.2349777
  39.3758812  45.2644577  25.4104805  14.9422178   7.4475775  62.1489830
  14.7778625   6.5460453  62.4254951  15.8847485   7.4798107  61.9851875
  24.5975132  60.9633408  54.2829170  24.5554085  61.0626984  53.3318176
  23.7083836  60.7166939  54.5375595   0.6065668  68.2247391  83.8366241
   0.2874203  69.0697632  83.5199051   1.5064660  68.3971024  84.1135712
  47.0078354  18.7950535  60.2038116  46.6046867  19.6407986  60.3998184
  46.7644730  18.2368202  60.9423103  39.4773254  26.7117023   1.9858905
  40.0144157  26.1275749   2.5212040  39.4560509  27.5336914   2.4759042
  40.4833488  34.6568336  41.8447456  41.3830414  34.5632057  41.5316696
  40.3208847  33.8593750  42.3486290   0.8707345  52.3656540  88.9223022
   1.7605809  52.0178108  88.8638992   0.4669692  51.8719864  89.6360931
  72.7760620  27.3957100  70.0839920  72.5112152  26.6395016  69.5603180
  73.4022903  27.0421104  70.7156830   2.6398757  62.7352448  17.2102051
   1.8151094  62.3431358  17.4969883   3.2437654  62.5810356  17.9366817
  59.2989883  64.2264709  28.5212154  60.0687141  63.9459457  28.0261841
  58.5586853  63.8447151  28.0495758  41.8053894   0.9142869   1.5964074
  42.6016121   1.4405009   1.5231603  41.7158585   0.4949581   0.7406159
  78.1331406  50.1228409  29.3981514  78.7452850  50.7160950  29.8335381
  78.1283722  50.4111595  28.4854202   1.8892901  45.6035652  70.5074921
   1.2385596  44.9023666  70.4742737   2.7273417  45.1587944  70.3806839
  69.8118286  60.5981064  32.2539253  70.2887573  60.0958786  32.9146347
  70.4723587  60.8172798  31.5967350  76.7219467  61.1808434  46.5078430
  76.9829025  61.4043121  45.6144218  77.4592133  61.4614487  47.0499878
  18.6878300  32.0368500  65.3293915  19.5522861  32.3601952  65.5831528
  18.3753223  32.6702957  64.6833878  65.3471909  18.0871105  32.6162949
  66.1806946  17.9163094  33.0548553  64.7101059  17.5608292  33.0993843
  74.9785919  10.6937370  13.7012978  75.0769501  10.8779182  14.6354475
  75.8464890  10.8573723  13.3322315  60.8217010  20.5447464  51.9725685
  61.0663719  20.5045986  52.8970985  61.2393684  21.3428116  51.6487160
  79.6475983  24.2121410  30.8237419  80.4109955  24.7638168  30.6531315
  79.9981079  23.3220768  30.8578148  51.2034492  52.6960335  27.2228146
  51.5262489  52.3571014  28.0577736  51.2914200  53.6460609  27.2998695
  79.8138123  15.3150120  73.9315567  79.0331879  15.1080828  73.4177170
  80.3630295  14.5345421  73.8576660   3.3819108  54.8702354  12.9136715
   3.1600959  54.5619850  13.7923126   3.2717428  55.8200340  12.9581480
   7.6604638   5.6572266  75.8979340   7.0623546   5.7351069  75.1546707
   8.0443859   6.5293360  75.9888229  38.5385551  26.7870579  85.8687820
  39.4697800  26.5881882  85.7713013  38.3077545  26.4372768  86.7293777
  58.7500038  66.7076340  55.5082550  58.9501724  67.6380844  55.4061012
  59.4665756  66.3657837  56.0429459  47.0534134  15.0247831  82.4917908
  46.4662590  14.3694201  82.8685913  46.4731140  15.7306910  82.2068710
  73.4523697  65.5358582  55.3253059  72.6628342  65.1271362  55.6799927
  73.5114822  66.3765030  55.7792320  69.4067917  60.4625969  62.7664490
  70.3324585  60.6873817  62.6724586  68.9434662  61.1514130  62.2899017
  74.4599609  62.2534256  67.4273376  75.0571060  61.8260956  68.0413666
  74.3014450  63.1168213  67.8089828  62.0983276  30.9719677  87.1536331
  62.2374878  30.0481071  87.3618393  62.4561043  31.4435368  87.9058685
  85.0292511  54.3845673  10.4072723  85.1382294  54.3467979  11.3574991
  84.1186447  54.1288147  10.2602673  63.3967705  41.4514351   3.6976275
  64.1185455  40.9498367   4.0766702  63.7106705  42.3556824   3.6916718
  68.3069382  48.8494911   3.4601705  67.4702988  49.0942993   3.8555710
  68.2877579  49.2507401   2.5913415  75.0881729  45.4170265  53.3995171
  74.8036652  45.7021599  52.5311928  75.1492538  44.4642601  53.3306694
  37.4316177  36.1325569  69.7110519  36.8892174  36.9110298  69.8375702
  37.3366661  35.9229012  68.7819366  25.7246380  38.9036217  83.5994034
  25.1495037  39.4648628  84.1194611  26.2473488  38.4307175  84.2469864
  64.8277359  27.1078224  33.8327408  64.4415665  26.3421211  34.2579575
  65.7688293  26.9329643  33.8333702   1.4029562  15.2240295  64.3607254
   1.9326102  14.4607220  64.5910797   1.9011430  15.6617727  63.6704941
  84.2682495  46.4844093  23.2260513  83.8822784  47.2966881  23.5538654
  84.0065765  46.4491425  22.3059883  42.4914894  45.1565895  52.4601364
  42.6642838  46.0844078  52.3003616  42.0581551  44.8528404  51.6625214
  26.3070488  65.4632263  37.4052391  26.8844948  66.1645508  37.7067871
  25.5077839  65.9125671  37.1304588  14.2754583  67.4478378  11.6949844
  14.4376955  68.3776855  11.8539944  14.5886545  67.2992096  10.8027687
  32.0956116  30.3684673  66.2730484  32.4002304  29.4613514  66.2489624
  31.1915493  30.3258820  65.9614563  57.4585762  29.9507542  80.4291534
  56.6078568  30.3816166  80.5119781  58.0593414  30.5102100  80.9214096
  54.5194931  10.6638803  37.3425293  55.2849808  10.3669710  36.8504906
  53.8169899  10.7005949  36.6933975  40.8078117  57.6775246  24.8308048
  41.1685638  56.8482857  24.5170403  39.8837280  57.6456528  24.5832481
  81.5181503   5.9406433  41.3103752  81.7027435   6.0889115  40.3829193
  81.4809265   6.8183513  41.6904755  83.3710403  38.7108994  52.6467934
  84.2229385  38.2796707  52.5794029  82.9847565  38.6154938  51.7762108
   6.1719785  52.2961693  57.4024162   5.2503576  52.3109016  57.1442909
   6.1528883  52.3070068  58.3593636  37.3808479  35.4407425  67.2097015
  37.9805298  35.3314133  66.4716873  36.5103912  35.4501610  66.8116455
  46.1413765   9.9210186  68.5004959  46.7865906  10.4478207  68.9720993
  46.6567650   9.4216452  67.8670731  73.4117355  49.8712273   0.2715932
  74.0760574  49.4360085  -0.2627293  72.8257065  49.1660538   0.5464329
   0.9118207  43.0045929  63.6488075   0.9904487  42.8009872  64.5807953
   0.7132192  42.1641464  63.2359657  82.4071808  17.4966850  42.1685867
  82.3388214  18.1713657  41.4930382  81.5146713  17.3986073  42.5003166
  82.5974045  29.9981384  25.6265163  81.8393021  29.9602108  25.0433559
  82.4260559  30.7500782  26.1934910  74.0619202  56.1940613  80.3362885
  74.2544632  55.4620667  79.7503357  74.6651688  56.8850174  80.0626068
  14.4426632   6.3718300  89.3313599  14.8686295   7.0756087  88.8419952
  13.5258055   6.4118514  89.0593262  86.2165298  57.7851524  66.0494156
  85.8699799  56.8939552  66.0930786  87.0684967  57.7323265  66.4825211
  77.5979767  17.0799141  16.9088440  77.6735306  16.6743259  17.7725697
  76.7095642  16.8686581  16.6219215   2.9227009  63.3687744  87.7642441
   2.9307289  64.2863464  87.4917831   3.8396015  63.1659660  87.9496994
  60.3567085  51.1955833  71.2746582  59.4369545  51.1468925  71.0140533
  60.7839508  51.6657448  70.5586700  62.3006859  16.3115044  39.1359863
  62.2891998  15.3883867  39.3888741  62.3626785  16.2974415  38.1808968
  32.9267998  71.5121765  87.4583664  32.6603050  71.1409149  86.6173096
  33.8787079  71.4127502  87.4732208  14.4619341  35.9069290  23.0171566
  13.7579670  35.8637924  22.3700085  14.3338966  36.7486458  23.4545937
  69.7701035  46.3578949  77.1441574  69.3378677  47.1986351  77.2943649
  69.7052383  46.2207146  76.1990585   1.9280099  55.4141312  39.7517471
   1.6136220  55.8583298  40.5391960   1.1505157  54.9886818  39.3901863
  60.1584892  47.7941628  20.2881718  60.4973106  46.9376183  20.5484924
  59.2078857  47.6824989  20.2773342  48.9325867  53.6340675  47.2329521
  48.8474770  52.7138557  47.4823494  49.3672943  54.0454559  47.9799576
  78.1160126   6.9613233  56.3605385  78.1743469   6.9343605  57.3155785
  77.3217087   7.4651818  56.1832275  12.3186960  49.1746864  15.8606920
  12.8858051  49.5836792  15.2069759  11.8547783  49.9067764  16.2669659
  33.3525162  32.2625847  14.7322931  34.0870857  32.8687096  14.6361113
  33.7057877  31.5381527  15.2486582  74.5113525  56.6205864  14.0731068
  75.4289474  56.3594551  14.1510153  74.5253448  57.3701401  13.4779539
  86.4239807  37.3530197  39.4426079  86.6741486  37.9786606  40.1224785
  86.2728500  36.5341072  39.9146004  79.8112106  53.3548775   8.7212677
  80.6534805  53.7056389   8.4318142  79.9844742  52.4299736   8.8966789
  28.8169537  56.6301498  84.0063171  28.7684326  57.5461960  84.2797089
  28.7812824  56.6632919  83.0503616  41.0047569  39.4102440  62.0069008
  41.0793304  39.0918159  62.9064941  41.6378937  38.8877220  61.5146141
   3.5831568  16.7881737  60.2021713   3.6331360  16.5520973  59.2758865
   3.7063348  17.7373352  60.2144165  30.1353931  40.9367142  12.5910053
  29.6158180  41.5579300  13.1012640  30.9101391  40.7737465  13.1290026
  21.0159016  57.4859390  16.3643188  20.7411118  56.9275780  15.6370277
  21.0789814  58.3617744  15.9833088  51.6315689  69.4029465  21.5213413
  52.2925758  68.9969025  20.9605999  50.7961540  69.1077728  21.1591454
  69.6438904  64.6376190   3.3288133  69.1824951  63.7989769   3.3338456
  70.4727249  64.4576569   3.7725265  57.3558884  28.4243774  51.9057083
  57.5826225  27.5357952  51.6314049  56.6854401  28.7037640  51.2822685
  58.8865929   1.8791690   0.3582820  58.7838745   1.6341189  -0.5613002
  59.2579918   1.1007954   0.7735267  75.2948837  54.4543152  27.5096493
  75.9667969  54.5416565  26.8335304  74.9237518  53.5835304  27.3674183
  40.6752548  22.1231480  87.8376007  40.3998222  22.2565365  88.7445602
  40.6623764  21.1732101  87.7206268  38.7034721  14.0836678   8.4857054
  38.4650421  13.7256947   7.6305799  37.8660965  14.2910385   8.9004774
  42.6153221  66.3556824  68.1778793  42.6660652  66.3772278  67.2222748
  41.6831322  66.4562988  68.3705597  11.8904791  61.0086746  17.3140125
  11.9519339  61.1785049  18.2540188  10.9532814  60.9031105  17.1504631
  61.4122849  53.0315018  52.9341774  61.8500519  53.4331131  53.6847076
  60.7730980  52.4334831  53.3215370  51.6217346  25.8116646  37.0924606
  51.9676781  26.4364376  37.7298088  50.8163261  26.2176456  36.7719460
   7.1564026  50.2698288  83.7906723   6.6285334  49.8561211  84.4736252
   7.9019346  50.6456184  84.2588577  43.5898972  42.5922394  17.9700546
  43.9805450  42.5185509  18.8407993  44.3064690  42.3908157  17.3682346
  25.5200157   8.2844410  61.5432167  24.8658600   8.0058060  62.1840553
  25.7791100   9.1599455  61.8306084  50.8097687  34.2370071  70.4477844
  50.4446640  34.5466728  71.2766647  50.1515503  34.4716148  69.7936096
  80.7492676  51.3589363  69.8619843  79.8041077  51.2347603  69.7753983
  80.8396530  52.1803780  70.3450012  68.6345367  17.0627518  39.5025635
  68.1782074  17.2907219  38.6926117  68.0050888  17.2607479  40.1959763
  56.6172638  19.0583363  39.0695038  56.8457870  18.8283653  38.1688805
  55.8359108  19.6049480  38.9862251  86.4078369  25.9751434   1.4253480
  85.8054352  26.0591984   0.6862429  86.1027374  25.1994896   1.8959936
  33.7824059  54.7096329  81.1980591  34.5676727  54.4256363  81.6659622
  34.0087166  54.6178093  80.2725449  36.4922600  66.5532761  67.0831680
  35.8187637  65.8763351  67.0168915  36.0352592  67.3673248  66.8717422
  25.2432327  48.2326813  61.5861206  24.9908619  49.1220436  61.8342628
  24.4883156  47.8951950  61.1040039  45.5333939  13.9359941  14.1776218
  46.3583298  14.3825312  13.9870462  45.4078674  13.3394995  13.4396057
  32.5232162  68.3296661   3.5418894  33.0993614  67.5804291   3.6933241
  31.9325829  68.0408630   2.8462043  46.6236038  17.9468288  29.6506310
  47.2094002  18.3856163  30.2675095  47.0228653  18.0961933  28.7935944
  11.9842892  31.2400341   9.9424696  12.1144266  32.1634026   9.7263947
  12.7675552  30.8031044   9.6080780  84.9504623  10.8091211  82.4216766
  84.0758286  11.1746559  82.2888870  85.1319885  10.3239031  81.6167908
  84.8388824  67.4229355  11.6838427  85.6401215  67.2766037  11.1810150
  84.1773376  66.8922043  11.2400856  71.6763000  37.0936012   6.0772929
  71.1520691  36.9646072   5.2868619  71.5693665  36.2805176   6.5709462
  70.2858124   1.9774984  62.5974197  70.1766052   2.8897355  62.8659897
  71.2305603   1.8282386  62.6349106  79.0684814  36.2246323  29.9029388
  78.9085922  35.5089188  30.5181007  78.8803787  37.0179787  30.4043865
  55.8668251  71.6858139   7.4743824  56.3365479  71.4260406   8.2669163
  55.5431633  70.8631821   7.1073008  48.6109848  69.3727112  62.5119362
  48.3575745  68.4675064  62.6925507  48.4067459  69.8442841  63.3194847
  29.2191868  19.2479420  69.8137054  28.7355995  19.6811390  69.1103439
  28.5973377  19.2038803  70.5400620  71.1271896  52.5111389  86.1044235
  71.9929352  52.2110786  85.8275070  70.7656021  52.9450912  85.3316498
   0.5447022  66.3080444  23.2234917   1.4932793  66.1802063  23.2331047
   0.3631327  66.8137283  24.0156670  52.0094185  48.4278297  14.7381945
  51.4292603  47.7003441  14.5136547  52.8867188  48.0450134  14.7327595
  18.4274445  60.1548805  69.1198273  18.5227795  59.2502251  68.8219376
  19.0293598  60.2278366  69.8605118  47.6378288  14.7667074  60.7272034
  46.7640991  14.8414946  60.3434906  48.0557137  14.0598087  60.2353706
  68.9871140  18.0106106  31.5091629  68.7200241  18.0766373  30.5923557
  68.6277008  17.1737576  31.8036652   1.2763133  31.8911152  46.3001671
   0.9831012  32.5549622  46.9243202   1.6767093  31.2120914  46.8431587
  40.4972801  63.9823112  51.7600975  40.6137085  63.0322227  51.7621422
  39.5626221  64.1094284  51.9228554  53.2330742  24.7522144   5.2664447
  54.0863380  24.3280468   5.1755800  52.6086273  24.0278816   5.3069372
  75.6185074  51.8986664  32.0184784  75.2096176  51.8639526  31.1537018
  76.2151794  52.6456642  31.9714794  48.5445595  43.9525146  46.8373070
  49.4042892  44.1668930  47.1994324  48.6947556  43.1655617  46.3134956
  76.6345291  35.5528488  61.7993851  76.7044220  34.6231422  62.0161705
  77.4342804  35.9420509  62.1531563  51.5085716  63.9187965  82.0929642
  51.6657600  64.1358948  83.0118713  52.3568344  63.6146049  81.7702408
   5.0768132  16.0475903  52.3680534   5.4291983  15.2940311  52.8415565
   4.3871565  16.3875580  52.9381638  47.8043556  24.9450645  20.8507271
  47.7791824  25.6426392  21.5056992  48.5317001  24.3860435  21.1240330
   0.2700848  10.8299322  36.4632263   0.6095420  11.6792564  36.1810036
   0.2907484  10.8694639  37.4193840  36.9258270  55.5654144  88.5489426
  37.4577827  56.3588791  88.4883575  37.1963654  55.1579285  89.3717422
   2.5680714  48.9783363  78.1676102   1.8434002  49.5689125  78.3732910
   2.6682138  48.4396667  78.9524918  81.0153122  30.4035053  57.0322266
  80.7759018  30.8042965  57.8678589  80.6863022  29.5067329  57.0937233
  58.7692871   9.5203238  77.0898056  59.2485123   8.9131956  77.6536942
  59.1097908   9.3508759  76.2114105  86.2718048  19.4648838  43.3223763
  86.9584198  19.8724594  42.7944870  86.7430267  19.0250168  44.0299721
  31.7526684  65.0856018  31.0990467  31.8094387  66.0334854  31.2195663
  30.8252335  64.8835678  31.2226505  54.9645081  44.4371986  19.1639233
  55.7756042  43.9299622  19.1965961  54.6782379  44.4901543  20.0757771
   3.2005832  43.0813065  77.7277832   2.2487974  43.1711388  77.7753906
   3.4242375  42.5096664  78.4622498  14.5911236  26.2102470  76.1678925
  15.1799145  26.0511742  76.9056244  14.1114731  27.0022125  76.4107056
  12.9779863  12.8799229  69.8459930  12.4156637  12.1146431  69.9658813
  12.9818392  13.3105869  70.7008286  16.6722984   0.3766273  25.2152653
  17.0315762   0.0444886  24.3925667  16.4729252   1.2954916  25.0359039
  79.9083633   0.3074515  51.6714363  78.9844742   0.3439682  51.9190636
  79.9728394   0.8740151  50.9026222  75.2702713  64.8460999  29.1657639
  75.4156799  65.0926132  28.2523518  74.3906555  64.4687271  29.1748810
  79.9875488  52.8754005  20.6175575  80.8678818  52.7424088  20.9690781
  79.7689056  52.0432510  20.1980934  36.6736183  54.2902679  59.2338676
  36.6496468  53.4103012  59.6097832  36.9125786  54.1527138  58.3172379
  40.7297745  69.9891663  20.5932217  39.9158745  70.2834930  21.0020809
  40.4586296  69.6395264  19.7444210  45.9375191   7.9927816  60.9117584
  45.9499741   8.9479065  60.8499985  45.0116081   7.7603073  60.8418999
  72.6391449  64.8348770  62.1248894  72.7054520  65.6278992  62.6568146
  71.7313461  64.5504913  62.2310066  60.8481064   0.3091211  81.0703812
  60.6496658  -0.3204535  80.3772049  61.8043175   0.3454548  81.0943756
  -0.1184367  10.4792767  32.5194664   0.7171688  10.4864378  32.9863091
  -0.2731143  11.3958969  32.2911758  76.8338165  57.6292038  15.7591820
  77.5606308  57.4263649  16.3481102  76.9906616  57.0836792  14.9884453
  46.6911736  63.5203094   1.8367593  47.1200104  62.7111397   1.5582389
  45.9725609  63.6367226   1.2152467  58.8114929  34.6452484  70.1751862
  58.3199539  34.6345711  69.3538971  58.6022987  35.4924545  70.5685196
  83.4349823  69.3120422  25.0546360  83.2969818  69.6131744  25.9526920
  82.5574570  69.2861633  24.6731777  75.3461609  45.8367462  20.7232952
  75.4488449  44.9334946  20.4235821  74.4428329  46.0617676  20.5006046
  54.7086220  63.5292587  38.5037231  55.4597588  63.2112122  38.0028534
  54.1135750  63.8845406  37.8434753  12.1496925   9.9335823   0.2906286
  12.6442394   9.4583921   0.9583489  12.5410109  10.8070621   0.2790715
  40.7674637   2.7548668  78.2621460  41.3428421   2.1181262  78.6860962
  41.3428574   3.4867663  78.0397186  14.9516745  67.0228729  26.3090458
  14.3077679  67.3394928  26.9425831  15.6854267  67.6324310  26.3883018
  71.5452423  69.7328568  48.2427406  72.4007034  69.4953232  48.6004944
  71.4564362  70.6665115  48.4341583   0.6586090  62.8934784  46.5388107
  -0.1287200  62.6768150  46.0394058   0.8435615  62.1046638  47.0485153
  13.0745859  14.2536364  21.7524796  13.1946621  14.9849567  21.1466866
  13.0360155  14.6626425  22.6170368  83.8936691   4.7502303  17.3209133
  83.7453766   3.9088290  16.8893051  83.0374069   4.9928508  17.6733112
   5.0713029  21.1458454  71.0960007   5.1772141  20.2101688  70.9241867
   5.9275889  21.4288902  71.4167709  14.9736700  49.9824638  43.8940620
  14.0576696  50.0346870  43.6212120  14.9915257  49.2754135  44.5390358
  29.9658985  55.8832855  28.0500679  29.4315224  55.9429321  28.8419762
  29.3339386  55.9140892  27.3318005  44.8930473  66.8155975  60.4992599
  45.6349678  67.3773651  60.2751770  44.8851967  66.1453018  59.8159790
  16.1158485  16.6087990  21.9798794  16.5126057  16.4349003  22.8334446
  16.0122719  15.7438364  21.5832119  67.8564224  25.4190979  35.8973427
  67.9356537  24.4652519  35.9088249  67.2220154  25.6150551  36.5868073
  28.9482613  65.0913315  77.2386932  28.1889801  64.7095718  77.6791229
  28.7452030  66.0247192  77.1771545  58.1445732  13.3806772  13.3580408
  57.2000465  13.4766703  13.4800520  58.4594727  14.2731447  13.2146082
  78.0977402  53.6308441  69.8573608  78.8897858  53.9304810  69.4111404
  78.1971436  52.6802368  69.9092560  16.0034943  53.8476143  11.3966446
  16.4583607  53.3611298  12.0841465  16.7044373  54.2540359  10.8870058
  85.6617813  27.0568275   9.5523930  85.8375854  27.9954185   9.6185102
  85.5333710  26.7728653  10.4574394  83.6822128  48.5635223  44.6620483
  83.2931976  49.1942520  45.2679176  84.6184235  48.7622147  44.6779251
  50.6698952  52.2954216  85.2976685  50.3888092  52.2493553  86.2115097
  51.5807571  52.5863304  85.3416290  63.3876076  35.5017776  25.3970013
  64.1677170  35.5269356  24.8429012  62.9107475  34.7252083  25.1041241
   6.3627353  22.9410896  39.6789284   5.5945644  22.3747578  39.6053581
   6.0093246  23.7912598  39.9407349  38.5297852  65.8217468  34.6583099
  38.3649483  66.4106293  33.9219131  38.9918861  66.3626328  35.2987328
  73.3388367  32.3794975  72.8368149  72.6069946  32.5339394  73.4341278
  74.0824738  32.1971512  73.4112625  36.3456154  54.3537064  41.8560371
  35.5091286  53.8917542  41.8002014  36.6034813  54.4931984  40.9448395
  12.9238052  24.3548241   1.7522032  12.4009361  24.8483696   1.1203400
  13.4471483  23.7587852   1.2164031  35.4639549  29.3912354  83.5241776
  35.5002403  29.6611691  84.4418106  35.8938484  28.5361404  83.5088806
   8.4663343  54.4152031  28.2680511   8.0921774  54.7968292  29.0621548
   8.1768188  54.9955330  27.5640430  20.8118687  53.5070000  25.5709171
  20.4145126  53.6058540  26.4361153  20.0698586  53.3804588  24.9796143
  11.1184654  37.1989212  18.1124420  10.9731627  37.6865997  17.3017082
  10.3112040  36.7006874  18.2402039  80.8601074   5.4781485  63.6264763
  81.1358719   4.5615592  63.6337929  81.3519058   5.8819380  64.3415451
   4.9312549  11.4103003  52.7857132   4.1801081  10.8512125  52.5871429
   4.9977827  11.3918934  53.7404213  82.0462646  43.2454529   0.2540766
  81.4298401  43.2450981   0.9863740  82.8646622  43.5696297   0.6300598
  15.8132935   5.1097379  45.1776199  16.1311264   5.9807401  45.4154625
  15.1197233   4.9265547  45.8113670   4.9708481  41.1730576  69.9542236
   4.6156359  40.4876709  70.5201721   5.9133983  41.1561050  70.1201859
  14.6608419  14.0972891  86.2088928  14.6085386  14.7069244  86.9449921
  14.0905275  14.4784098  85.5412674  70.5951920  38.3639221  22.5136223
  71.2251129  39.0656013  22.3490772  69.9473267  38.7560806  23.0990391
  17.4047356  16.7075138  24.2956429  18.0606804  17.3864822  24.1376247
  17.9103794  15.8978701  24.3665905  20.7298622  40.5636635  16.3251419
  20.2937012  40.8314667  17.1340160  21.2444534  39.7956963  16.5734482
  85.9690094  50.2915421  29.2865829  85.8523331  51.1508102  28.8812656
  85.2046127  50.1883087  29.8533955  36.4628525  69.4992828  40.4883499
  36.1577110  68.6012115  40.6171455  35.6860123  70.0393372  40.6335602
  20.6966476  17.0119514  80.6404724  20.1579990  17.7999229  80.7125092
  20.8683796  16.9241047  79.7029114  42.9816284  70.7657166  87.5570450
  42.4592857  71.5571747  87.6873779  42.5739670  70.3302765  86.8084183
  79.9204941  48.4323120  10.4336643  80.6614532  48.9944267  10.2073030
  79.3696365  48.9769897  10.9959059  69.5316849  39.7093430   9.5649700
  68.8107376  39.5657234   8.9519167  69.5900269  38.8931084  10.0615435
  49.2717323  62.4253578  15.2289534  49.4524765  61.6527634  15.7643623
  49.6857910  63.1469841  15.7022829  78.6005173   7.8302321  48.3306961
  79.4894943   8.0321550  48.0388489  78.0431519   8.4272413  47.8315392
   7.7140903  19.9673214  81.0447693   7.4495740  20.7097816  80.5016174
   7.0014935  19.3353024  80.9499588  18.3578529  11.2532387  67.4766312
  19.0079384  11.0538282  68.1503220  18.8726521  11.4009924  66.6832962
   6.2437797  49.9005928  13.0786476   7.1718912  49.9509125  12.8499355
   6.0427742  48.9649315  13.0595064  70.2546463  10.6609993  51.7971306
  69.9383316  10.8689594  50.9179649  70.1360931  11.4715519  52.2922859
  69.1140289  35.5781403  23.5579777  68.7557220  36.1339455  22.8659325
  68.4859772  34.8602257  23.6378498  12.9167728   0.0857802  35.2695427
  13.4175301   0.4102910  34.5211029  12.1257820  -0.2904444  34.8835106
  47.7185707  41.4002838  69.5371399  47.4751358  42.3166656  69.4059143
  47.3083954  40.9365959  68.8070831  20.8109798  50.0113754  10.8270454
  20.8002815  49.6418571  11.7099800  21.2763023  50.8425789  10.9208937
  17.1155796  32.7015228  20.2388668  17.1687832  33.1590538  19.3997803
  16.3082733  33.0260277  20.6378479  76.0408173  29.0049343  62.6028824
  76.9960175  28.9565220  62.5643349  75.8347168  28.9321117  63.5347900
  28.4200974  53.4547195  56.9332695  27.6935368  53.4033661  56.3122215
  28.5217876  52.5598450  57.2574463  42.4826164  67.5790939  62.3190041
  43.3400993  67.5835571  61.8936386  42.1002426  66.7352448  62.0782928
  12.3818350  14.6476116  60.8806953  12.3852701  13.7493458  60.5500336
  11.7836695  15.1151447  60.2977333  40.7408676   4.1586685  13.5445242
  40.3393784   5.0026999  13.3380108  40.0620766   3.6807437  14.0210352
  84.2766037  65.0528641  88.2691345  84.6335678  64.3051300  88.7484131
  85.0215988  65.4012146  87.7793808  65.8460617  70.2596283  22.2277489
  65.8501816  69.3026810  22.2490978  65.3637543  70.4793472  21.4306736
   8.9921303  25.2096081  22.6254673   9.2058439  25.2134151  23.5584965
   8.8724012  26.1329651  22.4034100  40.1767120  49.0904427  40.6513405
  39.7335854  48.2610970  40.8303795  40.2991333  49.0965271  39.7020187
  62.7723923  60.9777946  43.7972527  62.7327194  61.9218369  43.9503593
  61.8564758  60.7013817  43.7668800  74.1746292  15.0752850  61.9109497
  74.1415634  15.0849810  60.9543724  73.7821350  15.9081755  62.1726265
  44.5443459  55.6676788  40.5443268  45.1293411  55.7639313  41.2958221
  44.6082382  54.7423058  40.3080406  78.0188293  15.2074137  86.9456329
  77.4632339  15.9442959  86.6915512  78.6462860  15.5824547  87.5635910
  37.8594246  14.2675571   0.8318322  38.1541481  15.0522938   0.3697090
  37.0442810  14.0234022   0.3934659  76.5107040  47.2618561  27.5236874
  75.8136826  46.7537270  27.1087246  76.4818497  48.1116371  27.0840626
  40.2832298  42.5695229  10.1174564  39.7424889  43.2965126  10.4261999
  40.4638214  42.0545273  10.9038372  76.0777359  49.0797310  31.0480766
  76.5696182  49.1036263  30.2272758  76.3077011  49.8976021  31.4890175
  56.1904106  52.0880013   3.3167872  56.0864906  51.4360008   4.0098462
  57.1149635  52.3328972   3.3550110  70.8301010  52.3925209  19.4343204
  69.8959198  52.2672539  19.6011906  70.8669586  53.1189346  18.8120708
  69.9152145  40.1179619  85.9312744  69.4567947  39.2781525  85.9596252
  69.3134079  40.7039642  85.4722977  68.4369965  13.8445120  78.7329330
  68.6021881  12.9024906  78.7721939  69.1970978  14.2020435  78.2739792
  27.9361916  45.4250679  73.4435501  27.6667099  45.8515358  72.6300735
  27.2747726  44.7488098  73.5899506  56.1924934  16.6318607  46.3323288
  55.8713722  15.9114037  45.7900581  56.9500771  16.9711514  45.8556938
  42.8701591   4.1051826  32.8113823  42.3599548   4.5498614  33.4882736
  43.2643166   4.8145494  32.3037682  41.2086754  13.8456450  36.2301445
  40.7806549  14.5924511  35.8114433  40.4872665  13.2829256  36.5114822
  53.2199020  43.5348969   5.7747941  54.1569595  43.3839684   5.8988156
  53.0652084  43.3348541   4.8516006  70.5028992  50.4450645  66.6912994
  70.5546112  51.3674583  66.4408112  70.9332199  49.9779167  65.9751816
  32.5517845   5.7137876  35.1216698  32.0938110   4.9233875  34.8357315
  32.6932373   6.2128978  34.3172379   0.6450970  60.8266106   2.0965078
   1.4743880  60.3962097   1.8885028   0.6692390  61.6452446   1.6010467
  56.0621758  17.8254471   7.3490505  55.3419075  18.4513474   7.2736006
  55.6408424  16.9677067   7.2943673  25.9292412  50.1070786  74.3909302
  26.8445988  50.2761192  74.1678162  25.5447006  50.9768486  74.4998245
  38.7781906  43.5746994  41.8462486  39.1373901  43.8463707  42.6908836
  37.8663254  43.8648796  41.8692741  39.0056534   2.9752042   4.1776567
  38.5346451   3.7091229   3.7830098  39.2518196   3.2887573   5.0478978
  75.2938232  27.9931774  15.5701561  75.1332855  28.8441334  15.9779959
  74.6873703  27.3980846  16.0109653  84.4745712  53.0062561  67.1649399
  84.2472076  52.2677002  66.6000748  84.2407532  52.7146759  68.0461578
  45.7585258  61.9063568   9.9773121  45.3740578  61.4559937  10.7293701
  46.4694099  62.4287758  10.3487310  83.5446701   9.0736036  67.5676575
  83.5394974   9.5108528  66.7161789  82.9644394   9.6046543  68.1131363
  70.2919922  54.2443199  84.2378311  70.0971909  55.0972214  84.6262131
  70.6171722  54.4490128  83.3611374  29.4296207  61.0122795  77.3001480
  29.7300816  60.6745071  78.1438675  28.8835850  60.3121223  76.9425735
  36.1088409  50.2287941  40.8511772  35.4978905  50.1859245  40.1155548
  35.8161507  50.9835739  41.3619308  85.1627808  60.9465942  23.0815697
  85.4561462  61.2326431  23.9466362  85.9396057  60.5545120  22.6827526
  54.5953064  34.4172974  76.0715332  54.7364807  33.7461739  76.7392807
  53.7668152  34.8290062  76.3171463  53.1593628   1.5679098  14.6122665
  52.8857689   1.2494946  13.7520399  54.0789757   1.8074957  14.4976120
  39.3490067  20.1476021  77.3235092  38.9463882  19.2792072  77.3187561
  39.8499527  20.1748848  78.1387024  52.0378227  44.9824524  59.8715858
  52.3801880  44.1492920  59.5477600  51.7482491  45.4444160  59.0848389
  17.6566010  23.2540894  10.8277712  18.0461807  23.6551857  11.6046762
  18.0972919  22.4080772  10.7484665  20.4849224  59.3188095  85.4882278
  20.0750084  59.2454987  84.6263504  20.0879631  58.6160545  86.0028000
   2.0112643  32.6860046  71.3846893   1.5736583  32.0078201  70.8700943
   1.3836497  32.9068832  72.0728302   7.5323434   4.4826684  40.7679214
   7.6724663   3.7583375  41.3777924   7.0378199   5.1284246  41.2725792
  74.0750961  53.5578575   3.5389869  73.9348755  52.6271667   3.3646739
  73.1942520  53.9312935   3.5689156  29.4341145  59.4141541  73.3924866
  29.0404358  59.8517036  72.6376343  28.7648182  58.7966118  73.6873016
  47.4979744  62.6739960  87.0185928  47.8225174  63.5690422  86.9195938
  48.2846184  62.1489067  87.1659088  10.1550655   8.4188128  24.3393650
   9.3998861   8.6915140  23.8182411  10.7677879   9.1513596  24.2747192
  14.2950068  21.7480202  57.2609138  14.2077084  21.9967175  56.3407173
  14.8925657  22.3987789  57.6292419  65.2745972  45.4782944   6.0495062
  66.1527328  45.8540878   6.1118989  65.3182983  44.6789665   6.5742869
  11.8308764  38.9732361  46.0962181  11.5903177  38.1358376  45.6998215
  12.7858505  38.9448662  46.1549683  40.8874512  43.6112900  80.1742859
  40.3923645  43.3650284  79.3929596  40.4529762  44.4021111  80.4937668
  40.2465782   1.4664601  51.6727905  40.2083817   1.0729721  50.8010445
  39.6849594   2.2391648  51.6116066  44.1238899  66.8891907  80.9491196
  44.5981560  67.4311447  80.3185730  44.6131020  66.9883118  81.7658691
   8.0339069  38.4005432  46.9534187   8.6356773  38.7580490  46.3005104
   8.3861628  38.6981926  47.7922020  47.7563019  30.7056332  20.4655495
  48.5391464  31.0385494  20.0267429  48.0046349  29.8322296  20.7684135
  62.7926369  33.0788040  82.4691315  63.3029938  32.4134026  82.9306564
  62.7041626  33.7931366  83.1001129  24.0041656   6.0791550  67.0097351
  24.7727432   6.0880246  66.4392548  23.2687016   6.2571402  66.4235153
   9.7958384  44.7857437  13.8077059  10.1822300  45.6247025  13.5565519
   8.9664669  45.0192680  14.2246504  22.7754250  22.6091061  83.0355530
  23.2475166  21.9394722  82.5406342  23.4418602  23.2611160  83.2522964
  58.0651970  49.6830254  36.4913559  58.3927994  50.4416962  36.9743919
  57.3907814  49.3104439  37.0593109  30.7593555  62.6595001  54.9990273
  31.4136639  63.3358536  55.1741219  31.1291809  62.1492996  54.2784996
   1.2619127  42.1294518  88.4609146   2.0667732  42.3550262  87.9944916
   0.7118301  42.9086189  88.3800430  70.0572739   3.5795774  40.4754181
  69.8821030   4.3939581  40.0039024  69.7302094   2.8919094  39.8954391
  28.2738400  32.0599632   2.8869901  28.7028618  32.8923035   2.6885409
  28.0672092  32.1134987   3.8200867  48.6248398  47.9258614   5.2174430
  48.4887428  47.4135132   4.4204412  47.7415810  48.1309128   5.5241036
  65.2396240  18.8559341  77.5947952  64.6786499  18.0839100  77.6690750
  66.1213760  18.5294304  77.7740631  41.7663612   3.0209510  41.8647804
  41.3249130   2.2701397  42.2618179  41.3579559   3.1111259  41.0037918
  39.9785995   8.5381594   2.8107960  39.9932861   8.2720051   1.8914601
  39.2769318   9.1872911   2.8610356  78.7870712  41.1815834  53.6388779
  78.3311996  40.4400711  54.0370865  79.3448410  41.5231667  54.3377647
  51.9397545  20.3923683   1.9543169  50.9942932  20.4718609   2.0808489
  52.0316849  19.9013081   1.1378361  54.6911163  69.4973679  19.1860104
  54.3282318  68.8095093  19.7440453  55.6341057  69.3330460  19.1858425
  61.5130768  62.4791527   4.1632981  61.8128853  61.8851471   4.8514171
  62.1951294  62.4331779   3.4932778  75.4616470  42.4155884  53.5317230
  74.8061523  42.0700073  54.1376381  76.3003845  42.1532364  53.9110947
   2.4985907  42.1924057  25.3917446   2.3958194  41.2415199  25.4302559
   2.4927838  42.4712219  26.3074188   4.2308326  53.0326538  71.3166580
   4.5795937  53.6378975  70.6622314   3.6704638  52.4378433  70.8182373
  17.8809490  62.8360710  86.0699768  18.6255455  62.6413422  86.6390915
  17.5370541  61.9775162  85.8233032   9.8740864  58.1356544  74.3723145
   9.0597029  58.0208778  73.8825836   9.6370010  58.7106056  75.0999527
   1.4066327  29.6341839  33.2327576   0.8069820  29.8025494  32.5059128
   2.2790003  29.7142906  32.8470268  22.3334751  26.2125263  75.1258316
  21.5685272  26.7710953  74.9876785  22.0769310  25.6269608  75.8382492
  24.5395908  46.2747688  26.5863209  25.2180824  45.8388367  26.0707207
  23.7162437  45.9743004  26.2015476  62.3816528  54.8522110  14.7705908
  62.7204971  54.3293762  14.0439167  61.6486435  55.3391190  14.3939590
  73.1092148  23.9399738  18.0925541  73.2207947  23.0899849  17.6667633
  73.9522705  24.1098347  18.5128307  79.6227722  12.9498835  34.5282211
  79.0014496  12.6908560  35.2087250  80.4153137  12.4504318  34.7248306
  29.5938759  67.0193100   7.9944415  30.1227150  67.0185089   7.1965947
  29.0046921  67.7665024   7.8905134  14.8504438  22.7681618  84.9510727
  14.7594318  23.3181648  85.7291718  14.3489618  21.9789238  85.1556473
  84.0716934  54.7665558  18.8338490  84.6279678  55.5348930  18.9620857
  83.4530945  54.7942123  19.5637798  27.7879162  32.6573448   8.0353727
  27.9537563  33.2555199   8.7640142  27.5599003  33.2296677   7.3027835
  63.2797623  65.7116470   5.1396255  63.6651726  64.8705597   4.8941374
  62.7071304  65.5061417   5.8786054  41.7449417  55.9638443  22.6278038
  41.4176788  55.4413147  21.8956184  42.1222038  55.3225212  23.2299805
  28.8275318   2.9139163  35.0160866  29.2787170   3.5936105  34.5154076
  29.3933163   2.1455178  34.9407082  45.2913857  56.2005310  57.2819633
  45.9724541  56.8423882  57.0809631  44.6854095  56.2549324  56.5430031
  33.9214592  47.5389023  26.6755657  34.1578941  47.4134979  27.5945892
  33.6258621  48.4479790  26.6262016  69.1759415  18.4380512   8.6584511
  68.5719147  18.1191196   9.3290224  70.0308380  18.4430027   9.0889797
  54.9887314  52.0659676  83.8409500  55.6270523  52.2491798  84.5303040
  54.5572281  51.2592163  84.1223450  63.0086899  22.7952862  45.9118080
  62.3052864  22.2334003  45.5866356  62.9611435  22.7116871  46.8641624
  44.3877144  49.0626564  49.2078018  43.9065590  49.8383522  49.4959297
  44.3066216  49.0710564  48.2540779  64.8882294  13.6105680  13.4630022
  64.7474365  13.0512533  14.2269249  65.4763107  13.1055059  12.9014874
  78.8070755  28.3642731  52.6924515  78.8972397  27.5923748  53.2512665
  79.0177689  29.1010971  53.2659721  35.5105896   1.1663740  85.4767151
  35.7316208   1.6839694  84.7024536  34.9487877   1.7410831  85.9966354
  27.8895912  53.6444855  63.6583099  28.1661873  53.1173782  62.9087219
  28.6476307  54.1939774  63.8574715  58.1319542  21.4796124   1.1504815
  57.3563271  21.9809914   1.4019870  58.6039925  22.0546913   0.5482395
   6.7066917  45.9732780  62.7472343   7.3526196  46.4889183  63.2300644
   6.2589040  46.6105766  62.1908455  49.3062019  55.3089905  55.9520607
  48.8387489  56.1440659  55.9712677  50.2198982  55.5494499  55.7985229
  81.0157242  57.1658516  38.3771324  80.9808044  57.6723518  37.5656700
  80.6882019  56.3000946  38.1333656   4.4863176  44.5461426  43.7957230
   4.9345894  44.2109489  44.5722084   3.5580375  44.3891869  43.9686165
  78.8066864  43.9242249  47.3308334  78.1209946  43.6369209  47.9337540
  79.5568085  43.3669243  47.5381165  16.9668217  65.0821381  84.8758545
  17.3432865  64.3477631  85.3608246  16.5041790  64.6738892  84.1440582
  43.4638023  44.2049599   5.4303160  42.5361290  44.4399834   5.4099340
  43.9206924  45.0124702   5.1949282  17.0243759  49.7905312  40.8526840
  17.3447609  49.9419899  41.7418671  16.6953106  48.8917809  40.8665085
   0.5289992  22.4235535  42.2235031  -0.3875799  22.1990070  42.3837929
   0.9400268  21.5937653  41.9811401   0.3861068  62.0385551  18.6095638
  -0.4026312  62.5784645  18.5583649   0.6614537  62.1028938  19.5240440
   7.3322234  64.3633575  70.3717651   7.2050276  63.5440140  69.8935089
   8.1768007  64.2565994  70.8094025  27.7454624   8.4602184  34.6932182
  27.4338665   9.3624496  34.7647629  28.5380077   8.4373045  35.2294807
  41.5782661   1.6549687   7.6519742  41.0160408   1.2762952   6.9761453
  42.0028000   2.3973780   7.2220545   5.7471972  54.1972351  12.1697588
   6.1223102  55.0288773  12.4594059   4.8403530  54.2243118  12.4749346
  51.8451271  41.5204506  75.8342361  50.9025307  41.3610153  75.8824539
  52.2422485  40.6879425  76.0900803  44.7016029  56.9523010  32.7356110
  43.9679527  56.9995041  32.1226158  44.3362846  57.2476997  33.5695839
  33.2605400   2.0956647  37.9815979  33.2975616   3.0348592  37.8005600
  34.1160126   1.8905610  38.3588676  80.6732559  38.3498726  83.0233231
  81.1259232  37.6483459  83.4914932  80.9983597  39.1551361  83.4259338
  38.7308960  69.9165878  88.1796341  39.4776268  69.3884048  88.4618607
  38.3966522  69.4642410  87.4051056  64.2875748  44.9082222  69.4440155
  64.9829330  44.4186249  69.8833313  64.2796097  45.7588921  69.8827896
  50.8359566   8.4837418   5.1308246  51.2460976   8.5084105   4.2662973
  51.0716858   9.3203716   5.5317159  23.9886951  12.4971628  14.6420116
  23.1281319  12.8178587  14.9118538  23.8652973  12.2132807  13.7362442
  50.7519684  26.2143536  19.3200893  51.4038010  26.7000256  18.8146477
  51.2462311  25.8353920  20.0469494  75.9537125  50.9441261  46.1526756
  75.8934021  51.8959808  46.0716171  75.3529282  50.7258797  46.8651810
  38.0717850  26.2314835  79.1660156  37.8384247  27.1524754  79.2824249
  38.2112427  26.1369858  78.2237549  82.7436905  24.0423908  33.4479027
  82.6380997  23.3912468  34.1415100  83.5157928  24.5453205  33.7070427
  22.7904320  57.6084328   7.9235916  23.5324574  57.9584465   8.4166641
  22.9729156  56.6717606   7.8489218  38.0817451  58.2353630  63.8286247
  38.9161720  58.6333199  63.5804443  37.5824432  58.1974411  63.0128479
   9.4546900  38.8574524  69.3567429   9.4261580  37.9420891  69.6351852
   9.2784023  38.8273659  68.4164047  55.2563591  10.2246017   3.7289658
  55.8588791  10.7886353   3.2441280  54.4603004  10.7480183   3.8214543
  39.1999702  23.9811592  70.3273697  39.0201530  23.1152000  69.9612961
  40.0158195  24.2539463  69.9075928  11.3605232   8.4688358  70.1118317
  10.7949076   7.6966243  70.1108932  12.2406445   8.1208935  70.2552032
  57.4055786  12.6659861  34.1815605  58.0553856  13.3236122  34.4295692
  56.6023407  12.9453945  34.6208458  33.7923164  67.7363586  48.7270470
  34.5276337  67.1336899  48.6159935  33.8312492  67.9945755  49.6479378
  12.6810255  69.1314087  56.5109291  12.8562384  69.8223038  57.1498375
  11.8388681  68.7644348  56.7798805  12.4707670  33.8984566   9.4919796
  12.3885803  34.3963737  10.3053417  12.0511646  34.4488754   8.8307638
  74.5755844  66.7422638  78.5818405  74.5132675  66.4292908  77.6794052
  74.1707382  66.0496979  79.1040344  79.8784180  11.6508465   8.6433144
  80.6552124  11.3253403   9.0981417  79.7828217  12.5531263   8.9482489
  54.7339745   6.0922761  73.8496552  55.5091743   5.5327315  73.8026810
  54.6302872   6.4329505  72.9611664  25.1454144  38.9458504  87.2847366
  24.4887428  39.5826607  87.5666733  25.9772453  39.3090477  87.5886688
  25.0237675  63.1296005  20.5268726  24.7270145  62.7195396  19.7144585
  24.8797245  62.4627419  21.1982765  36.6413193   5.4909172  27.3067226
  36.1182938   5.9272890  27.9792233  36.2409592   5.7598825  26.4799194
  21.3544483   4.7766223  23.6660252  22.1922054   5.0905962  24.0063419
  20.8183594   5.5653977  23.5843239  16.5118675   5.7174630  66.5986938
  16.8156719   6.1738777  65.8140793  15.9843979   4.9919338  66.2646027
  10.5163202  15.4846859  85.6854782  10.3664818  14.5542974  85.5176773
   9.9511175  15.6876955  86.4308472   8.9928026  22.2263870   6.9589682
   8.9757080  23.1292934   7.2762980   8.2109423  21.8245544   7.3377266
  20.8379498  48.7875252   8.0663300  21.1353760  49.1066551   8.9183435
  21.4997082  49.0998344   7.4492626  75.9500427  57.0125694  88.4509354
  76.6046906  56.3558617  88.6884232  75.1218643  56.5327187  88.4415970
  85.9490967  30.3310776  82.0613251  86.6261063  29.7496300  82.4074478
  85.1894913  30.1749458  82.6224518  80.3310547   9.5015650  32.5681038
  80.6114120   8.7038488  32.1194611  79.6057281   9.2203712  33.1258392
  42.4097824  46.9747772  68.4857025  42.4355202  46.7658958  69.4194794
  41.5481148  46.6743546  68.1967316  62.6222038  43.1495705  25.3330765
  61.7131310  42.9053955  25.5068588  62.5853577  44.0855904  25.1362495
  14.8098783   4.3869400  28.3315945  14.1023083   4.8517947  27.8849545
  14.5452147   4.3746600  29.2513962  13.4834843  50.6264038  13.7409868
  13.4115658  51.4448242  14.2321577  12.8461666  50.7155380  13.0323868
   8.3715820  69.4306793  17.6174965   8.3567629  68.7526016  16.9420567
   8.3820028  70.2542953  17.1298599  28.5189171  48.6362877  52.7729187
  28.5375423  49.5859146  52.8916397  28.3476448  48.2887955  53.6482162
  82.0556946  34.3040237  35.7296867  82.1696625  33.3537979  35.7472610
  82.2216949  34.5483627  34.8192062  65.3572083  15.6020651  70.8553467
  65.1651306  16.5274506  71.0069962  66.3001785  15.5766706  70.6928787
  11.5563335   5.5387611  51.8958359  10.7013664   5.5554066  51.4657364
  11.5562992   4.7234874  52.3973923  73.4908600  15.3957453  79.7759628
  72.5775986  15.2397289  79.5354385  73.9951553  14.8685131  79.1563263
  44.4345627  28.7261753   3.5745308  44.4323921  28.6854038   2.6182020
  45.0939751  29.3874550   3.7845709  71.5071564  45.3147926  39.0719719
  71.1233063  45.9915733  38.5144272  72.3189240  45.0703278  38.6275597
  19.8850708  53.3488350  28.4909115  19.7377872  54.2443237  28.7952728
  19.2869301  52.8162613  29.0151463  47.7472496  46.8265724  51.7081795
  47.1572800  47.3852997  51.2022247  48.5139465  46.7165298  51.1457710
  75.6520691  61.5606995  70.2689056  75.4536057  61.9364128  71.1266251
  75.0246582  60.8445778  70.1701279  31.9886894  38.9122276  81.8543167
  31.2118206  38.9826317  81.2995605  31.6842957  38.4497871  82.6351624
  22.2433643  30.7380066  16.6579819  21.8689156  30.2649784  15.9148378
  21.5240974  31.2783527  16.9849606  32.2735405  50.8309021  39.5762138
  31.8400192  51.1197052  38.7731705  33.1360588  50.5317268  39.2884789
  12.4643641  59.1136208  81.7632217  12.0860090  58.9669838  82.6301575
  12.7621632  58.2483597  81.4823837  41.6541710  70.0540848  71.5407104
  40.9760704  69.5529785  71.0876083  41.3702507  70.9649963  71.4641647
  43.2444839  39.6829185  18.0471554  42.3490906  39.4704819  17.7837715
  43.2460518  40.6351814  18.1442127  74.5669861   4.6539817  52.8799820
  74.1469650   4.5700922  53.7360077  75.4816055   4.4200215  53.0380020
  24.4886723  56.5587425   5.5974278  24.1929913  56.0070953   6.3216453
  23.8196182  56.4464378   4.9221601  78.7292786  32.6875534  21.1722164
  78.5523987  32.8662186  22.0958099  78.8846817  33.5499001  20.7869377
  18.2046986  60.9218674   9.4726629  19.0941238  60.9989738   9.8179264
  17.6589108  61.3788834  10.1125708  66.3387375  68.4393005  33.6954117
  67.0859756  68.2925949  34.2753677  65.8960648  67.5915298  33.6560211
  43.2115517  11.8502789  85.1730652  43.0671806  10.9250412  85.3713760
  42.4192467  12.1224432  84.7100220  40.7721825  54.0650864  29.7204723
  40.8948097  54.5026131  28.8779984  41.3089218  53.2748184  29.6603107
  71.6492920  17.8720284  32.5042915  72.2328568  18.5924644  32.2662659
  70.7885818  18.1464653  32.1879120  55.1567345  36.8851013  25.7695198
  55.2932510  36.7430077  26.7062187  54.6562614  37.6996117  25.7212639
  64.2714157  36.8404503  10.0709572  65.0073700  36.5116348  10.5871801
  63.5065002  36.7028618  10.6297092   7.9443994  20.5371857  17.8946152
   8.5780449  20.5457211  18.6120071   7.3140907  21.2201862  18.1236420
  59.9558220  47.5263176  36.6276131  59.3756905  48.2847900  36.5612907
  60.6500969  47.6994820  35.9918213  11.8715906  38.8997116  79.1363525
  12.1514997  38.9248619  78.2213364  12.3774881  38.1844711  79.5220108
  58.9239883  69.6079483  43.5140572  57.9891434  69.4039536  43.5401611
  58.9971886  70.3142090  42.8721313  53.2215004   5.7244368  55.9842377
  53.4107399   6.2941642  55.2387009  53.5070038   4.8559670  55.7005501
  23.9089909  40.9711685  89.0540237  24.4637947  41.7490387  88.9962463
  23.0150509  41.3111038  89.0146790  32.3172035   4.6597328  31.3291416
  33.0511589   4.5056419  31.9239483  32.5880699   5.4132609  30.8046799
  30.7423611   6.9350171  75.3649292  30.9909515   6.3150573  74.6792984
  29.9775715   7.3892117  75.0113220  60.1400375  59.5167465  87.3967743
  60.2504921  60.3282127  87.8923035  59.5619507  59.7554131  86.6721420
  53.7370415   0.4933769  58.9238968  54.5418510   0.4980505  58.4057350
  53.1896782   1.1681476  58.5222626   2.2282541  -0.1011716  58.5113411
   1.8073084   0.3987178  57.8119507   1.7390008   0.1320528  59.3003082
  63.3489952  38.6686935  63.0210762  62.6822548  39.2554169  63.3780708
  63.8920784  38.4367371  63.7743912   1.6066130   7.5735202  31.8928719
   1.7871405   8.4656477  31.5966454   2.2589839   7.0355682  31.4442596
  60.4054871  65.0114517  52.4519310  61.3186378  64.8843460  52.1945724
  59.9128265  64.9290695  51.6353951  34.7767639   6.4844675  66.5547714
  35.3267899   5.8111148  66.1543961  35.2021790   7.3100944  66.3232651
   7.1485720  69.4921188  42.2538872   7.1978316  68.9012604  41.5024300
   8.0161448  69.4420776  42.6551933  61.1696396  31.5104332  16.4721813
  60.9601631  31.1221504  17.3216457  61.8730698  30.9618931  16.1250248
  53.7693901  48.8773613  82.2438812  54.1323128  48.0980339  81.8229675
  54.4030037  49.0978508  82.9266357  21.5835514  60.2611160  42.2751579
  21.7034264  61.2006416  42.1367607  22.4446354  59.8814545  42.1001625
  16.6150475   9.3773909   4.7767706  17.0384464  10.0676012   5.2872348
  16.0945625   9.8467026   4.1247931  43.6057549   0.2256624  73.9533844
  42.7899208   0.7254081  73.9834061  43.3475037  -0.6681927  74.1782455
  12.9188042  47.7389297  59.6893501  13.7848568  47.3948593  59.4707184
  12.8740387  47.6859360  60.6440315  12.5154762  11.9151793  60.2225533
  12.2529907  12.0818005  59.3172531  12.3861952  10.9740582  60.3400650
  27.8769665  59.0579414  25.5980167  27.8603001  59.9432526  25.9615841
  27.0006332  58.7125664  25.7682705  84.2890320   6.0281935  89.2637939
  83.5075378   6.4563565  89.6133194  84.6277161   6.6425409  88.6125641
  48.5378799  53.4924507  74.5855026  48.8057747  53.9340363  75.3913956
  48.2574005  52.6228561  74.8707504  42.9614067  19.5732651  85.0562897
  43.1438942  20.4692593  85.3393555  42.0059929  19.5182362  85.0364990
  71.5411987  49.0509872  41.5630417  72.4274139  49.3971977  41.4581337
  71.6230621  48.3865433  42.2471771  68.7865372  45.3989182  11.7994576
  67.8980560  45.0454979  11.8434029  69.2353516  45.0128288  12.5516071
   6.0582590  57.1772270  83.6133194   5.5174522  57.9610596  83.5165482
   5.4290948  56.4639854  83.7213593  82.3963547  61.7478333  18.5204258
  83.1013565  62.3415985  18.7785816  82.8464508  60.9612083  18.2124252
  38.7490196  27.6978207  11.3856010  38.4706078  27.9171715  10.4964418
  39.7043495  27.6643734  11.3360577  65.6991882   8.2345848  78.5997467
  65.1028366   7.9637690  77.9017029  65.4435501   7.7022824  79.3530960
  55.2340279   3.5678518  27.8894882  55.6199074   3.2014902  27.0938072
  54.4375725   3.0551531  28.0274296  73.0872650  58.6721497  73.1735001
  73.9105988  58.9384308  73.5826950  72.5649796  59.4737053  73.1425095
   2.9592278  51.5020943   5.0877385   3.7106931  50.9989052   4.7741609
   3.2772431  52.4037323   5.1341171  16.9550724  61.5387650  38.7865448
  17.5834293  60.8926544  39.1089439  16.2176018  61.0178223  38.4687614
   2.4076040  38.0321236  56.1381378   2.6694002  37.9252052  57.0526123
   1.9152838  37.2366753  55.9353752  55.6826019  17.9187813  53.5654526
  56.1508598  18.6990547  53.2685699  55.2256660  17.6026211  52.7860374
  60.4593582   0.3917435  61.6371384  61.1652031  -0.1378229  61.2662239
  59.8588104  -0.2460088  62.0229454  11.0625210  50.0139046  88.8608856
  11.8898067  49.6133194  88.5937424  10.3910522  49.4941444  88.4190521
  78.3543854  27.4571362  41.6357346  78.6552505  27.2301769  40.7558441
  77.7183762  26.7760525  41.8544960   1.7164716  69.2803116  23.3340378
   1.6583377  69.2460556  22.3792191   0.8192444  69.1345825  23.6340027
  46.1304779  71.2259598  51.1169548  46.7161140  70.9935989  51.8375626
  45.2565765  71.0017242  51.4367218  11.7901525  13.4626780  77.6773148
  12.1123724  12.6745214  78.1145935  12.1662817  14.1857805  78.1791916
  80.9130630  12.5349045  43.1278000  80.9488525  12.3035975  44.0559425
  81.6044159  13.1875458  43.0167847   9.5529423  20.5944595  76.4742966
   9.6191292  21.4874840  76.1361313   8.6609678  20.5333023  76.8161621
  15.3123140  40.4356651  73.5670242  14.4219685  40.1878319  73.3178406
  15.1977472  41.0144501  74.3207626  24.5296497   2.0898707  33.5312119
  24.0070095   2.3476527  32.7718544  25.4213715   2.0105064  33.1924438
  75.2727432  24.2417336  34.2512283  76.0130920  24.6916351  34.6583061
  75.6450195  23.8205757  33.4764557  31.7632790  26.7549438  11.7360315
  32.2750473  26.0327320  12.1003618  31.4331436  26.4182358  10.9030437
  45.7060585  55.0322456  68.6232071  46.4860535  55.2968826  69.1108627
  45.1985435  54.5127716  69.2467499   4.2241488  42.6301003  53.3927002
   3.9513385  41.7489090  53.6482544   4.2826805  43.1114845  54.2179756
  56.3832474   2.7653439  23.2886505  57.0318451   3.2332957  22.7627468
  55.6558876   3.3814578  23.3757591  45.0164719  19.9787865  63.2063255
  45.3025322  20.8687782  63.0006104  44.2395287  20.0972099  63.7527351
  12.4142885  45.5035210   7.7517662  12.0693245  44.6890678   7.3858418
  12.9406834  45.2253151   8.5012608   8.2717237   3.2335496  27.5858440
   8.0703344   2.4409835  27.0883369   7.6192322   3.2490988  28.2860203
  63.6334114  49.4381752  84.4546967  64.4436340  49.9325867  84.5784988
  63.4035454  49.5810661  83.5365601  64.1175308  30.9746838  46.5801201
  64.7983170  30.5813637  46.0341682  63.4590073  30.2864742  46.6746941
   1.4885477  56.1413574  86.9211655   2.3353660  56.5843163  86.8671417
   1.3347200  55.8099594  86.0364380  38.7588730  23.6069012   3.4459343
  39.5310860  24.0815296   3.7535815  38.1043625  23.7449493   4.1306167
  14.7857809  44.8807831  38.6714478  15.4852657  45.5018196  38.4683113
  14.5923872  44.4560852  37.8357048  58.1197205  67.5551987  31.8155880
  58.5860634  67.6969147  32.6394043  57.2735291  67.1932220  32.0785751
  78.8128433   3.9743462  85.0625458  78.2163315   3.9589372  84.3141022
  79.6858215   3.9159634  84.6743011  59.0266533  49.9495773  79.7269058
  59.0356941  50.8649635  80.0065689  59.5096512  49.4854507  80.4106674
  72.7809219  29.2490788   1.4705708  72.9664230  28.3130417   1.5457726
  73.0881348  29.4845562   0.5951274  71.7296829  67.6243591  80.3576050
  71.3103027  66.9617462  79.8087006  72.6590118  67.5658188  80.1359024
  85.5589066  23.8692532  72.3054123  84.8046036  24.2843361  71.8871155
  86.0819397  23.5337067  71.5773468  20.6004410  49.7149239  13.7639551
  21.1066647  49.1194267  14.3165445  19.7206936  49.3380318  13.7488470
  14.0966997  45.2905045  73.1913452  14.8474855  44.8773651  73.6178055
  14.0379515  46.1560974  73.5957413   8.8222094   1.8296558  78.9928436
   8.3725834   1.3803461  78.2771759   9.4714518   2.3826060  78.5581512
  59.3930817  27.9567585  74.2798462  58.9514313  28.1147614  73.4454575
  58.8623848  27.2852097  74.7083435  62.6545906  11.0297318  41.1267509
  62.4227486  10.1048260  41.0429039  61.8134460  11.4846001  41.1692352
  61.8778229  13.1682844  44.0145645  61.0279274  13.2786474  43.5882683
  62.4295082  13.8486700  43.6286240  61.9320602  32.1503830  49.0831490
  61.2239304  32.1763039  49.7266655  61.4962921  31.9468174  48.2555618
   0.1031956  14.5520325  78.9198685   0.5764130  13.7901182  78.5855331
   0.1618678  15.1981926  78.2161179   1.2534671  68.2160568  57.8749084
   0.9520613  67.4053421  57.4648705   2.0830622  68.4109039  57.4389725
  41.3968468  16.6469746  73.6240158  40.4516258  16.7905712  73.6705399
  41.6955185  17.2398109  72.9344025  79.9073944  -0.0057697   6.9150686
  79.4646378   0.4869348   7.6060386  80.4612427   0.6406098   6.4772573
  80.0830002  61.0113602  17.2255936  80.2717972  60.3161545  16.5952930
  80.9361877  61.2365074  17.5965500  44.1700401  68.8364868  41.0043869
  43.3435898  69.3132782  41.0810623  44.2562637  68.3712921  41.8364868
  26.6807880  59.5419922  29.6311760  25.9647274  59.8745155  30.1723957
  26.3421516  58.7271881  29.2601566  34.8113747  45.6731644  32.1708527
  35.1178169  44.9645424  32.7366943  34.8643570  45.3127785  31.2856712
  49.0923653  66.0040359  43.8610344  49.1411324  65.5443726  43.0228424
  48.4469032  65.5109100  44.3674278  56.3196297   0.5462708  57.7784081
  56.9751282  -0.1294687  57.9514046  56.8205795   1.3608614  57.7368927
  44.0353432  30.1562634  73.8650665  44.7836609  29.5656605  73.9513245
  44.3345451  30.8352299  73.2603226  73.4857941  70.0553284  29.7343979
  73.9269257  69.2167206  29.5988674  72.8366013  69.8772430  30.4148884
  35.0829582  47.1222343  38.3343811  35.1103020  46.5307732  37.5822792
  35.9699402  47.0946274  38.6931686  18.5402603  53.1241531  34.1966324
  17.7316704  52.7758942  34.5722961  19.0359383  53.4444962  34.9502335
  74.8940201   9.9907436  68.6414719  75.4565659  10.4544048  69.2617874
  75.5030060   9.5386677  68.0575180  63.0425034  31.0984192  10.5530481
  63.6633759  30.8236942  11.2277908  63.0023575  32.0509911  10.6380596
   3.1967492  34.2835579  14.4770966   2.4515042  34.8142662  14.7585068
   2.9920998  33.4007492  14.7853212   4.3692737  27.5472336  45.6893044
   4.4883566  28.4361954  46.0236626   4.4800005  27.6307316  44.7422028
   9.0829544  19.7725315  15.6790848   8.4705658  20.0618401  16.3554821
   9.9123755  19.6537399  16.1418819  28.7350292  28.3017979  76.2742004
  28.2017994  27.6569080  75.8094254  28.6195774  29.1113396  75.7766571
  53.9088783  62.9425621  81.7356186  54.6032410  63.0266533  82.3890839
  54.3653183  62.9792404  80.8950500  57.9836464  70.6965103   2.1040070
  57.4759178  71.0710602   2.8238389  57.3648224  70.1291351   1.6442541
  75.9588242  36.3302956  15.9095154  76.7838211  36.7555733  15.6755152
  76.0182037  36.1965065  16.8554573  69.4001007  62.1041374  82.8655930
  69.4645309  61.6994171  83.7306290  68.4599762  62.1477509  82.6909866
   4.9354806  52.2179298  60.6969986   4.5970473  51.3451004  60.4973373
   5.8690124  52.0816193  60.8587685  72.8160172  26.7486248   2.9709415
  72.2068024  26.0223484   2.8382077  73.3360596  26.4890690   3.7314751
   1.2902467  20.6931114  54.4855080   1.4676218  19.9554939  55.0691948
   2.0026515  20.6696854  53.8466301  82.3535309   2.5057673  78.9179230
  82.6133194   2.6524000  79.8274536  82.2641678   1.5555751  78.8445663
  28.1675072  37.2129059  88.0329742  28.1970825  38.0845680  88.4273911
  28.1615524  36.6127090  88.7786026  75.2370148   9.9229860   3.1517210
  75.9761963  10.1129723   3.7294288  74.4641571  10.1473351   3.6699767
  80.3191147  24.9305592  26.6905422  80.2570724  24.1496353  26.1405029
  81.1712341  24.8540821  27.1198158  82.4788284  23.6533203  49.2961159
  83.0736313  22.9073486  49.3733597  82.1730118  23.8093300  50.1896286
  55.3287621  60.8390617   6.9347491  54.8332291  61.6568108   6.8903980
  56.0928421  61.0508003   7.4710121  83.9135666  62.5349846   9.5196753
  84.0334549  61.5854187   9.5332756  84.2234497  62.8278198  10.3766785
  86.1795578  26.7060432  80.7366409  86.4996109  25.8042278  80.7596054
  85.7386017  26.8251877  81.5778275  69.7171402  31.0236073  46.8432274
  69.2807846  31.7963085  46.4844017  69.1022949  30.6809158  47.4918823
  85.5857849   2.9425149  36.2035561  85.8251266   3.8678038  36.1507339
  85.2069168   2.7438600  35.3472672  69.5125427  19.6703568  43.9357719
  68.8176193  19.1830406  44.3783073  69.9729462  19.0118523  43.4155464
  59.0605621  45.9093437  26.9606400  59.9137306  46.2911415  26.7543240
  58.8365746  46.2724342  27.8175106  70.6423721   0.8316948   1.5954173
  69.8668442   1.3849751   1.6885012  70.8033218   0.4946593   2.4767420
  69.5142822  53.2688942  74.8273392  70.0135269  53.5629349  74.0654144
  70.1546555  53.2443581  75.5383606  11.8983622  25.5704517  18.7175274
  11.2180395  25.2356453  18.1333199  11.6641054  26.4880199  18.8569012
  29.7049026  64.7962418   1.3432498  28.8304558  65.1464844   1.5132703
  29.6882019  63.9167480   1.7206659  60.4369392  13.8551188  88.3015442
  61.0387306  13.2820807  87.8264618  60.9768028  14.2587004  88.9811783
  68.3156281  53.0107422  82.8440857  68.3813324  52.0560265  82.8233566
  68.9249725  53.2778702  83.5322495  52.7705421  46.0750084  64.7405167
  52.2715302  45.7095413  65.4710312  53.2550430  46.8063164  65.1235046
  86.4117432  67.6584549  53.1901474  87.1043472  67.1170578  53.5688667
  86.8071671  68.5256195  53.1012878  49.6359863   7.1727881  12.1508083
  49.0301590   7.0493760  12.8815451  50.2544174   6.4461803  12.2270718
  18.4945240   4.6469254  33.7800331  18.8780613   4.8961229  34.6208839
  18.1877213   5.4714932  33.4029503  85.0246353   8.3802471  32.6633034
  85.7871399   8.9557390  32.6030579  84.9195938   8.0285015  31.7792950
   1.8917813  61.8599091  11.3663845   1.3431573  62.3211594  10.7319622
   1.3130387  61.6997681  12.1117992  14.1185989  32.9941673  64.1983337
  15.0639009  33.0029259  64.0481415  13.9389009  32.1193428  64.5427551
  24.7195511   5.8521619  20.7135773  25.3549252   5.2547545  21.1080875
  25.2370567   6.3913765  20.1155243  43.9417534  15.8706970   8.1351843
  43.4623947  16.6262913   8.4750738  43.3048096  15.4081812   7.5905628
  61.3543777  56.9235344  58.9105644  61.7969513  56.1581306  58.5437965
  60.7174492  57.1752243  58.2418289  13.1426926  22.4340343  52.3772316
  12.8557281  23.3335590  52.2199402  12.3883104  22.0100422  52.7863426
  61.8624878  52.9094467  47.3825302  61.0449409  53.1866188  47.7960739
  62.0121155  52.0250435  47.7167091  17.9188118  43.2627258  47.0968285
  18.2583485  44.1013832  46.7844200  18.6680984  42.8437080  47.5201797
  71.0228882  23.4520683  48.0535469  71.1245651  24.3498421  48.3696136
  70.7384567  23.5488739  47.1447220  62.2397003  30.9163647   6.7134213
  63.0322418  30.3862133   6.7973499  61.5313416  30.2774010   6.6347475
   7.3291836  22.6801834  60.8283806   8.2344141  22.4362240  60.6353188
   7.3903680  23.2272778  61.6114349  25.7821636  65.4949265  10.6630745
  26.4714832  65.2622147  11.2850981  26.2383690  65.9639587   9.9644203
  70.9377975  39.9459076  34.6853676  71.1871948  40.0289764  33.7649727
  71.7270584  40.1873779  35.1701202  34.5095558  50.4592514  85.7268600
  33.7460175  51.0321655  85.6560974  34.5193176  49.9704437  84.9039383
  27.3836060   3.5479867  66.9991379  27.6974831   3.1353781  67.8037949
  26.9523678   2.8405938  66.5196991  61.9119072  39.9852638  57.2758255
  62.2573051  39.1841278  56.8819847  62.6173668  40.2968483  57.8428116
  36.8323174  52.5700417  17.6308289  36.4632149  51.9586639  18.2681789
  36.8110352  52.0930367  16.8012257  52.5759201  34.0831909  17.2918816
  53.1000366  33.2829247  17.3251915  52.0167542  34.0357323  18.0673275
  64.3259506  38.5603905  26.5409260  63.7303658  38.1390305  27.1605778
  63.7531853  38.9109497  25.8588085   8.0163345  65.0475540  60.1873016
   8.3930569  65.9274445  60.1972656   7.9013696  64.8257599  61.1113281
  74.4679642  37.2783203  32.8308678  74.1665421  37.6106567  31.9853325
  74.2847290  36.3393898  32.7982864  85.0788116  67.3646927  73.5781937
  85.2033615  67.9350586  74.3367462  84.2473145  67.6490021  73.1987076
   5.0018711  36.2528191  43.5122070   5.2456694  35.3283768  43.4653053
   5.7290392  36.7138100  43.0939407  83.9380875  46.5391159  38.7700424
  84.4993210  45.7872543  38.9596558  83.1816711  46.4244843  39.3453026
  53.0072212  50.4236832   1.3118215  52.4091759  50.3739014   2.0575387
  53.4641304  49.5825806   1.3146654  12.5746317  59.0242958  48.5204544
  12.1608200  58.3888321  49.1045570  11.9670954  59.7637482  48.5020103
  57.4030914  49.6349258  55.8772888  57.5998497  48.8516197  56.3910522
  58.0058327  49.5921097  55.1349297  54.5814476  66.5529327   2.4874382
  54.5276222  66.8023529   1.5648729  55.0583687  65.7230225   2.4837487
  14.5034370  47.0232391  75.6506805  13.8641920  47.5110207  76.1699753
  15.3531733  47.3211632  75.9753723   5.6899848  31.2042179  33.0344963
   6.5181212  31.4649715  32.6314697   5.4574199  30.3857899  32.5959549
  72.4403610  58.2455292  22.8723450  72.9627838  57.9660797  23.6241531
  72.8695679  59.0444260  22.5661087  61.7930794  65.3973083  20.3787746
  61.7776184  66.3242569  20.6170254  61.9188499  65.3959732  19.4298744
  28.8976250  56.3202400  19.0484276  28.5539818  55.9587097  19.8653984
  29.6384315  55.7550621  18.8293095  83.3673172  52.8224335  69.8123093
  83.6473160  53.1488686  70.6674576  83.0425034  51.9392776  69.9877014
  30.9867363  31.1509418  80.8647614  30.7986622  30.5485191  80.1450806
  31.6286640  30.6879673  81.4031067  80.0108643  50.1644363  31.8690758
  79.4034424  49.4249725  31.8906231  80.8337631  49.8082733  32.2040710
  53.6777229  36.3938026   7.4338775  53.4217300  36.2552757   6.5220056
  53.7626572  37.3435822   7.5171638  60.3666763  69.7745056  79.5801086
  59.4727554  69.5933914  79.2897110  60.9052353  69.6295166  78.8021851
  29.3827190   5.3476286  30.0501194  29.8858013   4.9134068  29.3612118
  29.4727974   6.2814436  29.8600998  50.2524643  52.4030304  60.6452942
  50.1869888  51.6628189  61.2486458  51.1409798  52.3474922  60.2936020
  16.6517353   0.1422777  73.3206329  15.8852158   0.6929824  73.1612473
  17.0331841   0.4901939  74.1266632   1.7418745  58.4130287  18.5040989
   2.1867118  59.2572784  18.5788727   1.6074545  58.2955894  17.5636883
  21.6665459  52.5619278   7.5133410  22.4436398  52.0098686   7.4262466
  21.1844673  52.4273453   6.6974254  44.8567848  34.6637268  86.6048126
  44.9306183  35.1367950  85.7759705  45.6065521  34.9630928  87.1190720
  40.1243629   0.5693141  29.5161037  40.3718338   0.9591524  28.6776428
  40.1482086   1.2985834  30.1356430  57.9523506   3.6309061  13.2591276
  58.4188423   3.3121088  14.0317783  57.0431709   3.3683827  13.4030104
  72.0298691  52.4128532  76.3522949  71.5235977  52.3963547  77.1644821
  72.9081345  52.1343994  76.6118164  13.8531218   2.8721249  82.9568253
  12.9805374   2.7903299  83.3417130  14.1071463   1.9736212  82.7461319
  30.9048958  59.8109055   2.9917617  30.4764862  60.2585144   3.7213802
  31.8378315  59.8477631   3.2027247  53.7537079   3.9175420  24.1913490
  53.0429001   3.3040938  24.3775234  53.4055481   4.4862819  23.5046539
  16.8057537  66.7573929  41.9721756  17.6525784  66.8008423  41.5280724
  16.1722527  66.6230316  41.2672997  76.2921066  64.2579422   9.3396111
  76.9805069  64.7812347   8.9291153  75.5373154  64.8451462   9.3808851
  82.7633286  65.7028275  10.5622873  83.0851974  64.8636322  10.8915071
  83.0983963  65.7533340   9.6670713  17.6838169  46.4843483  29.4997482
  17.6007710  45.8440819  28.7930717  17.0795002  46.1756821  30.1748466
   5.2042537  42.8383026  45.8281937   4.6725655  43.2567062  46.5053024
   5.0777164  41.9001541  45.9699516  60.1927986  25.9955616  24.1654530
  60.4226761  26.5288448  23.4045334  59.8060989  26.6151562  24.7841587
  30.8580875  26.5546341   5.0235834  31.3778324  26.1849995   4.3098130
  30.4697895  25.7940197   5.4559259  51.3602829  30.4356728  87.6402054
  51.5631332  29.9628201  86.8330536  50.6102219  30.9854984  87.4136353
   4.9993029  15.7127676  21.8990269   5.1054077  16.3663731  21.2078171
   5.0223966  14.8730230  21.4401932  82.7104721  69.3489380  80.5239182
  83.6128082  69.6224518  80.6888733  82.3425980  69.1991348  81.3948135
  71.3198853  36.5182533  55.7801933  70.7987595  36.4823418  56.5822945
  70.8979187  35.8918419  55.1921616  62.8793869  34.7096519  84.8756943
  62.4819908  34.9785728  85.7039413  63.5105743  35.4013290  84.6771622
  74.9673080  36.0690308  22.8130093  74.8691254  36.6247406  23.5861721
  75.8574142  36.2410736  22.5058632  27.9491158  69.2916412  61.5962105
  27.9895535  70.0834732  61.0599251  28.5099907  68.6644058  61.1398811
  77.7407227  65.1767807  52.4681816  77.6244202  65.1716614  53.4182777
  78.6876068  65.2401199  52.3431320  46.3628273  23.8990116  17.1977139
  45.7296524  23.3355179  17.6424541  46.1604767  23.7990685  16.2674999
  78.9635086  44.1530571  72.2045898  79.1938248  43.2303543  72.0959396
  78.3568344  44.3346138  71.4868011  14.1032515  68.4775925  19.3413792
  13.1762428  68.3142090  19.1676140  14.4510965  67.6259384  19.6058102
   8.5630808  36.3038216  18.6280727   7.9405737  37.0042305  18.8233795
   8.0177822  35.5731316  18.3365669  61.8897324  57.9851532  22.2420158
  61.0278130  58.3740883  22.0934982  61.7260170  57.0423851  22.2668858
  57.4666252  20.3103485  55.2432480  56.6984825  20.8814774  55.2439499
  57.1649323  19.5026588  55.6590004  84.8194885  60.3332748  75.1572952
  85.0867081  61.2084045  74.8762817  85.6287079  59.8220444  75.1505508
  19.5918922   0.5200204  31.2958279  19.5350704   1.1085117  32.0486107
  20.1342411   0.9915663  30.6635818  35.6828918  20.2541065  83.0673141
  34.8428078  20.5684605  83.4014893  36.2910156  20.3746624  83.7966156
  30.6788349  29.7450314  78.5623398  30.7601547  29.6885338  77.6102753
  30.3435097  28.8879375  78.8253632  48.2346573  57.9035263  60.4622192
  47.9781685  57.0405083  60.1371841  49.0097771  58.1320343  59.9491844
  61.6315460  52.7034721  16.7264137  60.6805038  52.6891022  16.6189957
  61.9500160  53.2026024  15.9742994  67.5879974  10.2948656  63.5126534
  67.5792007  10.8073702  64.3210449  66.7547531   9.8238087  63.5186234
  41.1492157  46.5586815  79.8726273  40.6871796  46.9273262  79.1197281
  40.4549255  46.3245544  80.4885635  85.8418655  45.3041916   9.3923578
  85.5061646  45.6390076  10.2238846  86.7838669  45.4698105   9.4302607
  58.7288589  65.3054962  49.9745102  58.3563576  65.0624695  49.1269188
  58.6990814  66.2621918  49.9837723  31.3226032   8.4302731  22.1813507
  32.1357536   8.0017452  22.4485321  31.5869713   9.3192167  21.9444542
  52.0466080  46.2774086  69.5195999  52.5533295  47.0539513  69.2820206
  51.6445541  45.9933777  68.6986771  55.7325706  15.3198862  66.2404633
  55.4869232  15.7257710  65.4091110  56.6820526  15.4307156  66.2897873
  16.8533401  33.2301407  63.5598984  17.0559349  33.1490440  62.6279030
  16.9764862  34.1597900  63.7517624  24.2936363  45.1651421  75.1599655
  24.2356567  44.8650246  74.2528763  24.7260914  46.0171890  75.1031570
  24.4722691  55.7350388  50.2080956  24.2698021  56.2831841  49.4499550
  23.7684650  55.9177933  50.8305855  83.1513824  68.4244232  65.7542496
  84.0709915  68.6531601  65.6192398  82.6738892  68.9761505  65.1347046
   3.6799731  57.7762871  64.5517960   3.7276495  58.4442101  65.2357864
   4.4587994  57.2369881  64.6889648   8.9028482  35.3431129  42.9267578
   8.7423239  36.2862167  42.9586716   8.5346394  35.0657349  42.0878830
  45.0878754  66.6650772  17.2124100  45.9836044  66.7862701  17.5273857
  45.1716614  66.6306763  16.2595043  22.0756588  46.3543053  42.8445778
  22.1545105  47.2802544  42.6151543  22.6997318  45.9111481  42.2697945
  37.5921936  64.7321091  57.0283318  37.4974365  64.3623123  56.1505470
  37.3401260  65.6502609  56.9299164  81.8480606  59.6626892  39.5666199
  81.6632233  58.8289490  39.1342468  81.8480606  60.3054848  38.8573608
  59.7217560  60.5346451  24.9874802  60.3427429  59.8516312  25.2406502
  59.5352898  60.3589249  24.0652084   4.2321610   6.2297978  75.7343750
   4.7210989   6.1479430  74.9155502   4.2046404   7.1714835  75.9037933
  83.7343140  35.5180511  12.8107033  83.1819992  35.0629120  12.1750698
  83.1333847  36.0982971  13.2780657  50.2913094  16.3514919  34.1455574
  49.8737411  15.9171619  33.4017639  49.8615875  15.9762363  34.9141617
  79.8889999  59.6227341  78.4187317  79.5039368  59.9422913  77.6027451
  79.3780441  60.0480766  79.1073837  66.9377060  45.3228226  85.6781845
  66.7291946  46.0334625  86.2846069  67.6317978  45.6778030  85.1227951
   0.9408903  42.1144905  83.9959030   0.8673407  41.5636787  84.7752762
   1.8773823  42.1259308  83.7982025  56.9176216  21.3363628  12.2041378
  55.9932442  21.5146503  12.3772688  56.9750099  21.2738552  11.2507067
  44.8204575  24.7357979  67.9764557  45.0615501  25.4035473  68.6184921
  44.4970322  25.2321377  67.2246094  23.5464153  65.2881546  57.2814102
  24.3549500  65.0889435  56.8093758  23.3381805  66.1881332  57.0306015
  20.6584225  68.5678787  20.6332874  20.7427101  68.0855789  19.8107853
  20.5829887  69.4841919  20.3669834  50.9219856  46.8756027  72.7832489
  50.6381378  47.4674873  72.0865860  50.8669662  47.4012299  73.5813217
  28.7974567  47.9715652  55.4540062  29.7512169  47.9309845  55.3838158
  28.6300774  48.0650749  56.3918076  56.5298080  51.5672379  12.9544029
  57.0804672  51.0471916  12.3691158  57.0604095  51.6827850  13.7426538
  59.6032906   7.5643344  78.8076172  60.4946289   7.2441735  78.6688766
  59.2142258   6.9343657  79.4142456  21.5734043  57.1911469  66.8735428
  22.2433815  57.6630859  67.3681412  20.8090019  57.1867523  67.4496536
  40.5680275  60.5419426  36.7898483  41.0231285  59.7014084  36.7387276
  40.5543823  60.8621674  35.8879051  62.2334480  34.0090294  78.1744156
  62.3728714  34.9261398  78.4104385  61.6120644  33.6856384  78.8267441
   4.7961926  34.9643364  25.9749908   3.9989109  34.4346542  25.9720039
   5.1909795  34.7980995  26.8309937   1.2469556  36.8263550   7.2924299
   1.1115999  35.9014130   7.0865350   0.6042889  37.2881355   6.7539420
  49.7133942   9.2578983  88.5262756  49.0960388   8.5264349  88.5344772
  49.1607704  10.0370512  88.4649734  40.7421188  46.8448029  34.5165863
  41.3221931  47.0961304  35.2353210  40.6266441  45.9003525  34.6210594
  13.7219229   6.5066681   8.2051001  12.9862089   7.0935063   8.3799629
  14.0495348   6.7818627   7.3488460  81.5619965  50.5981903   9.2602215
  82.1434021  50.6501961   8.5016050  81.9876785  51.1386795   9.9257269
  27.8427162  19.3584747  72.4872360  26.9650898  19.4200249  72.8643570
  28.4211273  19.6985912  73.1698761   2.1852891   6.5949836  67.6578445
   2.3281901   5.8295188  68.2145081   1.4887341   7.0834627  68.0965118
  73.3213730   6.7617092  68.2281189  74.2203827   6.6096697  68.5194855
  72.8426514   6.9742866  69.0292816  33.2170334  27.4090004  71.8282547
  33.5710144  26.5557289  72.0789642  32.2843285  27.3516827  72.0356369
  83.1469193  41.2330589  80.5488129  83.5921707  41.3888359  79.7159195
  82.2446213  41.5125771  80.3939972  86.0872421  62.2251358  28.8005733
  86.7223816  62.8415298  29.1651134  85.5404968  62.7580223  28.2232285
  13.9749069  14.2080526  81.3126297  14.5666523  14.6861734  81.8935471
  14.3087177  13.3109531  81.3162994  65.5353394  60.2175331  13.2913494
  65.7868347  59.2976074  13.3733101  65.7836914  60.6092491  14.1286726
  30.3355865  71.1302261  73.4634781  31.0669174  71.1559067  74.0805130
  30.7294674  71.3388977  72.6164017  62.9190102  36.6852493  39.3787460
  63.3374290  36.7677422  38.5218048  63.6477776  36.6362572  39.9973984
   1.6599247   9.2123680  47.0559540   0.9946001   9.8589010  46.8202209
   1.6275023   9.1729136  48.0117912  37.6626740  26.2212124   4.6828747
  37.3985329  26.6564636   3.8723090  36.9671974  25.5853596   4.8509145
  27.7656097  11.7100191   1.1286438  28.3009357  12.0738783   1.8338132
  27.2306118  11.0405798   1.5550938  82.0842590  60.9860191  70.4510803
  82.3433533  60.1803017  70.0039520  82.9025345  61.3408661  70.7985611
  56.0234184  67.2323303  39.0852051  55.1095200  67.0373535  38.8778229
  56.5082741  66.9666290  38.3038292  43.8282738  37.8882294  11.2010536
  43.9404945  38.7190323  11.6630077  43.2403641  37.3806381  11.7604694
  57.8583412  25.9534912  75.6843948  58.5392036  25.6422577  76.2808762
  57.6951942  25.2131691  75.0999832  65.2840881  21.7311153  17.6217327
  64.7579727  21.1738873  18.1952591  65.7422714  21.1181622  17.0467625
  11.0360184  61.1786346   4.1624923  10.9616899  62.0745354   3.8337495
  10.4578266  60.6671066   3.5965736  58.9645615   3.0984516  74.6652298
  59.7238503   2.9051507  74.1153717  59.3161697   3.6263225  75.3821335
  55.2170601  14.6636477  11.7312593  54.7915916  14.5394268  12.5796576
  54.5827065  15.1618242  11.2158499  53.6557846  25.3793125  29.5117130
  54.5287323  25.2769814  29.1326046  53.0743065  24.9289989  28.8990688
  80.2561111  35.9621239  51.9490128  79.4731216  35.5173759  52.2735939
  79.9363708  36.5272560  51.2457199  58.5938530   5.1011615  19.3359127
  57.9844551   5.4146595  18.6676407  59.4593582   5.2157922  18.9434967
  84.1224060  37.0147858  21.8722191  83.7674866  37.6320724  21.2325172
  84.8346024  36.5733376  21.4094830  21.9207764  38.8383751  18.0366631
  22.0578880  39.0117378  18.9679947  22.4491692  38.0606079  17.8574848
  78.7850113  55.9581757  52.6152992  78.4641495  56.5394783  53.3047676
  78.7590866  56.4916267  51.8209534  60.6466484  18.6493664  74.0534210
  60.4448013  17.8300858  74.5053864  59.7947693  18.9853497  73.7747574
  71.1271667  14.6441059  58.1916122  70.8915176  13.8130770  58.6040344
  70.4720306  15.2644291  58.5113411  22.2236519  11.4568148   6.9790244
  21.5047016  10.8342638   6.8705139  22.1518021  12.0397844   6.2232366
  14.6501436  51.7106400  22.1137295  15.0708809  52.0308113  22.9116669
  15.3747959  51.5458374  21.5104465  11.6645632  47.3613548  66.7006760
  12.0184593  46.5334435  67.0255661  10.7787447  47.4010963  67.0611954
  79.6657562  47.0228806   6.1961679  80.5492859  47.1218758   6.5508614
  79.4169159  47.9059410   5.9231954  43.3422508   7.0131950   5.5247641
  42.5267487   7.0765915   6.0219259  43.1636848   7.4839635   4.7106867
  58.1120605  36.7036667  59.8256378  58.5499191  37.4937363  59.5089302
  58.8264389  36.1194954  60.0798798  46.8464127  27.8408833  69.1833878
  47.7031479  27.4176292  69.2389374  46.9743500  28.5603714  68.5651627
   8.5724859  12.9029646  53.7645226   8.6637506  12.0215569  54.1264954
   8.2622223  12.7635098  52.8698044  75.9940491  32.1743698  23.5504704
  76.0766296  32.1175232  22.5985336  76.6376953  32.8344955  23.8077221
  17.2728844  45.5668335  44.8696671  17.5863094  46.0808220  44.1254845
  17.6163330  44.6869240  44.7146568  65.2765732  59.3595352  72.8221436
  65.0363159  60.0897751  72.2518234  64.6797028  58.6541367  72.5723724
  48.9376564   8.6946421  27.3950939  49.7723618   8.6308594  26.9309464
  48.5620461   7.8163214  27.3342514  64.9219818  36.4351616  84.2956619
  64.8109207  36.6890755  83.3794556  64.7271271  37.2312508  84.7901306
  65.8115997  36.8421440  24.7951698  65.2219009  37.5322990  25.0987644
  66.2294998  36.5163651  25.5923290  66.4792480  21.8708344  85.5619354
  66.9692688  21.3820362  86.2231369  65.5735550  21.5814857  85.6725159
   2.1882591  53.6083832  26.2702427   1.5970827  54.2207184  26.7081795
   2.9036546  53.4792900  26.8929596  35.7424850  11.6891394  67.0938873
  36.6567001  11.6321497  66.8160477  35.7882996  11.8946447  68.0276413
  23.2321644   4.1286130  60.2816505  24.0440178   3.7189653  60.5805092
  22.7284927   4.2743139  61.0824738   8.4565897   8.9216127  14.5957661
   8.1468296   9.1818981  15.4632521   9.1505718   8.2858114  14.7700586
  72.5918427  13.6584864  36.3445244  72.5916748  14.5126514  35.9125137
  72.6595612  13.8619204  37.2774048  41.0870323   7.9754105  81.5938568
  40.1367645   7.9859090  81.4793396  41.3907852   7.2791815  81.0114212
  23.2277374  19.4090748  86.1324692  23.1647167  20.3150215  86.4349976
  22.6168461  18.9273090  86.6900940  67.8634567  53.8875618  71.8035431
  68.4060135  54.5499115  72.2315140  66.9666977  54.1209297  72.0435333
  17.3429527  64.5796967  75.1355286  17.9127655  64.5265427  75.9028091
  16.8116741  65.3616791  75.2854462   9.8505573  70.5770569  78.5930862
   9.4509945  69.9849548  79.2302628   9.1086226  71.0044327  78.1651688
   7.7022343  54.7920494  57.0041504   7.4126801  53.8939095  57.1645775
   6.9315000  55.3287811  57.1888580  46.0573311  64.2019653  80.9886627
  46.9585724  64.1922531  81.3109970  45.5966873  64.7940521  81.5831985
  58.4703674  17.1627598  48.8066139  58.9933662  17.9541149  48.9349098
  57.6540604  17.4757366  48.4168472   6.1046257  46.7499619  75.0761337
   6.9092374  46.8525696  74.5679016   5.8694205  45.8283386  74.9688034
  43.4604340  41.6137772   4.1323833  43.7210388  42.4160309   4.5848298
  43.0105362  41.0971336   4.8008914  79.1642990  33.6965599   8.1565952
  78.7084045  34.0049438   7.3734655  80.0766144  33.9512138   8.0185242
   5.1410432  17.0503159  19.5935383   4.5656710  17.0768929  18.8290291
   5.9897285  17.3470192  19.2650089  57.9057274  26.1250324  79.2889328
  58.5799751  25.6600952  78.7935028  57.9538307  27.0266247  78.9710541
  58.0724831  33.0077362  57.0238838  58.3288841  32.0863228  57.0624466
  57.7264633  33.1232224  56.1389160   3.0316923  55.6824913  83.9908829
   2.4313297  56.0373039  83.3352127   2.5859585  54.9054604  84.3281937
  65.9459763  12.2259998  43.8016281  65.1664886  12.3166065  44.3497391
  66.6083221  12.7630186  44.2365227  47.5718689  27.2033520  64.7255630
  47.4181061  26.6294708  65.4760666  46.7186394  27.5991974  64.5479736
  29.2765503  21.9457607  -0.1438859  29.6836662  21.8149967   0.7124962
  28.7702103  22.7523613  -0.0477240  25.6122589  62.3079720   6.9086337
  24.7907181  62.7841148   7.0294123  26.1930313  62.6570511   7.5847106
  41.4575272  29.4648342   7.6061721  42.0419197  29.2394142   8.3299828
  42.0244255  29.8941383   6.9654264  76.1593781   1.5767636  83.0944977
  76.6610870   0.8092666  82.8197861  75.8873596   1.9908183  82.2754745
  45.3428383  30.2482548   8.8777456  45.0514755  29.4550343   9.3273487
  45.7266426  29.9325981   8.0596457  58.0697899  43.4978752  53.9466591
  57.6081123  44.3164711  53.7650452  58.2740822  43.1412354  53.0821915
  41.3888893  56.4461060  60.0022888  41.2178879  57.1281281  59.3528023
  40.5244751  56.0917892  60.2107964  55.5516472  28.2740707  30.0355225
  55.6656265  27.3474274  30.2466469  55.0335808  28.6230087  30.7608376
  74.6838684  48.4060783  49.4377518  75.3479156  47.8656120  49.0097618
  74.5060272  49.1077385  48.8114319  38.9652328  34.1228905  70.8939438
  38.6628723  34.9262466  70.4703522  38.8664589  33.4468460  70.2235413
   9.7990160  41.0093613  17.3987961   8.9982233  41.4114571  17.7353725
  10.1434917  41.6478806  16.7744083  56.8041039  39.5475655   5.1361113
  57.4841805  40.2209244   5.1539836  57.0074005  38.9819908   5.8811150
  67.2025909  70.9970093  52.2667236  67.7794418  70.6749802  51.5740662
  66.3460312  70.6244736  52.0575562  73.4025803  56.2412758  84.5023270
  73.4318695  57.0421295  83.9788742  72.8692703  55.6369896  83.9859467
   1.0033056  16.4075413  12.2859116   0.7037817  17.2758904  12.0166807
   1.9162914  16.5379086  12.5422173  36.4761047  50.0068970  28.1173038
  36.8162193  50.7102890  28.6702938  36.1646576  50.4514122  27.3288631
  72.4998703  23.4419384  58.9123039  72.5441818  23.2133503  57.9838562
  71.6569290  23.8848248  59.0099640  19.1603756  55.3780899  83.5305862
  19.5371418  54.9412346  84.2944183  18.3096886  55.6967392  83.8322983
  51.7224007  12.5267572  77.7250519  51.0116158  12.2407684  77.1512680
  51.3403549  12.5171719  78.6026535  70.0536957   4.2150407  47.3078651
  69.4284210   4.2359705  46.5834198  69.6092300   3.7165310  47.9935532
  52.3670502  30.2294464  51.6822243  51.9622612  29.3627701  51.7175598
  52.7778549  30.2668877  50.8184700  10.2590790   9.5028954  82.6401901
   9.7220268  10.1764021  83.0575638   9.8401136   9.3536692  81.7925873
  50.4282913  41.2401428  55.5613518  50.1716690  42.0796623  55.9429131
  49.6070404  40.8548889  55.2558098  17.3956127  65.3148651  30.9044247
  16.5291061  65.6833344  30.7322979  17.6932526  64.9947968  30.0528393
  74.0987930   9.8761292   0.1307107  74.7095566   9.4765844   0.7500301
  73.3962250  10.2256327   0.6788722  60.5441246  44.6345444  11.0594893
  60.1822090  44.5545883  11.9420185  60.5498352  43.7392349  10.7209396
  54.5464935  11.4608011  77.8302155  53.7567291  11.9767294  77.6679840
  54.2443161  10.5525589  77.8260422  13.7828465  37.3153458  55.1398697
  14.2607594  36.5090485  54.9456635  14.2711506  37.7158661  55.8591576
  63.9212074  57.9750786  33.3139000  63.2521858  58.6539536  33.2257538
  64.5320511  58.3236542  33.9632072  33.2985725  50.7506523  33.2245598
  33.2413940  49.8365517  32.9463806  32.7198982  51.2204170  32.6239853
  52.2426529   5.7916884   9.2971230  52.1635208   6.2265611   8.4480906
  53.1704559   5.8680553   9.5197887  29.1322479  62.1311722  68.0043564
  29.7965641  61.8720703  68.6429291  29.6196671  62.2605858  67.1907806
   0.3548413  19.2020149  12.0609808  -0.5007205  19.6172371  12.1697807
   0.7990661  19.3462696  12.8964968  14.5230408  34.4996834  79.0366974
  15.3949709  34.1644707  78.8278885  13.9851112  34.2530365  78.2843475
   8.5475206  20.4192257  56.8923492   8.3082762  21.1286144  56.2958908
   7.9966192  20.5579910  57.6627274  50.6233368  70.2508392  80.1692734
  51.3785439  70.4459076  80.7241058  50.7491226  70.7965546  79.3929901
   2.8163178  49.8138695  40.5058632   1.9116291  49.7041931  40.2130470
   2.7454159  49.9789009  41.4460602  36.1691170  49.2926407   4.5857940
  36.9225845  49.5985794   5.0906925  36.3457527  49.5843163   3.6913903
  40.9758682  60.7015953  60.4882736  41.3890533  60.2193146  59.7720947
  40.1748161  61.0592804  60.1053696  24.9805660  62.3474083  62.2014809
  25.1673107  63.2849197  62.1521835  25.0941181  62.0330887  61.3045197
  23.5331707  17.8387108  83.8823471  24.0793152  18.2802258  83.2319489
  23.4888382  18.4533157  84.6148300  70.5682678  51.0436783  54.2789383
  70.5002136  50.9268532  55.2265434  70.5771561  50.1532326  53.9278603
  33.6566200  64.9180908  46.5146294  33.3819504  64.7393646  45.6152725
  34.5673332  65.2018127  46.4350204  68.9707718  29.5333595  22.3849182
  69.3081284  29.8493786  23.2231045  69.7068558  29.6262512  21.7801170
  25.8524246  10.7229013  26.0194454  24.9216480  10.8100328  26.2251091
  26.2995815  11.1650915  26.7410755  30.0088921  67.3595734  36.1844635
  30.4425240  68.0585556  35.6949654  30.7240849  66.8004837  36.4880257
  70.8148880  16.3413315  52.9402847  71.3659439  17.0491714  52.6063232
  71.0171432  16.3009930  53.8750038  70.5541306   1.6623285  58.3366776
  69.9158020   1.6763002  57.6235313  70.1419296   2.1681540  59.0370140
  22.1065369  54.0393715  46.8401413  21.5106640  53.4548683  47.3086700
  22.8720646  53.4976196  46.6485596  77.7300873   9.6821537  81.4385071
  78.2225189  10.2096910  82.0673523  78.2750626   9.6768608  80.6516113
  73.9759140   2.3772423  42.1702423  74.6284943   2.7407522  41.5717201
  74.2382584   2.6969466  43.0334930   6.9350839   5.3022094  48.6422539
   6.9321446   5.2159486  49.5955544   7.4352331   4.5461597  48.3348923
  82.2657242  31.5757084  36.1898346  82.3326263  31.4448833  37.1356888
  82.9658051  31.0355968  35.8232269  50.0656395   5.9980602  17.2042847
  50.4469376   6.3242655  16.3891563  49.8473663   5.0848866  17.0179977
  21.3517628  70.8487549  13.5617142  20.9047680  71.6403732  13.8613234
  21.1532040  70.1937561  14.2308846  35.4828720  39.2356033  82.1638718
  35.4756927  38.3624763  81.7716522  34.5885239  39.5569534  82.0493927
  76.2650986  14.5599356   6.1210651  75.9917526  13.6468487   6.2093062
  75.7736969  14.8852329   5.3667841   4.0965457  18.5085983  22.5631123
   3.6209273  18.6775055  21.7497921   4.8685431  18.0126572  22.2905464
  39.7284470  44.0410690  73.4916153  39.7479095  44.7393265  72.8371811
  40.1050301  44.4382401  74.2769012  81.9154968  37.3889961  61.6325951
  82.0909271  36.8221931  62.3837204  82.5807419  38.0748749  61.6895638
  73.8721390  25.2999744   0.4230165  73.7742767  24.6225510   1.0921605
  72.9951706  25.6717739   0.3285444  41.6301270  62.9545593  38.0823708
  40.9450035  63.5946388  37.8896561  41.3120842  62.1392288  37.6946602
  65.0582809  42.3940086   0.3915952  64.8515701  43.2058525   0.8546402
  66.0038986  42.2912636   0.4987522  84.4840317  64.1849289  27.7641449
  84.6181564  65.1005630  28.0088139  83.7695999  64.2093048  27.1275711
  57.1320534  57.2857819   6.3879738  56.2898216  57.0644913   5.9905996
  57.7776566  56.8217125   5.8549910  47.4164619  52.6790161  68.6859283
  47.4068565  52.7344551  69.6414719  47.9803810  53.4014816  68.4097519
  58.4600334  48.3753357  39.1734161  59.1933327  48.2948952  38.5634689
  58.7453041  49.0354156  39.8051987  72.7973709  10.1580944  21.2134361
  72.0429459  10.6299372  20.8606701  73.1976166   9.7415371  20.4502087
  85.4442520   3.3265629  57.8674164  85.9927750   2.8356967  57.2555351
  86.0077286   3.4772036  58.6263847  71.3356018  51.9479332  59.6090775
  71.7467957  51.5731964  60.3880005  70.6439438  51.3267708  59.3810349
  26.8317223  52.9199867  54.7062721  26.1447449  52.2598724  54.6138573
  26.6602879  53.5443954  54.0013237  25.9207420  10.7731256  62.8765907
  26.4975491  10.8896513  63.6315384  25.0574398  11.0415230  63.1910820
  77.8865280  45.8550568  36.7354126  78.3618851  45.1140976  37.1112289
  77.8931961  45.6904984  35.7924881  40.2675056  50.6378822  53.1174850
  39.8457336  50.2778664  52.3372765  40.4367065  49.8758545  53.6714859
  24.6196938  22.4452019  64.4358215  24.8686581  23.3502998  64.6230316
  24.1410961  22.4947052  63.6083374  34.4923782  37.8748550  88.1343231
  33.6300621  38.2388039  88.3347855  34.6011620  38.0203171  87.1945190
  58.4237366  63.3766937  57.8694572  57.4742470  63.3024902  57.9653320
  58.7564621  63.3684387  58.7669296  13.0808926  57.4372482  61.5856667
  12.8215160  57.1384506  60.7140732  13.3069801  58.3595352  61.4652443
  43.7836800  31.9881687  68.4360580  43.3196182  32.1907005  67.6237411
  43.3752251  31.1816330  68.7505341  57.6028900  57.4059525  52.9959717
  57.6012840  57.5692902  53.9391289  57.9797249  56.5307541  52.9051056
  10.6319342  38.8629799  16.1105995  10.2089481  39.6450157  16.4651909
  11.3670473  39.1997147  15.5983019   8.0507650  21.7242222  22.9485741
   8.3696470  20.8606682  22.6862392   7.1053658  21.6844921  22.8040981
  82.0315933  71.4584274  20.5391636  81.4819489  71.2363510  19.7876263
  82.3666534  70.6166229  20.8479214  42.9710541  46.7134933  48.6849251
  43.5185432  47.4267540  49.0131721  42.3982506  46.4936256  49.4196281
  58.7846680  52.2705078  60.4264603  57.9839096  52.0452309  59.9528847
  59.2776375  51.4510078  60.4668388  10.9526482  33.8675919  86.1143646
  11.5374365  33.3764572  86.6914597  10.1677275  33.3236008  86.0495224
  71.1751709  63.8545456  52.8967171  71.9145279  63.2467537  52.9097404
  70.4684525  63.3630791  52.4781075  62.6238708  71.9564438  32.1609116
  63.3264427  71.3064041  32.1524429  61.9237976  71.5592270  31.6428890
   4.0297198  49.2380180   8.1376381   4.8064108  49.1179428   7.5912271
   3.3677258  48.6720123   7.7406068  41.9226227  46.2377930  45.6958771
  42.2884712  45.9134102  46.5187759  42.1537628  45.5692749  45.0509834
  61.6286316  50.2627983  58.9064064  61.1195641  50.0134621  59.6777153
  62.2170677  49.5225105  58.7582359  36.8918839  47.3744850  29.3732700
  37.6858482  47.4479027  28.8436871  36.3334274  48.0894699  29.0680504
   0.7089747  52.3786888  41.2177429  -0.1593303  52.7798347  41.2546082
   0.5805507  51.5755768  40.7130127  47.1068382   2.3968027  25.4904976
  46.3823395   1.8993160  25.1112385  46.6827850   3.0972304  25.9862919
  40.0453072  22.0022011  75.4586411  40.6645851  21.3955898  75.0527496
  39.6716156  21.5096817  76.1894073  63.0839691  40.1462517  47.5243225
  62.1287231  40.1264572  47.5821571  63.3686790  39.3626556  47.9945946
  43.7388191  37.6391182  88.4769058  43.9415131  36.7096138  88.3712082
  43.5462570  37.7377434  89.4093323  73.9495087   4.4682841  84.3384933
  74.8088684   4.7957220  84.0729294  73.5127945   5.2274752  84.7246857
  84.2186584  51.6245956  55.3103561  84.1211090  50.8865700  55.9120522
  84.8235550  52.2181168  55.7554016  44.0739136  56.5069656   6.5975447
  44.0135040  56.8193245   7.5003266  44.5984840  55.7083702   6.6550074
  43.8164139  68.5333481  70.1823196  43.0652313  68.5428085  70.7755051
  43.6460686  67.7995071  69.5918198  10.7195845  12.7572327  85.2656403
  10.1524134  12.0655470  84.9248734  11.1058493  12.3820724  86.0570221
  25.9676933  70.5613403  88.5883636  26.4049091  70.6045074  89.4387817
  25.4838467  69.7356949  88.6094437  41.5711479  39.4984818  14.4255924
  40.9908524  38.7598801  14.2413206  42.4218063  39.2264748  14.0811653
  38.8140030  40.2102623  16.0947399  39.5163383  40.8600655  16.1214314
  38.4513626  40.2130165  16.9805832   4.6449800  56.5677872  53.6603165
   5.0811925  56.7962418  54.4811440   5.2498560  56.8597260  52.9783134
  23.6033077  53.5402184  30.7712288  23.3975353  53.1198082  29.9362755
  24.0714436  54.3389931  30.5282459  41.2788353  65.4250870  78.7508545
  40.5658493  65.1073761  78.1968307  41.9077377  65.8050766  78.1374054
  76.2500763  56.6823425  66.3474579  76.6838989  57.1746979  67.0443192
  76.4320297  57.1824532  65.5518417   4.2640786  28.5303631  79.2393494
   3.6084547  28.3122005  78.5769348   3.9677472  29.3642540  79.6041107
  11.5576782  -0.0725490   5.8882642  11.3386765   0.7589923   5.4677773
  10.7734671  -0.6103124   5.7784657  64.2995605  65.6338501  33.6676025
  64.0592422  64.7074890  33.6856995  64.8074112  65.7652283  34.4682655
  18.8915596  62.5394440  67.7024002  18.9143581  62.1544876  66.8263168
  18.9437141  61.7895241  68.2949600  50.5295486  44.1753922  55.2139740
  50.8053093  45.0850906  55.3263855  49.6412773  44.2360725  54.8625107
  12.1372242  50.7444038  29.1515388  11.9202452  50.1638641  29.8810081
  12.2910604  51.5959587  29.5607128  83.6425705  55.9491959  31.1166630
  84.2462921  56.6702156  31.2952290  83.5113373  55.9758377  30.1688766
  67.2591248  42.1182060  80.5279160  66.3602676  42.4467888  80.5098419
  67.7054977  42.6765862  81.1644592  77.7461700   0.6215799  14.1607656
  78.6844101   0.8058232  14.1161890  77.6815567  -0.3247720  14.0324106
  80.5000076  37.8251648  54.0961723  80.5368195  37.0961075  53.4770203
  81.2976761  38.3256569  53.9245491  63.5484085  47.1537170  39.3824997
  63.8093681  48.0721817  39.4499741  64.0239944  46.8250237  38.6196060
   6.4789343  56.5472755  63.1684113   7.3129101  56.1839485  62.8705711
   5.8595405  55.8218575  63.0887260   9.0615368  39.1368599  65.9455872
   9.8232689  39.3469887  65.4053650   9.0128059  38.1810379  65.9294815
  82.2760162  22.8882160  28.7940216  81.8361969  22.0410271  28.7228947
  82.5551453  23.0889187  27.9006920  74.5762177  39.6687393  18.1418514
  74.3963089  38.9219818  18.7130070  73.7149429  40.0456924  17.9620094
  74.1527634  46.5212822  26.4638557  73.9848480  47.3252335  25.9722290
  74.4140930  45.8841438  25.7990284  67.0597382  57.5827065  41.1202736
  66.2659302  57.1700897  41.4606361  67.7754517  57.0616302  41.4842300
   0.7424933  36.2722092  55.1514740   0.9627116  35.4766998  54.6668129
  -0.1980472  36.2008247  55.3143196  84.9523010  69.8446274  75.2815094
  85.6435547  69.7048798  75.9287109  85.2830734  70.5508575  74.7264786
  71.0349045   2.1026409  83.2456665  71.9671402   2.3172982  83.2127075
  70.9540024   1.4994074  83.9844437  15.4645977   5.9222116  79.2911987
  15.2447443   5.4974246  78.4620743  15.1346369   5.3240256  79.9616699
  45.7735405  17.4640217  62.3139610  45.4775276  18.3645153  62.4470673
  45.0072861  16.9275188  62.5170517  68.9399109   4.0470104   6.3879161
  69.6562424   4.6127563   6.0997605  68.9520874   4.1127038   7.3427815
  50.2686234  29.8961353  79.9711609  49.8220901  30.6049995  79.5081787
  49.8079376  29.8287449  80.8074951  73.6488571  66.4139862  25.1527786
  73.1490097  66.6561356  24.3731995  73.2661819  66.9394073  25.8554325
  36.5633736  67.1607513  70.4148865  36.3071098  67.0784683  69.4963074
  37.2293129  66.4845200  70.5392609  39.2613029  52.1668396   2.7637820
  40.0401688  51.6150513   2.8354220  38.5358009  51.5477257   2.6826854
  23.9211445  60.8661308  82.0907593  24.2825089  60.3234024  81.3899841
  24.5133057  60.7282410  82.8300552  38.9318848  12.3822508  36.7405930
  38.0844688  12.8217363  36.6700706  38.8511620  11.6142054  36.1750641
   5.2893152  64.2370071  44.6118011   5.3693466  64.8423843  45.3489189
   5.6462231  63.4116478  44.9398804  42.2624817  53.8153038  60.1878471
  41.5158882  53.3706589  60.5892448  42.0393028  54.7450981  60.2315559
   4.0792260  54.8595200  63.0810928   3.4170680  54.8154488  62.3912849
   3.5829566  54.7750015  63.8952217  13.5074606  48.9017220  87.5263214
  13.8420296  48.1848984  88.0652618  14.2800274  49.4287376  87.3222885
  46.3695183  11.6979074  63.9999428  45.5489731  11.2497759  64.2051697
  46.4888649  12.3197308  64.7178040  61.9695168  10.3677063  18.1885967
  61.6104164  10.8154669  17.4225750  62.1603661   9.4817514  17.8805523
  80.8287506  66.3523560  56.1557693  80.6360474  65.4210510  56.0472717
  80.9597244  66.4617004  57.0976410  16.1286316  39.8420448   2.8783000
  16.3967876  39.7450180   1.9645652  16.9426861  39.7664566   3.3761318
   9.1993456   3.3233411  82.9557343   8.9230824   3.1172011  82.0627518
   8.7780218   4.1606979  83.1495132  26.8603096   4.3063684  81.6649780
  27.4102879   4.5400176  80.9172058  26.4464703   3.4819031  81.4095840
   3.9719877  31.9181557  53.2639313   4.0583143  31.9479237  52.3110962
   3.7621894  31.0044022  53.4569855  33.4218407  23.5802193  73.6013947
  32.4871597  23.6080933  73.3968735  33.7283211  24.4731579  73.4434128
  82.2070160  40.2891960   2.1909170  81.3091583  40.1962509   1.8724062
  82.2760925  39.6520462   2.9019024  46.1644249   6.7283759  18.6270504
  45.2700500   6.4894614  18.8704529  46.1356239   7.6781487  18.5115776
   5.2982664  14.1160421  59.5254517   4.4162164  13.8925371  59.8225479
   5.4039402  15.0377846  59.7609406   4.1505117  53.0382042  82.8369522
   3.5646107  53.5551453  82.2840271   3.5725501  52.6273766  83.4799194
  72.6690369  69.2748795  87.2890015  71.7578735  69.5550766  87.3756027
  72.6798630  68.7364578  86.4976578  36.4036789  63.2974586  38.6018066
  36.9035835  62.6707497  39.1248360  36.7998428  63.2530212  37.7315712
   4.4843774  68.9389343  77.3599396   3.9392922  69.5614014  77.8412399
   4.6146026  68.2129440  77.9700241  12.1269140  42.2851982  67.8839111
  12.6374855  41.9878960  67.1308136  12.1983147  41.5719795  68.5183029
  53.4991646  16.6263065  61.7166443  52.9637451  16.9413548  60.9884262
  54.3098831  16.3262997  61.3055954  57.4635315  13.0013733  52.4241447
  57.6296501  13.5589542  51.6640549  56.6285782  13.3139277  52.7725677
  77.2301254   6.6061797  80.2064209  77.5911865   5.7996206  80.5742874
  77.2318420   7.2244716  80.9371338  40.6454277  49.8602295  27.0058270
  40.3134460  50.5538177  27.5758743  40.1988297  50.0019379  26.1711407
   1.8973653  68.8265228  13.1835089   1.1571966  68.3242950  13.5243187
   2.2082305  68.3170395  12.4351625  75.6181030  22.9917660  73.5798187
  75.9798203  23.8730068  73.6736679  76.3832779  22.4312458  73.4511032
  21.3857956  25.8568802  64.5780945  21.7494297  25.2995434  65.2661133
  20.8444939  25.2671585  64.0532532  19.0785580  20.0016441   7.5495152
  19.7640285  20.6400852   7.7463803  18.5060596  20.0207520   8.3163986
  23.1083508  38.8359375  85.4410934  23.2210274  39.6090927  84.8881302
  23.8598995  38.8536606  86.0336227  70.7485199  46.7928734  58.1383591
  70.6521606  46.8448410  57.1874390  70.7526779  47.7049141  58.4288750
  14.3524771  68.1889801  81.4989700  14.7881260  67.5717239  80.9112396
  13.4245481  67.9615936  81.4400482  51.3451843  65.0272903  19.1960869
  51.7499275  64.1949463  19.4402409  51.1776657  64.9458618  18.2571850
  28.1680737  22.6245956  59.2413712  29.0370541  22.9881058  59.4115562
  27.8854542  22.2740631  60.0860519  76.4203262  59.6967468  40.2674980
  76.8537598  60.3757515  39.7504654  76.4497757  58.9175568  39.7123146
  84.6100464  10.4818001  64.8192978  83.7030640  10.7001867  64.6049805
  84.6944809   9.5565825  64.5889206  23.5555534  46.7161446  85.5655518
  23.8403702  46.8126411  84.6568222  24.3493481  46.8569717  86.0815887
  47.6253471   1.8328716  50.2097321  47.6708412   2.4551666  50.9356194
  47.1776924   1.0701183  50.5758553  79.7016678  10.0389223   2.7916453
  79.0456390  10.3866053   3.3957825  79.2844849  10.0870085   1.9314809
  65.7594681  43.0184250  19.6276093  65.7274704  42.0719376  19.4884338
  65.3485947  43.3893623  18.8467007  43.0284081  22.6846104  71.9768677
  43.8818855  22.3021202  71.7731323  42.3958969  22.0282097  71.6848068
   5.9774728  46.0379639  27.2876987   5.6624737  45.5151901  26.5503273
   5.2364144  46.0696449  27.8927269  16.4291534  41.9511948  61.7635536
  16.9751453  42.1840477  61.0126190  15.6922216  42.5606537  61.7220268
  42.8047981   4.7174997  85.9207687  42.3505516   5.2159767  85.2414932
  43.7318840   4.7958622  85.6958237  54.6984901  27.1852608  70.5004501
  55.5569153  27.3046646  70.0941467  54.6767578  27.8294487  71.2081070
  19.4905281  62.1490135  75.4867477  19.7087421  62.5675201  76.3194962
  19.4345093  62.8725052  74.8625259   5.6570916  25.2773209  64.2289810
   4.7119699  25.4283257  64.2157593   6.0011358  25.9625931  64.8019257
  67.5164032  44.7381783   3.2857533  67.4812698  43.8306198   3.5879674
  68.3355331  44.7952690   2.7938263  73.1665649  57.6673050  46.2172737
  72.4380569  58.2155914  45.9259109  73.8364639  57.7809868  45.5430794
  68.0026855  45.7051315  71.3563690  68.1807632  46.2321243  70.5774002
  68.8630676  45.5625114  71.7508850  24.9325771  41.6924896  75.5998154
  24.1751175  42.2167244  75.8599396  24.5579395  40.9453506  75.1332779
  23.3457336   1.3707968  70.4496460  24.1091805   0.8157104  70.6085815
  23.6458340   2.0121458  69.8055649  32.4426804   3.0984983  75.2875900
  32.6993561   3.8866606  74.8088913  33.2124329   2.5311282  75.2450943
  46.1377411  47.2628326  19.9809990  46.4249649  46.3676834  19.8008728
  46.5789528  47.4961586  20.7977753  45.5715790  50.3862152  56.4189491
  45.7770882  49.8827209  57.2066612  45.0453606  49.7911797  55.8848495
  38.0031548  57.8776436  23.9404163  37.2643204  57.4451561  24.3685570
  37.6513138  58.7179565  23.6466198  61.2106285  16.6559925  61.7300568
  60.8708725  17.5147076  61.4782524  60.7112846  16.0356922  61.1989136
  53.0896606  63.4491997  22.2827816  53.4785652  62.6203232  22.5619793
  52.3958931  63.6152611  22.9210148   3.3290703  32.0487823  76.3336182
   3.5257075  32.8183594  76.8677673   4.0520658  31.4458828  76.5068817
  86.3585587  11.8807335  63.1719971  85.7506256  12.1731577  62.4929237
  85.8382339  11.8807220  63.9754181   5.7369461   1.5450435  20.9715042
   5.9819527   0.8850036  20.3230057   4.8202987   1.3554847  21.1716461
  80.6440659  28.0193596  50.1723785  80.1675186  27.5127277  49.5147591
  80.0613251  28.0345135  50.9316025   4.8204041  22.0408363  60.3216896
   4.7796021  22.2539520  59.3894081   5.6645832  22.3879242  60.6100006
  17.0105972  67.1669006   9.4607515  17.2292366  66.3070374   9.8200006
  17.7081490  67.3476562   8.8306875  18.1400242  56.4702148  69.0427704
  17.2200394  56.7330894  69.0702438  18.4061680  56.4334908  69.9614944
   1.1317492   9.1987104  66.2584839   1.0230080   8.4468765  65.6761169
   1.3744534   9.9191093  65.6768036  44.7282982  24.9928932  86.8615036
  44.6284599  25.8308277  87.3133087  43.8687057  24.5780010  86.9335938
  47.8946838  46.4245758  34.6548347  47.7776794  45.6570892  35.2147484
  47.6946335  46.1104813  33.7730408   1.5679508  41.4202766  47.0348167
   1.5066144  40.4701424  46.9362640   2.2538683  41.5493431  47.6898689
   3.5414090  61.3907852  35.8890266   2.9401698  60.6716728  35.6950684
   3.1198049  61.8696289  36.6026039   4.0196643  54.7854996  35.5822563
   4.4326792  53.9253883  35.5056763   3.1560647  54.6727142  35.1851311
   9.6183796  53.9388084  33.2332420   9.7000952  54.1563416  32.3046761
  10.0690250  53.0991211  33.3230820  63.1210022  28.4697323  87.1044312
  62.4630013  27.9224796  87.5331268  63.6798935  27.8497066  86.6359940
  54.4754753   2.3082764   6.9181595  55.1005363   1.6357644   7.1888270
  54.6013489   2.3855364   5.9724226   4.3982358  10.6424236   4.4208603
   5.2975841  10.7846546   4.7161136   4.4847584  10.3938875   3.5005476
  37.0482750  44.1857529  81.9554291  36.4349174  44.4163017  82.6531906
  36.4928436  43.8676262  81.2437210  71.8241959   0.9026234  72.4519348
  72.5236740   1.5318784  72.2758713  71.4996948   1.1418976  73.3200836
  38.7016373  61.9827614   1.2373916  38.2924652  62.6236115   1.8188750
  38.1519356  61.9850655   0.4537760  61.8358765  20.4415436  82.3053741
  62.7916985  20.4926434  82.2997360  61.5815735  20.6116123  81.3983841
  74.5069122  33.5796814   5.8404045  74.5228729  34.3210907   5.2351871
  73.8499298  33.8184052   6.4943280   8.9467812  40.1810265  44.6085777
   8.3760538  40.7947121  44.1460915   9.5905809  40.7369766  45.0475197
  85.9019165  39.7464561  47.9189835  86.6507797  39.1545334  47.8478775
  86.0695343  40.2501564  48.7154922  18.8065548  49.4233437  48.0761642
  18.8381348  48.8905334  47.2815895  17.9211388  49.2941589  48.4161339
  59.3720627  69.3616714  55.1083984  59.8890419  69.6393433  55.8646126
  58.7940254  70.1030426  54.9281769  42.3062210  38.8143654  25.6030006
  42.2073212  39.0743179  24.6870995  41.5892868  39.2576828  26.0565491
  58.5835876  23.1043587  43.0439262  57.8813896  23.6472950  43.4022102
  58.3995132  22.2253933  43.3752365  61.3915329  26.2671471  42.5231857
  61.3931313  25.5773659  43.1868324  60.5851593  26.1216011  42.0284004
  40.1337662  19.4380360  64.5225525  39.3165855  19.8944035  64.7229919
  39.9328308  18.5131321  64.6653976   3.7079501  32.2784653  61.7435684
   3.1721063  33.0581322  61.8892365   4.0985260  32.4141388  60.8802757
  35.1508636  12.6120796  69.7257919  35.4660034  12.2209883  70.5406342
  34.5519028  13.3033838  70.0078812  83.7366257  41.9004173   4.3777013
  83.8697205  41.0239716   4.7387547  83.0878983  41.7779579   3.6845994
  21.4758472  17.0974121  78.1157303  20.9165688  17.3315296  77.3750381
  22.3454781  16.9830437  77.7324677  57.7810936  66.1580124  72.9402771
  57.2809029  65.3563156  72.7875671  58.6346550  65.8528671  73.2477646
  80.6938477  16.6258373  77.0596848  79.7884064  16.9164619  77.1690063
  81.1792145  17.0934868  77.7393494  41.9889412  36.1819077  12.2616987
  42.2302017  35.4242020  11.7288685  41.6944122  35.8070145  13.0917215
  69.7094193   9.8168459  57.7067986  70.0703888   9.6281357  56.8405914
  70.0384674  10.6904840  57.9182625  35.3224754  39.0443726  76.8131561
  35.6567841  39.8468132  77.2138519  36.1055565  38.5801201  76.5173721
  63.4967690  40.7936058  44.6830711  64.3085632  41.1136856  44.2896538
  63.7077065  40.6816673  45.6100044   1.0921209  32.3656197  38.8806267
   1.8205991  31.8643970  38.5141220   0.3717968  31.7374687  38.9334602
   5.7919102  20.3672237  12.1881590   6.5491514  19.8171501  12.3887520
   5.5190506  20.0895023  11.3137159  69.4307632  12.3879490  47.2836266
  69.1971893  11.7558222  46.6038551  69.7565689  13.1482458  46.8019295
  44.1736412  65.7874222   6.2593870  44.3737144  65.1040115   6.8990350
  44.3322105  65.3747025   5.4104161  14.6414089  15.4391985  75.8805771
  14.8599920  14.8033266  76.5618439  13.8325186  15.8494730  76.1865234
  60.7540131  60.7476692  62.0218620  60.8616028  61.6976128  62.0694008
  61.5457077  60.4387016  61.5814247  11.5194712  48.2174454  85.4822617
  11.7339334  48.2192459  84.5494003  12.3603621  48.3444481  85.9215927
  65.3140717  33.6990776   4.7206836  65.8442383  34.4750366   4.9024601
  65.5301056  33.0905037   5.4272251  48.7277603  32.9090233  58.6264610
  48.1105537  32.3633270  59.1138000  48.6773987  32.5834885  57.7277260
  48.2811775  46.0844002  87.1518555  48.0325699  46.7751884  86.5376587
  47.5812607  45.4355621  87.0786819  55.1890793  47.2243118  15.3767424
  55.3721237  47.1027603  16.3083820  55.0512581  46.3381577  15.0421209
  52.7053947  20.2421055  82.9308929  52.1009941  19.6469326  83.3744049
  52.1893959  20.6210079  82.2192688  77.7503738  23.9323711  78.1458664
  78.6230316  23.5393543  78.1303787  77.1816406  23.2682419  77.7563705
  58.3168297   8.8911610  86.2682190  57.5702896   9.0011272  85.6793060
  57.9485703   8.4722309  87.0461121  64.8929749  26.9685421  52.8685608
  64.3957443  26.4641323  53.5124283  64.2255096  27.3973579  52.3329811
  86.1661301  19.1535454  87.7588043  86.6619797  19.5762882  88.4599838
  85.4810181  18.6625004  88.2123795  60.1352463   3.9267254  48.3670731
  59.6619415   4.4719172  47.7385979  60.8295631   4.4944682  48.7014809
  36.2557106  60.0972939  70.4256973  36.0698280  60.4524117  71.2949295
  35.5283241  59.5003242  70.2502899  51.5543175  29.9482250  10.5995750
  52.4508514  29.6845207  10.3924084  51.6545181  30.7137909  11.1653509
  77.9580765  58.7472610  74.8982773  78.0619202  58.8014984  75.8482819
  78.7660522  59.1216888  74.5472565   4.0837445  39.9986725  53.5061874
   3.1968880  39.6385994  53.4981689   4.6401882  39.2710495  53.2283974
  59.0343475  57.5223541  24.5775394  59.3366508  56.6187706  24.4859848
  59.7223129  57.9550018  25.0832596  77.3635941   5.8535509  43.6504364
  77.7377625   5.2509508  43.0077057  76.4437561   5.9324861  43.3976402
  51.1582603  55.0376930  52.8410606  51.6105995  54.7485619  52.0485840
  51.5345230  55.8969650  53.0316238  13.3297787  56.7071571  20.0083466
  13.6560726  57.4320564  20.5415306  12.4979734  57.0241547  19.6564274
  11.4149332  31.1897202  78.2801514  12.0202780  31.8344116  77.9138718
  11.3847370  30.4910965  77.6265106  78.6239777  55.6359520  88.8029633
  79.3471985  55.1102257  88.4611969  78.9895782  56.5159035  88.8938293
  81.2888107  52.4018974  73.2902222  80.7837143  51.5982933  73.4140396
  80.6983948  53.1014099  73.5700836  57.7602539  19.6230774   8.9403696
  57.5581169  19.1863346   8.1129465  58.3751907  19.0343571   9.3779697
  13.9820795  28.5946846   5.5001988  13.9802561  28.3620319   6.4286928
  14.5556526  27.9461861   5.0919142  62.7291069   1.4390266  42.2100372
  62.0383530   1.9291440  41.7640839  63.4644470   1.4501383  41.5973511
   0.4199324  60.1787910  13.6816940   0.0089256  61.0288048  13.5242682
  -0.0946456  59.5635185  13.1593161  39.8738480   0.6033403  54.1493340
  38.9729233   0.4222896  54.4172783  39.7961845   0.9288933  53.2525558
  76.1112823  47.9755898  81.6056137  75.5485611  47.2449112  81.8619080
  76.4238358  47.7420578  80.7315369  87.1394119  13.4402733  42.1239624
  86.8223038  12.5938339  42.4389420  86.4339218  14.0528421  42.3319778
  47.7243919  61.5187874  80.7029724  48.0585327  61.7709274  79.8421555
  46.9630890  60.9704895  80.5131912  69.3936462  17.8305569  70.9505005
  69.3683472  18.7165222  71.3119659  70.2638321  17.5035400  71.1786728
  43.1943779  50.0365219  60.1859283  43.2130585  50.7739105  59.5758896
  43.4196548  50.4208145  61.0331573  24.2896099  49.6262665  40.3738823
  24.3716660  50.1188164  39.5572472  23.6605701  48.9331970  40.1733894
  62.8724480  42.3573265  15.9604673  62.3368950  42.0327148  16.6843758
  62.5910568  41.8419838  15.2045078  85.1097870  65.3130417  41.1376572
  85.4706116  64.4379272  40.9954987  84.1760101  65.1656113  41.2878761
  70.7537460  46.8707733  43.8716965  70.6157684  45.9747047  44.1787109
  69.8912659  47.1561203  43.5701485  22.4307556   9.7374506  61.2272148
  21.6392384   9.5178127  60.7357979  22.2994328   9.3343735  62.0854187
  45.0367851  22.5140629   0.8976551  44.2651138  23.0655346   1.0266203
  45.7195969  22.9308739   1.4232672  66.4794617  50.1777153  84.8378448
  66.9718552  49.8615875  85.5953674  66.8849792  49.7404480  84.0891266
  51.3617287  59.0171127   2.4543877  51.4083214  58.7907562   1.5255047
  50.9692726  59.8900414   2.4687932  80.1826782   9.8101645  62.3488007
  79.4276886   9.6823606  61.7744370  80.4294815   8.9260674  62.6202660
  82.7759705  12.1429348  81.1183090  82.1764221  12.5648680  81.7337341
  83.1443558  12.8651791  80.6095047  79.5910034  36.9442177  16.8044071
  79.3812027  37.6900330  17.3665276  79.4527969  37.2686462  15.9145327
   2.4900115  17.4942322  84.7789154   1.5723667  17.3070259  84.9766922
   2.6805081  16.9660950  84.0036621  54.5472221  19.1793861  24.6200180
  54.7578583  18.7424068  25.4451923  54.0857964  18.5150604  24.1081696
  11.3672228  45.7425117  63.3073997  10.7296362  45.8149071  62.5971375
  11.7587538  46.6139030  63.3675308  72.7014694  28.4488163  39.7889519
  72.4345093  28.3257866  38.8780022  72.1676254  27.8252468  40.2812881
  83.0219040  28.1579037  61.5631866  82.9675446  27.2906570  61.9646378
  82.1122971  28.3966923  61.3847923   4.8950014  64.4897995  22.1581974
   4.5469728  65.0417557  22.8585224   4.6779170  64.9593964  21.3528481
  53.7601509  48.7421837  19.2771168  54.2182007  48.9000053  20.1026535
  53.2595062  49.5435219  19.1239929  43.1171608  13.2220068  78.4276581
  43.0715065  12.2771902  78.5741806  44.0504189  13.4019670  78.3142014
  83.1428986  61.4507790  26.7639961  82.7712555  61.8499374  27.5506248
  82.6929474  60.6094475  26.6868896   3.2728524  70.7006073  82.0440445
   3.6898263  71.4988022  82.3684616   3.0453668  70.2109680  82.8344421
  70.7551346  43.5966644  51.8499947  70.1912308  44.3285713  51.5998726
  71.2420197  43.9179077  52.6089211   5.1021705   2.7055514  45.8933792
   4.9268799   3.0187118  46.7807541   4.3093791   2.2293739  45.6464615
  34.2259483  43.9840355  53.8994904  34.8454933  44.5363197  54.3763390
  34.6161118  43.1102982  53.9237480  61.4387436  48.7902489  46.8446655
  60.7890472  49.3999481  47.1945114  62.2505035  49.0196533  47.2970543
  46.7092400  68.5483170  82.1979065  46.3938675  67.7849579  82.6816940
  46.2933655  69.2943344  82.6300430  63.0512085  70.1745682  41.5558128
  62.8686485  71.0933685  41.7525597  63.9831161  70.0691986  41.7473373
  69.6851807   2.6969559  76.6944885  69.0099564   3.3406231  76.9089661
  69.5364990   1.9795470  77.3104782  18.9456310  56.3315506   2.2713010
  19.0424366  57.0826111   1.6858360  18.2750320  55.7891426   1.8561815
  35.8639641  51.6417618  59.5899734  36.2395172  50.7920799  59.3592453
  35.0398216  51.4284744  60.0276146  70.6474838  71.1199112  64.6054153
  70.9856720  71.7986374  64.0212936  70.0108109  71.5742416  65.1572037
  13.7614603   7.9712319  58.8117828  13.5945730   7.7955337  57.8857613
  14.4714422   7.3730574  59.0448990  40.9133911  55.9706421   2.0909824
  40.8704872  56.5326958   1.3173616  40.0833092  55.4940033   2.0870748
  58.8474312  50.8309898  63.8502922  57.9984856  51.2730942  63.8421593
  58.6756592  49.9903870  64.2746887  78.8000488  50.5930862  45.5470619
  77.9595032  50.9324036  45.8545837  79.4042206  50.7580147  46.2709503
  49.3549347  71.8463669  17.4887104  50.1938705  71.4519196  17.7270947
  48.8725433  71.1409836  17.0574665  59.7270432  38.6987724   7.4836426
  58.9007988  38.3310776   7.7972531  59.8429718  38.3189507   6.6127076
  21.6739540  16.4168053  17.5692310  20.7763844  16.1088104  17.4437733
  21.6588821  16.8594418  18.4178047   3.8874578  18.7665253  63.0213585
   3.8608801  17.8866787  62.6453323   3.1422112  19.2186394  62.6258392
   2.8722939   3.2750380  83.4941559   2.5010026   2.7860849  84.2285233
   2.8073180   4.1923232  83.7598572  86.4594650  67.2271118  13.8816719
  85.9196243  67.4817200  13.1333513  85.9281006  67.4481201  14.6465549
  11.6637259  58.6443596  84.4069901  11.5360184  59.3773651  85.0091705
  10.8135462  58.2053642  84.3803329  17.6126919  30.6172104   1.5548471
  17.4773960  29.9855824   0.8484657  17.9027615  31.4142323   1.1111712
  48.8630638  16.0799789  72.1715775  49.2526436  16.5977039  71.4670029
  48.6397591  16.7221432  72.8453674  83.2258606  48.0394592  67.4080200
  82.3664932  47.6390800  67.2760239  83.3889542  48.5279846  66.6011887
  80.7625198  31.6096973  43.9878731  80.0241623  31.3413887  44.5347481
  80.9134140  30.8642712  43.4066658  38.2256088  69.7083664  56.2248383
  37.8219299  70.2655487  56.8902855  39.1404343  69.6349487  56.4967537
  31.2593784  23.2441978  11.1932564  30.5369644  23.8326054  10.9738760
  31.7421761  23.7035122  11.8804007   3.7461045   4.0412631  39.6471863
   3.6682880   3.7290952  40.5487022   3.0351229   3.6028600  39.1797066
  29.6528835  55.3466187  64.9229431  29.3522243  55.4751358  65.8225632
  30.5689926  55.6238136  64.9346695  38.0324936  27.8319435  83.2886963
  38.8531227  27.6438599  82.8332596  38.1610451  27.4794292  84.1692886
  76.7569733  63.9561996  42.5290337  76.3683548  63.8095665  41.6666527
  76.1350784  63.5638466  43.1418457  78.1566696  15.1916838  71.6473236
  78.8713608  15.3295527  71.0256729  77.5817413  15.9467506  71.5225906
   2.4794605  60.0827408  42.9155807   1.6641430  59.9069061  43.3852310
   3.0954075  59.4325066  43.2532768  69.4390411  63.1856194  33.6255684
  69.4355927  62.5896797  32.8765182  69.8208389  62.6727562  34.3379097
  19.4918041  28.9032364  77.9032440  18.6042080  29.2517338  77.8198547
  19.3751297  27.9534225  77.9249802  18.1270351  39.5019531   7.2294636
  18.0541286  38.8585510   7.9344096  18.7861328  40.1230888   7.5393219
  46.6579285  56.0766258  31.0827732  47.4757767  56.4726982  31.3835812
  46.0588799  56.1724472  31.8231716  34.6972237  57.2477722  14.5535355
  34.3304138  56.5022011  14.0783472  33.9545250  57.6153030  15.0326500
  42.9803658   1.5649389  31.9382172  42.0263596   1.5713046  32.0160637
  43.2487526   2.4424794  32.2104759  72.3697968   4.7693715   0.0392292
  72.5813751   3.8622491   0.2596713  73.0637665   5.2840805   0.4511877
  70.8911743  21.8880577  67.8537292  70.2535324  22.0038185  68.5581818
  70.8191299  20.9639263  67.6149368  82.8062820  22.4353981  13.1741590
  83.7389755  22.5496731  13.3565149  82.3726807  22.6502438  14.0000315
  23.8940392  50.2703705  83.2081909  24.6528244  50.3935661  82.6378403
  24.2223949  49.7365494  83.9316940  76.8619003  71.3761063  30.9442062
  75.9273300  71.5810165  30.9153538  76.9288025  70.6496582  31.5639038
  18.6346397  45.6536064  82.5198593  18.4589520  46.5602722  82.2682190
  19.5104866  45.4753799  82.1772766  79.8679504  19.3748589  45.0589981
  80.7892685  19.2438278  44.8348541  79.3865738  18.9065132  44.3769684
  76.3053894  30.5513687  77.3864288  77.1992264  30.7332039  77.6766281
  76.3043594  29.6153698  77.1860809  25.7814941  66.9539871  40.2752075
  26.5551853  67.4406586  39.9909821  25.2278252  67.6102295  40.6983337
  61.9396782  52.8325386  25.2609253  62.8602142  53.0496178  25.1135483
  61.8369560  52.8578911  26.2122612  28.7404690  63.5782814  65.1441422
  28.3113384  63.7964516  65.9714737  28.4421940  64.2531357  64.5343628
  16.5256119   3.6704409  48.6966019  16.8787899   3.3866079  49.5397720
  17.2096939   3.4506629  48.0641747   8.0404291  49.5379410  45.7551651
   7.3742223  48.8836098  45.9655228   7.9078088  49.7245407  44.8257446
  37.2933540  71.3834991  54.3800011  37.7008514  70.5965118  54.7417030
  36.9028511  71.8204575  55.1368408  39.5472717  45.6845512  82.1623001
  38.6610947  45.3246651  82.1248169  39.6145287  46.0647430  83.0381775
  67.3543472  23.5051689  77.3192902  66.7167435  24.1038799  76.9303970
  66.8287354  22.9089127  77.8526154  81.8079529  25.3676624  51.3992844
  82.2454224  26.1913910  51.6145248  80.8969040  25.6146717  51.2405128
   1.6820632  12.8746452  56.0539780   2.3005795  13.5921631  55.9167252
   0.8203329  13.2882786  56.0033798  65.9666443  40.9241180   4.2053838
  66.5644302  40.2254982   4.4714985  66.4530640  41.4166870   3.5443208
  66.9681854  29.6414928   4.8756399  67.7140045  30.1555023   4.5661635
  66.6847610  30.0873070   5.6738596  11.1369762  66.6518784  58.8690338
  10.2861710  66.9540329  59.1869392  11.7150326  66.7214432  59.6287994
  64.7636719  35.3189888  53.2588654  64.2963791  35.0122299  52.4818420
  64.1226349  35.2506256  53.9664192  58.3525696  58.3185081  34.0540695
  57.9731903  57.8066063  34.7683945  58.9066849  57.6969528  33.5819931
  71.1238251  31.7016163   6.9621463  71.9003372  31.3864670   7.4246845
  70.4019089  31.1936531   7.3323426  24.1687126  62.5535088  13.8567553
  24.4708118  61.8429756  14.4225397  24.4174290  62.2790833  12.9741106
  77.4684448  40.6553879  45.3730774  76.6629257  41.0779839  45.6710510
  77.1706619  39.9522438  44.7958946  16.8898678  41.6364059  14.3044729
  16.4688721  42.4541817  14.5694904  16.7197838  41.5730705  13.3646364
  10.4927263  58.8645935  58.3178444  10.1070070  58.5367622  57.5054550
  11.0829020  59.5641327  58.0375481  22.4921112  52.4742203  88.5149612
  23.1371632  51.7864151  88.6794739  22.3805237  52.9055367  89.3621597
  46.4016342   0.4839433  28.6024895  46.7292519   0.5154669  27.7036533
  46.8532181   1.2011905  29.0473061  74.3950653   2.0076039  59.8807602
  73.7318420   2.6841178  59.7440414  75.0148087   2.1309860  59.1617775
  69.5553436  56.0172501  32.9046402  70.0994873  55.5080414  32.3039322
  68.6886444  56.0205650  32.4983864  28.3313522  68.7915573  44.8182411
  28.3247280  67.9604874  45.2931252  27.6430721  68.6966782  44.1598358
  46.9828224  65.1226425  22.7840614  46.2573700  65.7080765  23.0013695
  47.5645256  65.1702576  23.5427341  16.5436668  44.5316734  69.6878815
  16.0065556  45.3118668  69.5498886  17.1719627  44.7896614  70.3623581
  63.9692230  13.9259853  67.1655350  63.9214172  14.6714993  66.5670700
  63.3563690  13.2870560  66.8016434  41.2331734  42.7873535  84.0794067
  41.8597527  42.9352875  83.3710632  40.4497490  42.4555740  83.6407700
  84.0506439  45.3288002  57.8087502  83.4669495  44.9150391  58.4446220
  83.6058350  46.1417122  57.5688553  55.9011688  28.9578667   6.3745155
  55.5944557  28.0557194   6.4655619  55.4356842  29.2929058   5.6081567
  66.9056396   8.5541363  23.8252068  67.0453644   9.0847101  24.6095543
  67.7696762   8.4976902  23.4171753  58.4060669  24.4827805  32.5675621
  58.8384743  24.9970856  33.2492828  58.7375221  23.5934563  32.6919518
   1.7364459  24.3277702  43.6785126   1.2936809  24.3837337  44.5253067
   1.2521919  23.6556168  43.1989937  39.9580269  55.6242523  38.6023521
  39.8926620  55.8573036  37.6762581  39.4582405  56.3029747  39.0559807
  32.4875679  16.4195004  16.2656956  32.6798058  17.1956520  15.7395153
  33.2171860  16.3616104  16.8825741  56.0344620   0.3503197   3.7209599
  56.0008469   1.0857892   4.3326678  55.4651566  -0.3125122   4.1118240
   6.7492347  65.0738144   4.3075323   6.0074534  64.8477859   3.7463682
   6.9932795  65.9589539   4.0369692  28.5984268  17.6365814  82.7855835
  28.3580303  18.1259174  83.5723495  29.5106831  17.8768711  82.6234818
  19.1451225  68.8105011  71.3781586  19.5497246  69.3772964  70.7214432
  18.5260143  68.2741470  70.8829117  35.7003250  70.4810867  22.7934303
  35.9966354  70.3112030  23.6876163  35.6939087  71.4354858  22.7204876
   9.3397980  69.3869095  43.8390045  10.2566061  69.3272552  44.1075897
   8.9321852  69.9455109  44.5008545   9.4255209   9.8997908  53.8463707
   8.6138916   9.5115910  53.5195808  10.1076136   9.5434332  53.2771683
  20.0022869  48.9459114  26.6614208  20.7137508  48.6344261  27.2209091
  19.5253410  49.5716858  27.2065430  65.4175415  60.6988297  63.1213303
  65.3682480  59.8647537  62.6542931  64.5138092  60.8842087  63.3765411
  65.7688904  23.0610390  45.3143349  64.8981171  22.7518444  45.5641136
  66.3383331  22.7762012  46.0290642  84.6894226  56.8380508  83.2843094
  84.4148178  57.7548103  83.2648315  84.1798401  56.4205780  82.5898514
  63.2135010  15.3884983  73.0692215  63.7780685  14.7590733  72.6205368
  63.8163605  16.0458851  73.4165497  48.2854996   5.8393788  65.3219833
  47.7496033   5.8297682  64.5289230  48.0069275   5.0636663  65.8087082
  12.7480402  54.6297722  31.9878311  12.5132694  55.3935699  31.4608326
  12.6358738  54.9197655  32.8931236  47.1246376  53.1904411  16.7054234
  47.0642357  53.3470497  17.6477909  46.2427254  53.3647232  16.3766518
  29.8259926  55.4719810   6.1199503  29.7794952  56.1408310   5.4367905
  30.0911484  54.6763573   5.6585317   4.0172443  44.1826515  20.7743473
   4.7201581  43.5719986  20.9962673   3.5439289  44.3119431  21.5962276
  37.6703606  62.3270836  11.8013115  38.3885040  62.9090805  12.0498695
  38.0827942  61.4699516  11.6942930  78.2322006  26.6703510  69.5120697
  77.8598480  25.8035088  69.6738358  79.1617126  26.5742607  69.7194672
   1.9628717  56.8496552  23.1965332   1.6705494  55.9383163  23.2120361
   2.7018542  56.8745232  23.8044128  80.1928177  22.5630093  25.3996830
  81.0771942  22.3643761  25.7073555  79.6735611  21.8004265  25.6547680
  17.1458149   5.7666063   5.8518872  16.2804222   6.1558089   5.7259974
  17.3888988   5.4380779   4.9863176  56.2098923  67.4697876  35.9172821
  56.3716316  66.5651855  36.1851654  55.3644791  67.4394379  35.4694138
  31.8484688  54.8310280  25.0393524  30.9846325  54.8654213  24.6284542
  31.7642555  54.1615829  25.7183113  78.5586929  36.5142059  58.2908325
  78.8696289  37.4104652  58.1632881  77.7844391  36.6060333  58.8461075
  63.2687569  65.4304123  45.8465729  62.6643982  65.6020432  46.5687370
  63.4300804  66.2909088  45.4596024  38.3377876  28.0823822  66.3480682
  38.0165215  28.9488602  66.5975342  38.2464066  28.0581551  65.3955460
  59.8724365  46.4738731  68.4428940  59.0807381  45.9925499  68.6832581
  59.8707008  47.2397614  69.0170441  24.4281979  31.3090534  85.2482147
  25.0658188  30.6274204  85.0359726  24.6797276  32.0516586  84.6991196
  76.0889664  16.9765682  86.5445023  75.4350967  16.6147709  85.9463425
  75.9058456  17.9159660  86.5597534  71.4798584  64.7515182  20.6820564
  71.6354599  64.2795410  19.8639736  71.0182419  65.5466461  20.4157639
  58.8342209  49.2698097  84.8075714  58.3329048  49.1253662  84.0050507
  58.4971962  50.0955391  85.1551590  84.1222305  67.0493164  37.8609657
  83.6213150  67.3991928  38.5977859  84.5489197  67.8149643  37.4763260
  30.8451042   5.0297265  64.3537750  29.9043465   5.1991553  64.4037781
  31.2257385   5.5906096  65.0296173  52.6530380  23.4700928  83.9785080
  51.7692451  23.1034698  83.9515381  52.8945656  23.5808296  83.0589218
  51.7081833   0.2365179  74.9887466  50.8757744   0.7063000  75.0400162
  51.8433914  -0.1082587  75.8713989  82.1517181  32.5801620  18.5356598
  82.7740479  31.8644962  18.6651096  81.3111267  32.2208900  18.8195019
  60.9092293  63.1216240  26.3427963  61.2395706  63.8813629  25.8633156
  60.3889961  62.6401138  25.6995697  55.0169601  64.2444763  41.2312660
  55.1599693  63.9470558  40.3327522  54.8695679  63.4403419  41.7291374
  53.8914146  34.8341179  54.3641586  54.6982880  34.3331871  54.2447662
  54.0983696  35.4596558  55.0584946  73.2213287  10.3571472  37.0254936
  73.7947922  10.9636717  36.5569916  72.4483261  10.8780775  37.2430534
   9.6851282  62.2127342  79.9499130  10.3316383  62.9173203  79.9925308
   9.7015076  61.8195419  80.8224792  32.2377930  56.9391327  55.4583778
  32.8469582  57.1345673  54.7463684  31.6409645  57.6872978  55.4751015
  69.9265289  50.4125977  17.1015053  70.3886795  51.2414322  17.2267361
  69.7658539  50.3680000  16.1589413  74.0376205  41.4431381  75.9251556
  74.8460083  41.3101501  75.4301224  74.3299637  41.7518082  76.7827606
  59.6797676  60.5472679  67.1713486  60.5721703  60.2011986  67.1621017
  59.1215897  59.7698784  67.1896515  66.8428726  44.8531914  62.3854790
  66.4310760  44.9320297  63.2459679  66.9432526  43.9104691  62.2534561
  61.6285820  15.1637897  51.0069618  60.7290421  15.1596565  51.3341293
  62.1410484  14.7649460  51.7101898  43.4763527  41.2212334  85.3387833
  42.8043594  41.0203781  84.6873856  43.5310059  40.4320526  85.8777008
  65.8659744   7.5948086  67.1703796  65.4930954   8.1615953  66.4951401
  65.2636414   6.8525023  67.2194443   1.4773610  63.7785568  42.8237801
   2.1695476  63.2791481  43.2570267   0.6696378  63.4817772  43.2429924
  26.8908119  13.8790455  64.8016739  27.1549911  13.0061283  65.0922928
  27.7110958  14.3099966  64.5615768  33.5583420  37.2082481  10.8210993
  32.9337082  36.9804649  10.1324949  33.2527542  38.0529175  11.1518288
   4.6589465  26.7568607  72.2368927   4.4512959  26.5915565  71.3172226
   5.4637046  26.2627583  72.3932877  85.1584396  18.6113014   8.7868538
  84.9861221  18.3872242   9.7013626  85.3332138  17.7709484   8.3631868
  47.0410728  36.2266617  23.9216080  46.6678963  35.8690071  23.1159649
  46.3486137  36.7815056  24.2806072  20.6154041  53.7770882  81.6815872
  21.0422878  53.2596359  82.3644104  19.7356453  53.9419861  82.0207977
  63.1861763  60.9632645  60.2821846  63.0098534  61.1895981  59.3689957
  63.4164772  60.0344849  60.2585754  16.0067844  22.4627666  73.9767151
  16.4821491  22.1993618  73.1887589  15.2863989  21.8359241  74.0426178
  16.6168213  25.4554176  88.5587234  17.5092239  25.7557125  88.3864670
  16.7109241  24.8187618  89.2672806  10.8918238  71.3673477  86.0629501
  10.1008549  71.8853760  86.2121048  11.2880697  71.2801743  86.9299088
  80.7865906  67.3250504   5.4918203  80.8525085  68.2622375   5.3086152
  81.6206970  67.1025925   5.9053531   2.2527862  60.2949562  38.7231941
   2.0425520  59.3675995  38.8329201   1.7104088  60.5780334  37.9870377
  60.1663055   7.4342074  84.0892029  60.1361198   8.1909943  84.6745224
  59.6835938   6.7515564  84.5552597  77.3542557  30.1093769  18.4685345
  78.2816925  30.3047943  18.6023407  77.2572021  30.0474529  17.5182838
   1.3693259   7.8810720   5.2358665   2.3005390   7.8379970   5.4531646
   0.9370605   7.3926077   5.9364243  56.8884315  19.9579201  23.4963207
  57.5566673  19.4063454  23.9030876  56.0708389  19.6945400  23.9186993
  79.9166412  21.9940815  11.4665785  80.1829147  21.8141575  12.3682194
  80.4821014  22.7148552  11.1891451  11.5281973   4.7213116   4.8254805
  12.3930044   4.3115749   4.8041077  11.4945736   5.2514124   4.0291800
  32.4285774  41.2763939  18.7201672  32.7465134  41.1364365  19.6121101
  32.7680664  42.1377792  18.4772797  48.6092758  35.6956024  80.3060837
  48.3335915  36.0950699  81.1311035  48.7363930  36.4355927  79.7123795
  50.9478989  43.1042633  18.5590515  50.4029312  42.3925285  18.8947277
  50.9004250  43.7811432  19.2341900  54.3083572  63.0581512  63.0731163
  54.9175987  63.7413368  62.7932663  54.8108940  62.5277138  63.6914444
  66.6591721  35.7652817  51.1897697  66.9127121  36.6751862  51.3447838
  66.1544495  35.5217552  51.9657745  65.3021774  67.8550873  27.7614021
  64.9872437  68.7115707  28.0503311  64.5059052  67.3559494  27.5796013
  78.6983719  58.6473236  20.2711487  77.9682159  58.3088074  19.7529659
  78.3698502  59.4666748  20.6412334  50.3992271  55.1613159  37.4466209
  49.5048027  54.9083557  37.6752052  50.3708420  56.1163902  37.3895187
  45.0321465  44.8679352  53.5330734  45.0732307  45.0686226  52.5980492
  44.1003532  44.7379761  53.7094307  49.3654175  27.0954361  75.2747040
  49.3694801  27.1870136  76.2275085  49.6738853  27.9419365  74.9514160
  32.0502892  55.5379219  31.0962505  31.6191196  55.9537964  31.8428249
  32.4627838  54.7558975  31.4630203  34.6037941  49.5436058  30.1195869
  35.4426727  50.0002785  30.1825638  34.2160149  49.8661041  29.3060417
  84.9959030   5.6046743  79.6061249  84.8996353   4.8901668  78.9764862
  84.5703201   5.2826543  80.4007416  59.5087891  47.8730583   0.9790162
  60.1564445  47.4999313   1.5769734  59.7723389  48.7880363   0.8811080
  65.8675995  69.1986618  19.0939903  66.3329163  68.4673767  19.5001068
  66.5599442  69.7514877  18.7316647  54.7271729  24.2278900  33.4564590
  54.1846123  24.0534668  34.2255058  55.4469109  24.7648716  33.7879105
  73.2554092  20.5804062   0.9199674  73.5022049  21.4835892   1.1189206
  74.0801544  20.1514454   0.6918862  53.6474724  66.7689667  82.3385620
  52.7469101  66.6697464  82.6473999  53.6561508  66.3390274  81.4833984
  16.5581970  57.3894844  17.1012421  16.1684761  56.7182198  16.5411072
  16.0450516  58.1776237  16.9230595  21.8015251  30.0778561  82.3758621
  21.8534164  29.9032784  83.3155746  22.3292732  30.8663235  82.2492294
  73.7366714  20.3940716  28.9517345  73.5638657  19.4547749  29.0156860
  73.5159378  20.6171913  28.0474529  61.1841087  32.9775429  56.7979393
  60.2542191  33.1634789  56.9281731  61.2927780  32.0759888  57.1006355
   1.6427211  33.3283043  25.7767029   1.2573694  33.8891144  25.1034794
   1.3024808  33.6755486  26.6012573  72.0745544  61.7929993  39.9744034
  71.5178070  62.2867699  40.5764465  72.0259171  62.2781715  39.1507072
  54.0453529  41.3410263  11.2507343  53.3223152  40.7939377  10.9439049
  54.1670074  41.9886703  10.5564795  49.8023148  22.9964695  83.4685593
  48.9096718  22.6607437  83.3866806  49.7019310  23.8375168  83.9144287
  60.7381821  63.8658905  78.5185623  60.8756866  63.0190659  78.9430771
  61.1056252  63.7565994  77.6414795  65.7723618  66.0260925   8.6911163
  66.4012833  65.8057251   9.3782253  65.5530777  66.9437561   8.8524828
  69.5731735  31.3551655  28.9358978  68.6562042  31.5207596  29.1549339
  69.5441284  30.9659176  28.0618992   7.9278378  67.5138702  15.7528057
   8.5825167  67.0274277  15.2518053   7.1036701  67.3469315  15.2955179
   7.1615949  66.5922165  27.7264500   6.9714627  66.1733398  28.5658684
   6.6002660  67.3674393  27.7130299  60.0606155  33.1395683  26.7787819
  59.7641068  32.2448158  26.9453239  60.6323738  33.3440475  27.5187206
  85.3870087  62.8453445  68.7098389  84.5317764  63.1828918  68.4436264
  85.2172699  62.3837090  69.5310059  57.3905449  48.6643219  14.1300173
  56.7115364  48.5152931  14.7880220  57.7874298  47.8036194  13.9962130
  11.9804420  51.0062752  84.5828018  11.0559187  51.0735092  84.8214798
  12.2942696  51.9105682  84.5831451  10.3020515  40.1303101  76.4489212
   9.3851423  40.0154648  76.6985626  10.2839689  40.8129845  75.7782059
  14.3546524  62.9673691  39.8446999  14.5840969  62.0393066  39.8925133
  15.1778879  63.4069672  39.6319351   2.8750153  35.1373749  68.1485596
   3.3122962  34.3068848  68.3364639   2.4239149  35.3601570  68.9628754
  62.0363922  51.2974472  66.8339767  61.2332001  51.3797836  67.3481140
  61.7707481  51.5093727  65.9391327  47.9436989  48.9064445  53.9715843
  47.1339684  48.6750374  54.4265785  47.8399277  48.5365105  53.0948792
   7.1318822   7.7852597   4.8407984   6.3464675   7.5808287   5.3483052
   7.5642481   6.9401813   4.7177773  53.9598160  40.2997437  83.5487747
  54.8396645  39.9485550  83.6857681  53.3749008  39.5830154  83.7945404
  86.4208984  41.5036316  45.1341171  87.1641006  41.5555077  45.7351074
  86.0513992  42.3866386  45.1333733  78.8388443  55.7967148  56.0653343
  78.5822906  54.8816643  56.1797829  78.0998459  56.2976341  56.4105873
  54.0677071  11.1301937  16.0316830  53.9551620  10.4014273  16.6419830
  53.4007759  10.9856634  15.3604555  83.3757019  61.4806328  45.4870720
  82.5662231  61.9869118  45.4188385  83.1648483  60.6368027  45.0874176
   7.3972545  50.1679230  34.7351685   6.7597232  50.0724258  35.4427452
   8.2289133  49.8969002  35.1239128  85.6307755  52.2204819  77.8239670
  86.4311600  51.8662415  77.4364929  85.8096085  53.1547241  77.9309387
  77.4435730  48.1630936  51.1970634  78.3164062  48.2034836  50.8062248
  77.4730530  48.7956543  51.9148598  80.9082336  11.3677692   6.1100941
  80.8448715  10.4310331   6.2964888  80.4543381  11.7885122   6.8402882
  20.3817768  -0.0018476  38.6015930  20.3863850   0.9474373  38.4788361
  21.0451145  -0.3253970  37.9920578   4.0631599   6.3862119  20.2217827
   4.9904165   6.5444627  20.0446281   4.0166259   5.4556293  20.4410610
  79.8286743  32.4292450  51.2528915  80.7551422  32.6409035  51.3672981
  79.3650970  33.2058945  51.5661774  66.2372131  31.4874153  52.4364853
  65.6370544  30.7537766  52.3030052  65.7934723  32.2355919  52.0370331
  56.2273445   6.7504802   5.7549224  55.6274567   7.4566278   5.9951773
  56.1424332   6.1125927   6.4635282   1.1643639  48.2676353  82.6002502
   1.0788137  48.1272087  83.5432205   0.2643492  48.2606621  82.2744293
  47.0949249   0.1767617  20.6025944  46.8224907  -0.6196750  21.0583344
  47.7230339   0.5891087  21.1956196  80.5561905  48.2914772  82.2195129
  80.1062317  47.4602051  82.0686646  80.3491135  48.5146790  83.1269989
  38.8514824  52.5616188  12.8139248  38.2885895  52.0444489  12.2378035
  38.2752762  52.8383789  13.5263996  60.4975471  30.0322571  71.6789322
  59.8077812  29.5172653  72.0975418  60.0791168  30.8671436  71.4688950
  33.5493279  67.2997055  15.1218233  33.4252396  67.9547958  15.8086214
  34.0483665  66.6008911  15.5447302  32.2696800  49.5826263  56.7744102
  32.3285637  50.5362091  56.8330574  31.7212582  49.3303833  57.5172691
  61.7104034  47.5393753  58.1562653  62.1171722  47.6034775  57.2921677
  61.6186829  46.5988426  58.3086357  74.8836594  68.7445984  36.4294815
  74.4844055  68.6632767  37.2956314  75.2889099  67.8919220  36.2715340
  59.0545921   7.9800506  51.3885078  58.7847595   8.7396822  51.9046326
  58.5268097   8.0321798  50.5916634  28.1713066  69.4154510  47.4291458
  28.9843121  68.9914169  47.7038269  28.2238293  69.4378586  46.4736481
   1.4839513  49.3843155  19.1756763   1.6331697  48.6072311  18.6370640
   0.6905904  49.7783737  18.8130054  55.8760033  48.7540245  72.9779892
  55.3175049  49.4635849  73.2955399  55.3142319  48.2535934  72.3862076
  57.8738785  54.2197914  87.6279755  58.4531708  54.2208443  86.8659668
  57.3563271  55.0197906  87.5364914  26.6117172   1.5580599   3.0690730
  27.2320614   0.8444265   3.2178402  26.0394936   1.5418223   3.8362288
  65.9659195  21.2278309  31.0712013  65.3968735  20.5089989  30.7960682
  66.8430786  20.9555931  30.8015480   9.4270267  23.7566528  18.1792774
   8.6721582  24.1145096  17.7120037   9.0853176  23.5216713  19.0419769
  38.8190117  30.9734097  66.3059387  38.5921326  31.6901245  65.7134171
  38.0554352  30.8831425  66.8760529  84.5590363  20.5425186  24.7027912
  85.5142822  20.4972000  24.6617889  84.2821198  19.6371193  24.8435097
  85.1301651   2.4115782  18.8462868  84.8777161   1.4883820  18.8318157
  84.5520859   2.8077691  19.4982738  11.6334982  43.4883957  38.8420372
  11.2603922  43.3067055  39.7045975  12.0607386  44.3393059  38.9402885
   6.0131407  25.4875908  87.3881607   5.3712578  24.9368362  86.9399567
   5.4880762  26.0636368  87.9437790  63.0872841  28.4444046   2.5864906
  62.1710548  28.1675510   2.5970376  63.5071564  27.8589535   1.9562634
  31.3684406  -0.0100929  39.5489082  31.2664890   0.8287841  39.9984894
  30.9302139   0.1145112  38.7070885  41.0876923  52.6135254  23.7592640
  41.3397369  51.7517128  23.4276276  40.2834930  52.8265266  23.2858448
  71.8427048  10.3326836  27.0240955  71.9311371  10.7746506  26.1796570
  71.0701675   9.7765207  26.9236031  82.3263855  43.8751602  62.7576485
  82.3924103  44.0862732  63.6889381  82.5923767  42.9574280  62.7006493
  64.1092529  23.2888699  76.0210571  63.6855888  23.5736809  75.2113495
  64.7189331  22.6047173  75.7445526  18.8638401  36.5475197  75.0112534
  18.2126026  37.0759277  74.5498352  19.6635952  37.0725784  74.9806366
  23.7814617  52.2285995  16.4755936  23.3777542  52.3032990  17.3402748
  23.5506477  53.0448914  16.0321693  77.2946091  19.0952301  32.8282433
  77.7005157  19.6522198  33.4924965  76.7839432  19.6990013  32.2888832
  63.9854507  62.4383698  52.2387161  64.6879883  62.0072403  51.7521019
  64.3574295  63.2804947  52.5007858  39.5875854  50.4060974  15.8930416
  39.9036865  50.4781380  14.9924173  38.6441689  50.2699165  15.8055868
  65.9485931  15.2842731  60.9338570  65.0824051  15.4746895  61.2939796
  66.5445480  15.8387623  61.4374619  40.6982460  20.4645767  79.7909164
  40.7869873  21.3506832  80.1418686  40.1612358  20.0042019  80.4358215
  58.9583092  11.5756273  61.2572975  58.8919945  12.2631598  61.9199677
  58.0759621  11.2083960  61.2040443   5.7965894  17.7551346  16.1028538
   6.4833808  17.5237064  16.7281475   5.8771100  18.7032356  15.9986734
  57.1370163   4.3874421  87.6030197  57.2346306   5.0455990  88.2911530
  56.6079559   3.6980174  88.0042953  40.4257736  58.5782280  72.8149719
  39.5830460  58.8607368  73.1702652  40.4216499  58.8917809  71.9105988
  81.4911652  18.5907516   1.7918767  82.2260666  19.2028065   1.7526095
  81.6735077  18.0463715   2.5577965   2.1292558  16.0384350  22.4006195
   2.8492024  16.6607571  22.2975368   1.3421996  16.5830059  22.4153614
  20.2467403  19.4047108  21.7694855  19.6523666  20.1448135  21.6461849
  20.1666813  19.1852932  22.6977520  11.9740086  42.6694450  20.9707546
  12.5888071  43.3618469  20.7282028  12.4900265  41.8644867  20.9260330
  83.5307007  28.6249924  79.5500565  83.6349487  27.7015076  79.7792740
  84.3857880  28.8846474  79.2070847  36.3015366  54.9340248   6.1676226
  36.9590569  55.3075714   6.7544470  36.8032227  54.6170959   5.4165578
  64.4606400  11.3551168  85.0659256  64.6948929  11.1300564  84.1655350
  64.3640137  12.3073893  85.0573883  67.4491653  11.0498447  34.2567635
  68.2571945  11.4378481  33.9209328  67.5025558  10.1283684  34.0032616
  64.6790390   5.6677275  45.5118027  64.6716766   5.7950668  46.4604645
  65.4797821   6.1021767  45.2180328   7.8192997  51.6704597  60.7360535
   8.6777182  52.0863228  60.8161049   7.9644761  50.7660255  61.0138245
   9.1144638  66.0750504  10.9372330   9.4091082  66.3260803  11.8126755
   9.9192867  65.8580246  10.4667101  53.4133224  13.9790564  66.9979477
  54.2028732  13.5801268  66.6323090  53.3494377  14.8281231  66.5606461
  39.4883499  67.4042587  46.3031654  39.8332176  66.6646500  45.8028870
  38.5375443  67.3132172  46.2405815   8.7900047  64.3663483  32.1117973
   8.5164547  64.5671005  33.0068359   9.7427578  64.2903214  32.1638908
  32.6358223  69.4842300  20.8121052  32.9486275  68.8744125  21.4803181
  31.8948288  69.9299164  21.2226219  53.9692116  53.1252823  81.2481995
  54.6588364  52.8627548  81.8578949  53.8187714  52.3493729  80.7082291
  78.5219421  30.0958195  50.7270432  78.7386017  29.4852142  51.4316368
  78.9581146  30.9112358  50.9741898  22.2217617  65.4833374  28.1337929
  22.0100193  65.9210281  27.3092785  21.6880741  64.6887512  28.1271019
   7.1130214  26.2124176  57.2450256   6.3802428  26.7984409  57.0557022
   6.7916269  25.6459427  57.9464836  55.6381302  70.1923523  32.7494812
  55.6060600  69.2470398  32.6025314  56.2776451  70.3038330  33.4529190
  62.4858475   7.0269771  26.6608925  62.9994507   7.1225038  27.4629631
  62.8284264   6.2331057  26.2502365  23.6910248  31.6552334  75.0077972
  23.4750881  31.4417553  75.9155579  24.0984783  30.8597660  74.6650925
   6.0992732  12.6677723   8.8956299   6.9245844  13.1240072   9.0597725
   6.1248760  11.9091473   9.4787798  38.6592712  17.7678280  77.9344940
  39.0993767  17.8188629  78.7829819  37.9961700  17.0871124  78.0491791
  85.5811615  33.4484787  19.8600979  85.5238190  32.8319740  20.5900745
  84.6733475  33.6947327  19.6826992  28.9436188  41.9312820  86.0451660
  29.5059643  41.8902245  85.2716522  29.5039520  42.2972679  86.7294922
  84.4703827  38.9022369  38.0774422  85.1815109  38.5908928  38.6374435
  84.0248642  38.1050758  37.7906036   3.1799314  70.7052612  48.9426918
   3.5273106  70.2835007  48.1567650   2.2516465  70.4718628  48.9493484
  19.9757500  56.8643913  22.6144180  19.8291378  57.4672127  21.8854847
  20.4417324  56.1251106  22.2238331  12.6002474  16.6395607  82.9265976
  12.1375303  16.6699276  82.0892181  12.0963421  17.2172909  83.4997787
  45.0621834   5.5348668  63.5595856  44.5594406   5.4908376  62.7462311
  45.0731125   6.4652424  63.7843361  29.4984970  58.8147583  10.2883091
  29.5913506  58.0660095   9.6992579  30.1045208  58.6313515  11.0061731
  36.2708664  51.4588356  25.8257561  35.9906540  51.1463928  24.9654713
  35.6296844  52.1308708  26.0570259  24.3802395  35.4627838  10.5373888
  23.8955975  35.7089272  11.3252764  24.7822914  36.2785492  10.2388630
  39.6774330  51.6515884  72.6981125  39.1407890  51.0120201  73.1662979
  40.5279770  51.6168022  73.1358261  86.3760071  68.1472626  26.8178673
  85.4998398  67.9557724  27.1523800  86.9674759  67.7176285  27.4357738
  16.0577316   2.7479417  37.0050964  15.2206564   2.6438568  37.4575348
  16.6553459   3.0725005  37.6787071  48.3359108  40.0308037   4.8633780
  48.6764297  40.7941971   4.3969965  48.2966690  39.3423882   4.1994696
  19.4952660  65.4382095   0.5800966  18.9476757  65.9258881   1.1953571
  18.8903065  64.8369827   0.1456043   7.3010621  65.1878586  19.0385933
   7.4088931  65.2191391  18.0880013   7.4347644  64.2673950  19.2646484
  38.4334869  29.0099888  78.9878769  39.0330353  28.6926441  78.3125534
  38.6427879  29.9398384  79.0762253  50.0383339  41.7070808  51.5812454
  49.4391937  40.9681969  51.4748573  49.4691505  42.4764862  51.5979462
  46.3037910   2.0005825  12.7844706  45.9323883   2.7233226  13.2903738
  46.9342842   1.5921427  13.3776731  29.3065491  71.4762344   9.3900557
  28.7228508  71.6870956  10.1187983  29.8448811  70.7547226   9.7154093
  23.6345806  47.7017632  77.5001831  23.8504257  47.6041412  76.5727615
  24.1226330  48.4763985  77.7794342  82.8300095  48.1403465  36.6132088
  82.9369507  47.4885559  37.3060036  83.3794327  48.8743858  36.8880730
  62.0259552  63.5949173  68.6124420  62.5935974  63.2377815  69.2954178
  62.4594040  64.4034653  68.3393097  23.0163536  34.8993263  84.1657181
  22.7211971  35.7659187  83.8862000  23.6795769  34.6527367  83.5210800
  48.7427521   4.1267428  24.0356407  48.2821236   3.5874507  24.6784630
  49.2025642   3.4971507  23.4802895  42.7698402  27.5949383   0.5263463
  41.9840965  28.0111771   0.1719704  42.4582977  26.7666378   0.8911659
  18.4990711  50.7653351  68.0500031  19.2335243  51.0912323  67.5298080
  18.2586575  51.5015450  68.6125183  73.3403625  62.5385475  74.8153458
  73.1840744  61.8493233  75.4609299  72.5566940  63.0866928  74.8557053
  39.6591949  60.1560249  14.0539551  39.6535416  59.2913780  14.4645443
  39.0975418  60.0596390  13.2848740   1.0652844  37.5661354  49.8636780
   0.7204093  38.1472664  50.5415993   1.8790673  37.2234688  50.2332306
  83.4689178  41.4136314   8.8961821  83.1227570  41.6682014   9.7515192
  84.3678818  41.7424011   8.8941116  37.7361946  53.5994110  79.0542374
  38.0957108  53.0383835  78.3670502  36.8859520  53.2109489  79.2601852
  77.4951324  36.9176292  21.2354813  77.8007507  37.4853020  21.9429932
  77.3398285  37.5121269  20.5015297   3.3484795  67.6794586  26.7384644
   4.0905485  68.0244904  27.2349663   2.6477306  67.5922318  27.3846645
  56.3212700  53.7698860   8.9482794  56.4872475  54.6218109   9.3518972
  55.6094131  53.3940811   9.4662189  46.2173958  17.0878887  78.8944626
  46.3557205  17.9912815  78.6098862  45.4906845  16.7755775  78.3554001
  49.7653236  50.2089691  83.7402802  50.2755470  50.7685699  84.3257294
  48.8572998  50.4741821  83.8865280  39.8495064  65.4343491  76.3336411
  39.4311485  66.2577896  76.5849380  39.1403961  64.7915344  76.3471756
  39.9187050   0.6919919  46.6931000  40.2829895  -0.1924998  46.7277794
  39.2473869   0.6480080  46.0121956   6.3723850  25.2653027  59.6195755
   6.0624623  25.9829578  60.1719818   7.3108625  25.2120342  59.8002853
  13.9652634  68.1626358  40.1687202  13.6366405  68.5778198  39.3713112
  14.6378241  67.5543442  39.8623352  70.8834534  22.6916256  21.8344574
  70.5907974  23.3587437  21.2135429  71.7695770  22.4701958  21.5481205
  64.1082382  28.1135387  10.8098917  63.6271324  27.7845669  11.5691957
  63.8838158  27.5079670  10.1033888  66.9168396  23.3560085   8.9154329
  67.7490311  23.8120632   8.7900963  67.1664581  22.4694881   9.1762133
  17.5979443  60.2164726  48.6929588  16.8163471  60.0647774  49.2243042
  17.2977657  60.7819405  47.9813652  13.7194977  26.3860531  68.2718353
  13.3501987  25.5116310  68.1483994  13.0394793  26.8691597  68.7413254
  20.1655521  15.8400030  73.9295044  20.4790192  15.4918699  74.7642365
  19.2117863  15.7872829  73.9910355  24.7871990  57.6463127  14.5344324
  25.2697716  57.0401917  13.9723215  24.3732281  58.2588310  13.9264183
  34.9784851  21.2367668  70.6547623  35.4298172  21.8460197  71.2390060
  34.8829765  21.7188873  69.8333740   9.1088209  12.0829144  71.2884064
   8.9194603  11.8811884  70.3720627   9.7407846  11.4152412  71.5549850
  46.8398399  55.5248718  59.5055161  46.9475403  54.5899620  59.6803970
  46.5220222  55.5647545  58.6035004  30.1050606  66.4253616  25.2108097
  29.5002728  65.8797073  24.7080917  30.7723026  66.6895447  24.5773869
  61.6409798  64.9011078  54.9671135  60.9651794  65.0587769  54.3078232
  62.4663620  65.0233917  54.4980469  59.1980896  45.0106926  71.9913406
  58.7198753  44.3387337  71.5055237  60.1035423  44.7003784  72.0011749
  47.8444748  35.4491653   8.3123779  47.3796387  36.1441994   7.8464527
  48.7635231  35.5760727   8.0768414  16.8813686  40.3289146  24.1146812
  16.9629269  40.8616104  24.9057674  16.5366440  40.9308548  23.4550858
  46.6029968  42.0836678  61.0826340  46.7516556  41.6827850  61.9390373
  46.7755508  43.0149727  61.2209244   0.4286895  43.6720772  47.8937798
  -0.0026838  44.0766678  47.1411476   0.5150272  42.7496719  47.6530495
  43.0816727  50.9811134  74.7661819  42.8269005  51.7298088  74.2269440
  43.9863052  51.1650124  75.0192642  20.6649456  31.0949421  89.3858795
  19.9397659  31.2951202  88.7940369  21.4436188  31.4064445  88.9244995
  64.3327332   6.2056556  40.2664452  64.2742233   5.7336431  39.4357758
  64.5964584   5.5402365  40.9019775  23.9051266  50.4774780  35.0216408
  23.2883968  49.9714088  34.4927101  24.5017586  50.8697166  34.3841324
  26.2384872  66.8350525  57.8629456  26.9056492  67.4452438  58.1772614
  25.5170250  66.9276505  58.4851608  14.6516590   5.5804582  73.4792099
  14.8980131   6.1087027  74.2384872  15.4286022   5.5876708  72.9201584
  46.2230606  26.3189297  18.8703594  46.2051926  25.4060459  18.5830326
  46.9766579  26.3702621  19.4583092  63.2238121  14.9810638  61.2398491
  62.8749428  14.2051516  60.8011246  62.4489670  15.4893723  61.4795837
  43.5570450  55.2874489  43.4620399  44.0167007  56.0734177  43.1667404
  42.7183075  55.6101112  43.7916412  41.6063118  66.5878372  15.5871344
  40.7909622  66.1997986  15.2695446  42.1457863  65.8385086  15.8395519
   3.1094065  53.8063583  45.8042336   2.4619458  54.4597321  45.5394173
   3.8456872  54.3198090  46.1366310  13.3937302  40.1906700  84.9409714
  13.0403347  39.9701653  85.8027878  12.7846336  40.8412018  84.5916367
  27.1391144  53.8684082  30.6841526  27.4134159  53.7746162  29.7719059
  26.9874001  52.9714890  30.9820614   0.4532411  49.8801270  58.1822052
   0.7017159  49.0084953  57.8743858   0.4867005  49.8156281  59.1366425
  24.1371346  65.8017044  20.6325378  23.2859554  65.5741196  20.2584667
  24.6765366  65.0236588  20.4913998  35.1244049  69.3561478  50.5016365
  36.0587654  69.5584183  50.5495224  34.7768478  69.9792709  49.8635483
  29.9961720  66.2526779  14.5472603  30.8976936  65.9534683  14.4290876
  29.7275963  65.8783112  15.3862753  61.2755928  21.7459278  87.1306305
  60.9961700  22.6137962  87.4221039  60.9152184  21.6622314  86.2478180
  76.6839523   8.2674036  29.7194653  76.2468185   7.7590232  30.4026203
  77.3390579   7.6700745  29.3585434  61.3314476  67.1623688  56.7522774
  61.5425186  66.3676758  56.2622261  61.9556618  67.8138046  56.4325638
  54.5979271  21.6427956  35.2760887  54.4969826  21.1591091  36.0959015
  54.0921631  22.4447975  35.4073410  85.1883392  44.5740356  18.6914425
  85.7451324  45.2389793  19.0964928  85.5788116  44.4270630  17.8299561
  52.0888138  58.5398254  88.9174271  52.8222656  58.2121849  88.3969116
  51.3543816  57.9741058  88.6791000  68.4831161  19.7666550  38.5282822
  68.1188812  20.3626137  39.1828041  69.4276505  19.9170284  38.5667191
  45.1472473  31.6943512  86.4249191  45.0536652  32.5107002  86.9158859
  44.6702766  31.0467281  86.9438705  71.5014877  16.4696922   2.8563688
  70.5779724  16.2727718   3.0131414  71.7987976  15.7733583   2.2707467
  13.6211901   3.6051779  35.8093643  14.4659958   3.3106616  35.4690781
  13.5156136   3.1290967  36.6330338  44.6041451  71.3015366   5.8620811
  44.2066460  71.5046997   6.7088113  45.0671234  70.4763260   6.0066681
  12.7601223  32.2914009  81.8120041  12.7626047  32.0547256  82.7394791
  13.5761003  32.7757492  81.6862335  25.1318340  19.6102924  30.1615734
  25.9224186  19.1344872  29.9069901  24.4172573  19.1263142  29.7475948
  33.6253548   8.2847996  88.6563492  33.4147339   9.1486473  88.3018951
  33.2066154   8.2704411  89.5169754  35.7431450   3.9772751   8.0498505
  36.5380478   3.4816914   7.8529892  35.0903511   3.3094263   8.2597771
  31.9105015  59.5444260  80.9515305  32.5271912  58.9974670  81.4381104
  32.4260445  60.3042183  80.6810379  53.0592499  51.8264427  49.9254990
  52.8382683  51.7483330  50.8535576  52.7259598  51.0203896  49.5312614
  40.7304115  55.1870461  27.2451515  41.5141792  55.2105255  26.6961632
  40.0639229  54.7772484  26.6937084  66.8608398  68.6431198  55.7476807
  67.5618210  68.8897247  55.1443176  66.3715363  69.4533463  55.8903313
   7.1090674  26.0170822  28.3814487   7.9479299  26.4330215  28.1826115
   7.3448310  25.2036285  28.8274746  74.3676758  44.9626923  57.9144363
  75.1970673  44.5005608  57.7928619  73.8084564  44.6411972  57.2072296
  31.9402313  60.6953545  48.9580879  31.5402393  59.8694496  49.2303276
  31.3071480  61.3649368  49.2171249   8.3016567   5.1517735  31.2960758
   8.8171597   4.8170023  32.0298462   8.9291611   5.6452689  30.7679348
  76.6116714   8.0012827  52.2931671  77.1936569   7.3950462  51.8349037
  76.9887924   8.8656044  52.1289711  79.5129776  23.1985874  42.2276077
  78.9271698  22.4681664  42.0287476  79.7366028  23.0817337  43.1509552
   6.1724238  29.3400784  27.3885670   6.1872997  30.2173138  27.0058556
   6.5772910  28.7821426  26.7244701  57.2436256  42.8116646  33.9401970
  57.4737930  41.8898735  34.0566101  57.4422989  43.2166061  34.7844620
  19.0876827  69.5120468  88.7027435  18.7628212  70.3216476  88.3087463
  19.5537605  69.7981949  89.4883194  62.0219040  33.4430885   8.0493469
  61.9567070  32.5145073   7.8263779  62.8589134  33.5213051   8.5070906
  35.3727570  44.0370216   5.6918421  34.7253418  44.3742218   6.3110237
  35.7430229  44.8191948   5.2827678  28.3636837  68.6603241  86.7534180
  28.1466064  69.5844727  86.6306839  28.5763035  68.5857391  87.6837158
  51.6501999   0.8645740  38.8725319  51.1156540   0.3717228  39.4951019
  52.2824898   0.2264528  38.5420113  20.7409382  64.4233322  50.5019989
  20.1654472  64.6488113  49.7711067  20.5695286  63.4957275  50.6644745
  74.4632111   3.0115728  22.5545616  74.9052277   2.6674511  21.7783947
  74.2150955   2.2333858  23.0536556  78.4767227  31.5780010   1.1852850
  77.5896072  31.7742290   0.8840350  78.4495239  31.7355347   2.1290407
  77.1673279  18.6332455  43.0008316  76.5643005  19.2369766  43.4345360
  76.9554672  17.7761879  43.3707008  48.6263733  61.5253448   6.6668868
  48.4090652  62.4525452   6.7633677  48.4845619  61.1542320   7.5377455
  81.0473175  28.4608192  27.7740593  81.0085297  28.6026859  26.8282261
  81.9666290  28.6024570  27.9999943  40.2297325  27.1164322  71.7994232
  39.5957680  26.9935474  71.0928726  40.8644638  26.4104576  71.6771698
   7.4703045  59.0971375  67.6490555   8.1561203  59.6301842  67.2468796
   7.5736670  58.2331429  67.2502289  37.6995926  10.4825544  58.9405746
  37.7237434  10.4714432  57.9837418  36.7680779  10.5277042  59.1561432
  43.2613869  20.5288372  11.8953133  43.0268326  20.4962234  12.8227577
  42.8301582  21.3177319  11.5668001  18.5034161  43.0349312  33.0440102
  18.3079548  43.9643059  33.1635208  17.9205475  42.5868378  33.6569595
  16.4733753   9.9911509  73.2344818  16.3470745  10.7432270  73.8129807
  15.6011763   9.8087702  72.8848572  19.9237709  60.9676285  19.3932533
  19.1730156  60.8133011  18.8198547  20.6702957  60.6114655  18.9115067
  28.9351635  70.9273376  25.1513634  28.6040630  70.3788528  25.8625336
  29.1090622  71.7738953  25.5628605  42.8230362  54.8385124  88.0878601
  41.9359016  55.0053062  87.7694092  42.9666939  55.5070038  88.7577209
  11.0497160  43.6782379   4.4913116  11.8643322  43.1912727   4.6158009
  10.3684530  43.0059776   4.4779754  85.9036407  26.8622360  40.2321281
  86.4282761  27.6412106  40.4170341  85.1688461  27.1864243  39.7113495
  36.1151962  22.8789196   9.0882120  36.9435005  23.0460548   9.5378952
  35.4437332  23.0865841   9.7380152  49.2222366  53.8358154  64.3456268
  48.7322731  54.4686470  64.8706970  49.2662621  54.2303123  63.4746132
  44.4611740  19.5790768   5.8361235  45.2264824  19.2536125   6.3100519
  44.5114937  19.1546421   4.9796453  20.5911388  69.7872086   1.8748510
  20.7899513  70.5673523   2.3926187  21.0609741  69.0801315   2.3170397
  75.5305176  13.8531008  57.8293266  74.7362900  14.3072901  58.1106377
  76.0867081  13.8384972  58.6082230  31.1780128  18.7986240   8.3939505
  31.1923275  19.5900593   8.9321508  31.0737057  19.1198864   7.4983258
  17.6043568  70.0711136  34.7633247  18.0486507  69.5497971  35.4319572
  16.6795158  69.8427887  34.8569717   2.2330852  15.0774031  19.8914928
   3.1501875  14.8072634  19.9381790   2.0802059  15.5486088  20.7105331
   6.9219985  32.4309349  15.0781393   7.2041001  31.9197121  14.3196535
   6.3661375  33.1180458  14.7105436  33.9572678  54.0447044  51.8590164
  33.8250084  54.9887962  51.7728157  34.3718948  53.9381256  52.7151489
   3.4320519  27.9094620  11.8891516   2.7660797  28.1917610  11.2622385
   3.5378387  28.6561146  12.4786882  34.6062317  60.7936211  82.6519012
  35.4625854  61.1166267  82.3716278  34.0035744  61.0896492  81.9696960
  64.2399063  13.9627247   2.2659683  64.4223709  14.0422297   1.3296896
  64.6993027  14.7025909   2.6631868  86.6277847  52.3641167  80.8510666
  86.9519043  52.2338333  79.9598846  86.3546906  53.2812195  80.8749237
  66.9497299  67.6545715  51.7705269  66.3134384  68.3611832  51.8803215
  67.5754089  67.7827530  52.4835014  77.3376389  46.2935638  24.6140308
  77.0897446  46.7846603  23.8307018  78.2392654  46.0179939  24.4486065
  11.3599176  19.7860947  55.3426743  10.4162464  19.8061752  55.1835709
  11.7091980  19.2348671  54.6423988  70.5652161  27.4976044  12.2803650
  70.9027252  27.8759041  11.4684486  71.2853470  27.5883808  12.9043856
  27.1788120  34.8579254  70.4900360  26.9209042  35.3613243  71.2622452
  26.3622437  34.4737930  70.1708374  45.7371407  32.1155052  21.6580963
  45.9404793  32.1921425  22.5903034  46.4814987  31.6402874  21.2888660
  58.7184677  25.1115341  68.6328430  58.5526123  24.1688118  68.6330948
  57.8800964  25.5022869  68.8791656   3.9397776  59.5815468  72.5416794
   4.5469427  60.3181915  72.6119308   3.7234957  59.5374222  71.6102753
   0.5606714  16.4759350  76.6435623  -0.3392724  16.8014641  76.6244659
   0.5915918  15.8164816  75.9504547  53.0475998  14.3175106  71.5183334
  52.2898712  14.2014170  72.0915680  53.5646553  13.5213108  71.6406097
  15.9910841  59.2290916  53.5739708  15.6300774  60.0059776  54.0009995
  15.3103237  58.9555931  52.9591560  65.2911758  19.2027836  11.1468868
  64.8469543  18.8639755  10.3696423  64.9730606  20.1015663  11.2318792
  24.8545074  70.1066360  65.9865341  25.0733471  69.7573318  66.8504410
  24.5368633  69.3490067  65.4952850  58.1279602  52.2608147  74.4841385
  58.5496788  53.0438690  74.1302795  58.8110390  51.8337784  75.0011215
  55.1932373  66.0200043   8.8615837  55.1860199  66.8500061   9.3383293
  55.3671608  66.2670135   7.9533043   7.4181838  70.9376602  48.5446701
   8.2140350  70.4796600  48.2743187   6.7296734  70.2750854  48.4883308
  19.3574562  29.0743999   6.6060386  19.2407341  29.8390255   6.0421638
  19.2477283  28.3256054   6.0199513  66.7309952  51.3886642   9.7739515
  66.6156464  51.5495148   8.8374405  66.6553802  50.4388008   9.8649244
  14.3381853  45.2197647  44.0953369  14.0415144  46.1296425  44.0768127
  15.1184664  45.2334938  44.6495972   4.0629387  38.7817612  49.9046669
   3.5891130  39.5833740  50.1263466   4.6969056  38.6744041  50.6137428
  76.1053543   6.8464060  38.0125008  75.2874832   7.3401194  38.0723152
  76.7908020   7.5138230  38.0431595  55.2240105   3.8361609  20.3555126
  54.9493065   3.1471608  20.9605312  55.8293800   4.3748879  20.8649559
  83.3895340  49.8925896  47.3303757  83.2995911  50.2568207  46.4497643
  82.5373383  49.4974022  47.5143013  70.3278961  26.2515774  32.4044342
  69.9901505  26.9611454  31.8579216  70.7212296  26.6947098  33.1562004
  36.7561111  60.8263397  16.0487938  36.8874397  61.5913353  16.6089458
  36.3226471  60.1870689  16.6141872  26.2790546   4.8571134  85.4916763
  25.8857555   4.7758431  84.6228027  26.7301369   5.7011428  85.4724045
   8.6409426  40.0293808   9.8044281   8.0923214  40.1543007  10.5787935
   9.3550863  39.4673347  10.1049900  60.6319008  37.2276802  23.2286396
  60.2840271  36.5139160  23.7631989  59.9686852  37.3656387  22.5523682
  82.1717834  28.9601555  22.5493011  82.1944122  29.7702141  22.0398636
  81.2397690  28.7675304  22.6516399  23.6354790  16.6327171   6.1136780
  23.6231823  15.6870937   6.2615800  22.9964428  16.9807396   6.7355661
  81.7922363  31.2032928  86.5520248  81.1318741  31.5745182  87.1371307
  81.6032486  31.5941181  85.6989365  38.1681557  45.1025124  37.1177292
  37.8979187  45.8225708  36.5478859  37.7075386  44.3378487  36.7722549
  56.6387367  44.7551003  59.5134583  55.8812599  44.8985023  58.9460983
  57.0568199  43.9695549  59.1608124  67.0417557  38.9490662  26.5382252
  66.0988235  38.7851639  26.5541592  67.1371155  39.7489204  26.0211430
  20.2157860  65.8972397  13.0134020  20.3833542  65.9611282  13.9536524
  20.8480225  65.2500687  12.7008724  10.9049511  21.1103039  72.9899979
  11.6903925  20.6752834  73.3217697  10.1802921  20.5730724  73.3101349
  74.4056244  26.7109890  65.8887939  74.6462097  26.9220181  66.7909164
  74.6741104  27.4783707  65.3835526  83.2950058   0.8595549  45.1116714
  83.8640976   0.3503683  45.6888123  83.8045425   1.6424609  44.9027214
   8.5102320  59.3472633  36.2291489   9.2548838  59.5271568  35.6552467
   7.8059072  59.0901146  35.6341400  54.2311363  12.7932940  88.9318314
  54.2615852  13.1537228  88.0456009  53.5446472  12.1272001  88.8960342
   2.1214118  11.0997667  64.5505829   1.3471980  11.2983809  64.0239182
   2.6140802  11.9201880  64.5710449  72.0061417  69.6622696  76.9506912
  71.9254303  68.7340927  77.1702499  71.2458191  69.8447876  76.3985748
  21.5010052  45.2016983   5.0361528  20.7014179  45.6085510   5.3698587
  22.1991329  45.8087463   5.2818012  13.1370020  15.7889576  63.2549286
  13.0965500  15.0954552  63.9134483  12.9007940  15.3548975  62.4351540
  86.1910477  57.3281898  31.9870129  85.6326904  57.9368515  32.4707413
  86.5554581  56.7518997  32.6588249  37.3669701  62.1700592   6.9231029
  37.6322289  63.0652161   7.1341982  38.1692619  61.7489853   6.6144729
  29.0228767   2.4687884  20.2944336  28.6073856   2.4784579  19.4321651
  28.5233784   1.8227162  20.7937565  56.1760712  38.3916740  74.6729507
  56.5590477  39.2578087  74.8121185  56.2985916  38.2229118  73.7387390
   5.8752584  70.3870621  61.8318367   5.1413126  70.3867874  61.2173805
   5.6469550  69.7187500  62.4779510  60.2039299  60.6689606  82.6912003
  61.0643692  60.3538017  82.9678802  59.7089195  59.8733521  82.4957428
  75.1663666  14.5457087  52.8384666  74.6698532  14.7142849  53.6392708
  75.9132996  14.0205917  53.1258354  39.0962524  56.3595543  65.9225311
  38.7268829  56.9022141  65.2258835  40.0244942  56.5924873  65.9409103
  18.7763100  18.5912628  10.8747091  18.5708542  19.5171452  10.7452459
  18.3026962  18.1407757  10.1754351  47.9417038  54.0620461  28.4665108
  47.1161652  53.8392525  28.8967171  48.5369377  53.3525200  28.7083740
  54.3106575   5.9858675  36.2084084  53.9267921   5.2344127  35.7565269
  55.2397881   5.9533105  35.9806175  40.4131737  42.0804482  24.1366329
  39.8749542  41.6732864  23.4578323  40.0065651  42.9342613  24.2846413
  37.9808044   2.7074213   7.3768926  37.9946709   1.9827591   6.7516694
  38.7496872   3.2317250   7.1529422  83.2521667  26.7169571  29.0931625
  83.0031204  25.9143848  29.5515137  83.9455414  26.4442692  28.4922447
   3.2496400   8.1808157  40.2450676   3.9591115   8.7110186  39.8820724
   3.6905348   7.5417285  40.8049011  35.9307785  23.3497581  72.1473389
  35.4687042  23.4299011  72.9817810  36.8492928  23.5068989  72.3661270
  69.6934128  50.3981705  56.7536278  69.2931519  49.6359558  56.3352318
  69.9557724  50.0858459  57.6195679   8.6876526  42.1162682   5.3032203
   8.9985695  41.8753510   6.1758728   8.3229885  42.9944611   5.4128742
  25.8742428  29.9047527  14.1406040  26.1301632  30.6092358  13.5452566
  26.5591850  29.8955059  14.8091841  53.3459396   0.9842119  66.8843918
  52.8495102   0.3511045  66.3657684  53.7182541   0.4684651  67.5996628
  18.7367287  56.2539787  64.8756790  19.2088566  55.6823273  65.4811020
  17.8497353  56.3003654  65.2324982  34.7416763  50.1782799  23.5353870
  34.5974274  49.2378960  23.6407452  34.5374947  50.3504105  22.6161957
  39.8337555  71.4703598  33.8302536  40.5885506  71.0039673  33.4710960
  39.5417519  70.9261856  34.5615807  82.4698410  39.4337807  14.4990921
  82.0240326  38.7308121  14.0265217  82.1263657  40.2385788  14.1110735
  45.4805336   4.7201824  82.7090454  45.6030846   5.2942810  83.4651031
  45.8161201   5.2248917  81.9681778  54.1873856  15.9895992  29.9619217
  53.9600601  15.9989033  30.8916912  53.4281311  15.5941725  29.5336666
  73.9534836  49.9609146  82.2610550  73.5385513  50.1061325  81.4107819
  74.7187500  49.4204254  82.0649261  56.3700638  44.0904808  38.8237114
  56.8465729  43.4617653  38.2815971  57.0441971  44.6896782  39.1442451
  68.5713501  29.0613594  71.6715622  68.5606155  28.8326797  70.7421417
  67.8106308  28.6104717  72.0379562   2.1017103  45.5963898  87.7490082
   3.0297561  45.6385574  87.9796295   2.0900271  45.2130241  86.8720093
   0.8379855  56.6748962  82.7601089   0.4328460  57.5020981  83.0205460
   0.1887980  56.2582207  82.1933899  49.7817726   6.5722132  75.0578156
  50.7169342   6.5530958  75.2611542  49.6781578   5.9391937  74.3473358
   3.4619441  51.0850983  74.0571594   3.5612223  51.9767418  73.7234726
   3.8056607  51.1237221  74.9496841  58.7268372  57.1277657  88.6766739
  57.8419342  57.0471001  88.3207626  59.0036659  58.0108948  88.4323807
  21.7722301  50.6181412  81.2120819  22.1310921  51.0082321  80.4150391
  22.5393486  50.4282761  81.7521820   1.9164807  61.9806976  53.2660179
   2.3358915  62.7234039  53.7004318   2.3463898  61.2110901  53.6389923
  85.0929031  12.9980459  35.3400536  84.6557846  12.2272749  34.9780197
  85.4569092  12.6978655  36.1728973  79.4701691  67.4514313  77.7096786
  79.9525528  66.6514816  77.9185257  78.8163147  67.5252304  78.4048462
  79.4738770   0.8771448  65.3285828  79.2928009   0.6013451  66.2271271
  79.6814880   0.0652298  64.8660660   6.8879762  61.3905296  14.2031403
   7.1618242  62.1791916  13.7348995   6.1314325  61.6689453  14.7192392
  28.1150532  65.0447922  42.7153282  28.2998066  64.2551193  43.2237701
  27.2943611  64.8513794  42.2622414  67.1412048  59.6902237   2.9354422
  66.7263641  59.0717926   2.3340368  66.8042908  59.4480782   3.7980464
  62.0733643  42.1917152  75.1633301  61.4621506  41.6141586  74.7060776
  61.9691696  41.9669304  76.0879135  21.3050385  25.7707977   6.3203478
  21.8940220  26.5144672   6.1927271  20.5710411  25.9426098   5.7304664
  31.6654205  25.0875053   2.6620963  31.4703312  25.4279137   1.7890016
  32.6203537  25.1148586   2.7219691  14.8760509  17.3124485  64.5206680
  14.4590788  16.5271397  64.1661911  14.1477404  17.8529758  64.8266525
  61.2467804   6.4348555   7.4026909  62.1406631   6.7660069   7.3158016
  61.2205086   5.6645370   6.8351073  63.9459877  18.6139126  60.5162621
  63.2999420  17.9156246  60.4102135  64.3764420  18.4176083  61.3483734
  49.5078354  10.2840195  55.8570213  50.1188164   9.5476332  55.8828697
  49.8368034  10.8915539  56.5195274  47.8288651  49.6890297  40.3529663
  46.8716698  49.6867065  40.3505707  48.0665627  49.5013084  41.2609787
  81.2033844  58.1378136  75.4842682  81.6761246  58.7759666  76.0185928
  81.7769699  57.3718109  75.4625778  49.6194839  19.1399784  72.5140610
  50.2482910  18.5645313  72.0785294  49.6895332  19.9707947  72.0438843
  55.8390999  48.2426376  58.2678261  56.5089912  48.5715256  58.8672485
  55.5639496  47.4093208  58.6500702  51.9849815  63.9510269  39.8278503
  51.5484619  63.9902420  38.9768791  52.8834915  63.6911926  39.6243820
  51.3339844  68.8090820   7.8788710  51.7454109  68.3764877   8.6270838
  50.5302467  68.3119202   7.7269735  26.6557903  58.8785019  65.6021957
  26.4997444  59.6795807  65.1020432  27.1281319  58.3065834  64.9971924
  66.9789200  22.1077309  62.3099785  67.1453171  22.0271530  61.3708000
  67.1301727  21.2283058  62.6563339  43.8787498  33.6114502  14.4183569
  43.4253349  33.7962685  15.2408457  44.6486549  34.1799164  14.4363079
  37.0339279  67.3550949  45.5639038  37.3664398  67.9464874  44.8886795
  36.2299309  67.7724991  45.8730850  61.4788551   6.3380928  65.2318649
  62.1556664   5.9687071  65.7990570  61.8887558   6.3834119  64.3680573
  72.8164597  59.0248833  54.2057495  73.2280121  58.1625519  54.2626457
  73.1260147  59.3836098  53.3740501  15.0620203  30.6610203   9.5377073
  14.6786823  31.4201546   9.0983906  15.4971189  30.1738167   8.8380270
  66.4152145  44.6792030   8.7810535  67.0396118  43.9724426   8.6171885
  66.9609451  45.4369698   8.9913044  71.0249557  54.5941010  31.1008644
  71.6524200  55.2358551  30.7681847  71.5382080  53.7942505  31.2150822
  76.7418289  66.5577927  39.5289879  76.0340118  66.0871582  39.9691353
  76.9476471  67.2848740  40.1165504  66.9100342  55.0246582  34.2573776
  66.5457535  55.2176666  35.1212578  67.1274490  54.0931168  34.2917976
  42.6506271  30.7657089  79.6411743  42.2505989  30.4656563  80.4573746
  42.7658882  29.9686871  79.1237717  15.0735903  59.5124130  61.3299942
  15.1302996  60.2985306  60.7868233  15.5499353  58.8450966  60.8360138
  24.3974304   7.5586972  63.8708992  25.0020504   7.8978205  64.5309448
  23.5834045   7.4023080  64.3495789  85.1048584  39.8653374  30.5130615
  85.1941452  38.9543304  30.2332001  84.5708923  39.8209915  31.3062515
  77.6304474  37.8078156  83.2491302  78.5642700  37.9813423  83.3678970
  77.4767075  36.9900894  83.7223282  27.7120914  64.4082413  20.8679886
  26.8923969  63.9890175  20.6061020  28.3856812  63.7539520  20.6824741
  75.6204453  25.2250919  29.8307400  75.2376785  26.0943947  29.7122650
  76.2343369  25.1323757  29.1021957  78.2177124  63.2214851  70.1412582
  77.8858261  62.4883614  70.6595306  79.1245499  63.3270149  70.4288940
  71.6888504  31.0048237  39.3701897  71.3377838  31.4282131  40.1535988
  72.1575699  30.2388439  39.7015572  17.0604630  20.0008755  79.2868652
  16.4396439  20.3120632  78.6280975  17.9082718  20.3347263  78.9936142
  38.4566994  59.5018082  11.6397352  38.6770554  58.9023056  10.9268026
  37.9315872  58.9748802  12.2420940  33.5116692  51.7087021  61.1585922
  33.3363876  52.5536652  60.7444077  33.7718773  51.9296989  62.0528412
   2.5732400  25.5904846   9.6497698   2.7247653  26.2636166  10.3132191
   2.0383437  24.9325600  10.0939026  60.2502480  55.1313782  68.4095306
  60.1389923  54.8982582  67.4878387  60.6999130  54.3790474  68.7942810
  26.5395966  57.4364357  59.1075668  26.9775810  57.4115105  58.2568130
  26.0349503  58.2496758  59.0934181  85.5804749  65.8325882  71.1285400
  84.8375092  65.6023636  71.6864243  85.2146530  65.8671646  70.2446823
  19.2169800  39.0577545  70.3551483  19.5563240  38.3709984  70.9291229
  19.9199085  39.7062912  70.3161087  82.7412796  22.7039165  70.9225235
  83.2052460  22.5922279  70.0927658  82.5760803  23.6450138  70.9797745
  34.3827515   2.9925971   2.8219712  34.1813049   2.4694071   3.5978076
  34.6139488   3.8546617   3.1678395  61.7494469  17.0980988  13.4060879
  61.1065445  17.7622890  13.6546030  62.5956993  17.5331764  13.5099936
  43.2157059  29.7489529  60.3920288  44.0429001  29.3658104  60.6838989
  42.5769310  29.0428352  60.4899750  63.9192085  40.6786766  82.6304855
  64.3976974  41.4988251  82.5094910  64.5563049  40.0863686  83.0298767
  65.4681778  41.1743164  54.4149208  64.9636307  40.7857208  53.7003174
  65.1217422  40.7604141  55.2054253  69.6522446  21.3984184  87.7791367
  70.3726501  21.9320202  87.4436951  69.0713043  22.0246353  88.2111053
  54.2732353  12.8844452  32.6779022  54.0947571  12.9281178  31.7385025
  54.4541512  11.9593925  32.8445740   4.7975388  62.0564804  83.5243149
   5.2304058  62.0747528  82.6707764   4.0392261  62.6313248  83.4206467
  35.8013344   1.3608298  22.8747826  35.1037483   1.6496378  23.4631634
  36.5884933   1.7929225  23.2063046   7.1264009  45.0118446  78.6828918
   7.5116148  45.8133011  78.3286133   6.5821819  45.3096046  79.4118652
  36.7999535  16.9584579  79.9610214  35.9111633  17.1566868  79.6660843
  37.0575562  17.7230988  80.4759903  64.5626526  65.5613251  71.2367249
  64.6386642  64.6675339  71.5707703  65.2802429  65.6441269  70.6086807
  79.2686234  25.4872742  49.1809540  78.8662567  25.0278568  49.9180260
  79.4738235  24.7962341  48.5512047  69.0851898  45.9631233  26.5425186
  68.2500305  46.2865677  26.2046852  69.5418091  46.7484360  26.8442039
  52.0498505  42.2760506  79.9267578  52.8354187  42.7273369  79.6178055
  51.5370865  42.9578323  80.3609009  61.0002022   1.8267502  70.7879639
  61.5304375   1.1870633  70.3126907  60.2658958   2.0115337  70.2024002
  53.8520622  16.4986515  54.9910316  54.5808830  16.7626514  54.4294624
  54.2704430  16.1425610  55.7748642  84.6159210  15.6725082  81.7797394
  84.4243240  16.5832081  81.5558014  84.2940826  15.1691589  81.0318832
  38.6198349  62.8632393  45.1624641  38.9222031  63.1972466  44.3179283
  38.0024834  62.1671448  44.9375954  42.4294891  36.9602776  73.2459793
  42.1091423  36.1455498  72.8589020  43.3713684  36.9522820  73.0755997
  71.7981949   3.1636305  10.2974749  70.9125748   3.0463867   9.9537411
  72.3712845   2.9408329   9.5638800  80.9273148  54.7629890  37.2088165
  80.3890381  54.0823021  37.6127434  80.7727051  54.6645584  36.2693291
  13.5837727  61.4236488  46.0428543  12.9288855  60.7517548  46.2323608
  13.6214876  61.9528198  46.8395920  14.9259548  37.5776482  58.1288185
  15.8201180  37.7250175  58.4370193  14.5774555  38.4559669  57.9760513
  84.1492004  48.7243500  19.1770592  83.6760864  49.5432510  19.3246899
  84.2488174  48.6733246  18.2264252  38.4057503  13.7434788   3.5010946
  38.9754372  13.0724077   3.1251249  38.0261269  14.1876221   2.7429030
  19.5761261  31.5767345  80.6913300  19.8530178  31.6876965  79.7817993
  20.3936024  31.5430012  81.1881485  29.1495819  63.5932045  11.2636681
  29.6488171  63.7866325  10.4702063  29.0428905  64.4423065  11.6924686
  59.7632332  61.5054855  54.4409790  60.2173386  62.1137085  55.0241432
  60.2755241  61.5211792  53.6325569   8.0785465  58.4065590  42.3749390
   7.6056108  57.9677124  41.6678467   8.8616266  58.7621384  41.9547234
  25.9420547  51.5331230  66.8706055  25.4402218  52.1918640  66.3905487
  25.2994289  51.1110840  67.4408264   5.8767095  45.8840103  84.4459610
   6.8229818  45.9629173  84.5666809   5.5828519  46.7771339  84.2664871
   6.0251021   5.9758091  79.2736053   5.8062930   5.2806025  79.8941193
   5.8250856   5.6023912  78.4152451  31.2317886  58.0687180   0.5720321
  31.5496521  58.6745300   1.2414981  30.3257904  58.3362427   0.4176611
   7.7966619   2.9279294  68.7930222   8.0692444   2.6787903  67.9099274
   7.3335214   2.1594622  69.1264801  12.6863575  54.9491692  43.2163887
  13.5625772  54.9411278  43.6016235  12.2752399  55.7366905  43.5727997
  61.4348640  67.1440887   3.5445168  60.6519928  66.6625977   3.8119280
  62.1479912  66.7312469   4.0315933  55.3447227  53.5244751  49.0396652
  55.9573402  53.1545906  48.4039650  54.9383163  52.7622871  49.4521408
  14.8660908  42.4273529  75.6152420  13.9124031  42.4067764  75.5359573
  15.1333237  43.1855583  75.0956879  76.0718155   4.7279272  41.2906113
  76.9932861   4.4886088  41.3898697  75.8896713   4.5985265  40.3598518
  24.9527187  36.3902016  69.4059830  25.9074440  36.4366798  69.3552628
  24.6805134  37.2825661  69.6200333  62.2792778  67.1753845  85.5472107
  62.7913208  66.4397964  85.2111053  61.3959084  67.0261536  85.2101364
  13.5986357  26.2134857  22.2148380  12.9340448  25.9657001  21.5720673
  14.4216948  26.1982212  21.7263985  66.0727158  48.0162926  60.8321114
  65.3485794  48.1627274  61.4407234  66.8183365  47.8041725  61.3936119
  57.6109276  11.7882929  20.6206417  58.5182190  11.6161327  20.8724670
  57.2822189  12.3789711  21.2983456  80.0673752  43.9006920  28.0427322
  79.2007446  43.9140701  27.6365376  79.9024963  43.6458588  28.9505348
  65.0512390  60.4775620  83.0422363  65.6163788  60.9982986  82.4715576
  65.4389343  59.6024857  83.0294189  45.9773483  40.4136963  29.5860119
  45.2195053  40.0799332  29.1058979  46.6231728  39.7091179  29.5339222
  29.6278439  53.1686325  48.6428032  30.2919827  53.8578987  48.6504707
  29.6611042  52.7941704  49.5230904  12.1583576  13.9109030  67.6356049
  12.4336777  13.6254358  68.5067749  12.9435606  14.3018494  67.2523956
  38.4167328  39.4021683  58.2645836  38.2675438  38.7946548  58.9890823
  38.8979034  38.8881035  57.6161652  26.1350079   3.1457033  10.4178247
  25.5347614   3.6805019  10.9373703  26.5243797   3.7592816   9.7948132
  58.1164742   3.5622251   2.7212515  58.5857735   4.2677445   2.2760208
  58.1420250   2.8308883   2.1042218  52.7562637  65.3562088  65.7308121
  52.2993011  65.7081146  66.4947357  53.5762978  65.0085373  66.0813828
   9.9317980   6.2507515  14.4273176  10.8873863   6.2213702  14.4744196
   9.6393576   5.8700223  15.2554207  75.3429871  49.6830864   8.4427443
  75.7910767  50.5282326   8.4770832  74.4375839  49.9008522   8.2212696
  28.9422989  20.4972801  63.9207306  29.5395317  19.8182220  63.6069984
  28.1448345  20.0239544  64.1578903  84.1431046  41.1155319   0.0335478
  83.3599625  40.9874802   0.5688224  84.8120728  40.5759354   0.4549114
  69.8754196  24.1567688  76.2391129  69.0373077  23.8150845  76.5506439
  69.9625092  23.8059902  75.3527679  52.2385483  51.6059685  87.7120590
  52.4769173  51.3226967  88.5947647  52.9043655  52.2534332  87.4803162
  51.7681465  70.0714340  24.3675632  51.8260536  69.8041458  23.4502640
  51.2170143  69.4044876  24.7770386  65.0121536  48.6666260  58.1674461
  65.3860168  48.9814758  58.9904480  64.6962662  47.7858925  58.3693161
  63.2172699  57.4337463  73.6574936  62.6583977  57.4996986  74.4317932
  62.6505775  57.0566940  72.9844971  84.2662659  53.3356018  16.2450714
  85.0174332  52.9179840  15.8236704  84.5920105  53.6034050  17.1043739
   2.2759540  19.0102177  20.7671432   1.3827151  19.3506966  20.8164330
   2.7703204  19.6983051  20.3217545  28.2142277  30.3337383  58.5607071
  28.4066982  31.0794411  57.9922791  28.8887386  30.3692055  59.2389488
  12.6732941  52.1660118  75.5248642  13.3592854  51.5030365  75.4467087
  11.8554850  51.6749840  75.4454193  29.3514042  56.0847702  48.3672523
  28.6432972  55.4552689  48.5034218  30.0312767  55.5861588  47.9140472
   8.1500826  64.2622299  65.8483429   8.6015854  65.0125809  66.2347946
   7.6075988  64.6397324  65.1559296  38.2055016  63.0370598  15.2308731
  37.7302055  62.3142471  14.8211594  38.9624519  62.6220665  15.6444435
  56.5733032  68.6813278   8.1850204  56.0723991  68.2239227   7.5096645
  57.3984642  68.9103546   7.7573600  85.0941162  35.7561951  55.8896217
  84.9285965  35.0718536  55.2411537  85.1990204  35.2834435  56.7152901
  69.5371094  68.8758850  27.6276875  70.3666229  69.1962738  27.2734280
  69.1473618  68.3761902  26.9103127  67.9721146  23.9506187  47.9726601
  68.7403259  23.7471313  48.5062141  68.3319397  24.2189007  47.1272125
  67.4367294  47.7963066  77.2045059  66.7411041  47.6341362  76.5672836
  67.3622208  48.7285728  77.4083557  18.9018688  10.3388052  71.6920242
  18.2746582  10.7719498  72.2710114  19.3765316   9.7342653  72.2625122
  34.3625717  53.1986122  26.5336857  34.6911888  53.8208389  27.1825905
  33.4106102  53.2362785  26.6263599  74.5378113  25.7253323   4.8380351
  74.4365921  25.0569096   5.5156755  75.4839935  25.7981129   4.7128348
  16.0014515  39.5910988  33.3360329  16.6777706  38.9182320  33.2581024
  16.3977299  40.2663612  33.8866806   7.4648108  53.2689743  35.1777382
   8.0804377  53.4860687  34.4776649   7.6435471  53.9136734  35.8623161
  26.2884274  38.2652016  15.7974396  27.2228317  38.1423492  15.9648523
  25.9716320  37.3944740  15.5572147  38.2267036   3.7597213  29.4680977
  37.3440285   4.0971308  29.3155460  38.1864548   2.8465300  29.1840305
  84.9398193  52.9453773  46.1813011  84.8008194  52.7085648  45.2643318
  85.8664627  52.7635078  46.3378181   6.8580289  34.2274246  18.2528706
   7.0781403  33.4055328  18.6913605   5.9058266  34.2011604  18.1587811
  35.1346436   0.2936781  15.7462502  35.5821304  -0.2843631  16.3641968
  34.4497261   0.7150820  16.2654209  28.8004475  47.7594757  14.8933830
  29.4197121  48.4342728  14.6151934  29.2902870  47.2294006  15.5221214
  57.9288826  46.2199669   4.8661208  58.8726692  46.3335266   4.9783854
  57.8350792  45.3390198   4.5036850  64.1473618   1.1096313  49.5418358
  63.2496033   1.0556935  49.8694954  64.0713577   0.9310847  48.6045113
  52.5772743  33.3314857  39.7129326  53.1054573  33.8890839  39.1416702
  53.2088852  32.7374420  40.1184044   5.5900736  37.4804878  13.2457781
   4.7097230  37.5384521  13.6170654   6.1719003  37.6991272  13.9737244
  65.3927689  43.9698944  54.9079819  64.4758224  43.9306793  55.1798286
  65.5612717  43.1159058  54.5098038  30.7556801  66.1060028   5.5121245
  31.4262581  65.4262619   5.4449959  30.9426994  66.6995926   4.7848668
  17.4428959  43.2765503  52.0850410  16.8736439  43.7571335  51.4840202
  18.2361355  43.1045761  51.5776672  27.9471760  57.7506332  56.7889671
  28.6210670  57.1700172  56.4354324  28.1831226  58.6186371  56.4616547
  27.2321415   0.2975226  48.0029068  27.5435619  -0.5966188  47.8623390
  27.5404911   0.5233542  48.8804893  23.9766426   8.3991604  59.4035301
  24.8323612   8.4033384  59.8324394  23.3799477   8.7660265  60.0559082
  79.4148483  42.5989990  63.5929794  79.3798904  42.9780464  62.7147217
  78.6213913  42.9177437  64.0231705  12.7993994  23.2098236  80.9051666
  12.7030001  22.2590752  80.9600906  13.6036062  23.3403950  80.4027405
  75.2528152  68.6797028  80.8920746  74.9923096  69.3302460  80.2400284
  75.0221329  69.0767365  81.7319489   2.1745536  27.6186275  57.1619072
   1.4286084  28.1119423  57.5031395   1.9681617  27.4813213  56.2373657
  53.6392746  27.6722240  55.9744987  54.3819771  28.0961933  56.4044724
  53.8811607  27.6466274  55.0487213  68.3539505  14.7741709  55.0289268
  67.8110352  13.9942045  55.1434898  67.7305908  15.5004959  55.0185890
  47.9567299  15.1781836  79.7788620  47.4802208  15.9651804  79.5146561
  47.6718636  15.0163307  80.6782455  36.2070084  67.2172852  27.7167664
  35.6182861  67.8242722  28.1653233  35.6934586  66.4157867  27.6162281
  61.3173065   5.3389373  20.6327591  61.4726295   5.4348545  21.5723896
  61.5978317   6.1735001  20.2572041  35.6661339  71.4966736  42.8204689
  35.2603989  72.1535797  42.2547112  34.9336243  71.1046677  43.2958565
   4.0522871   2.5639832  34.8419647   4.9431581   2.5768349  35.1918411
   4.0148983   3.3185399  34.2541885  47.9606400  26.0032196  62.1896286
  48.0440559  26.5209141  62.9904213  48.5804634  26.4036160  61.5799255
  21.4904823  36.2471161  19.8311996  20.6418056  36.6413116  19.6297245
  21.3824081  35.3213806  19.6131153  13.0370502  32.2373619  67.5490952
  13.8851843  31.9782200  67.9093018  12.9295130  31.6894341  66.7716370
  82.4181137   8.6782618  16.7047901  81.9864960   8.6806059  15.8504276
  83.2205963   8.1751928  16.5663452  47.9980621  12.0648851  61.9773598
  47.5065460  11.6005268  61.2998543  47.4826241  11.9412832  62.7744026
  52.3165970  58.8378906   5.4864244  52.0262451  58.9443474   4.5805573
  52.0592384  57.9452591   5.7170968  60.4668541  28.9106903   6.4200177
  59.7021523  28.8640156   6.9938507  60.1044121  29.0871811   5.5518489
  40.7671890   4.3487201   1.1304536  40.1753349   3.7870977   0.6299325
  40.2106438   4.7470379   1.7996559  -0.1187952  58.7188568  26.4345741
  -0.3263376  57.9188957  25.9516487   0.8377487  58.7538261  26.4402981
  31.3527107  19.2725410   1.9448917  31.3464489  20.2166080   1.7869931
  30.5594273  18.9525833   1.5152886  85.3415909   9.9326553  50.7182846
  85.5091553  10.1153736  51.6428185  85.1298370  10.7860689  50.3400269
  62.8585281  44.0413551   7.7091656  63.2484550  43.5606422   8.4393053
  63.1887932  43.5987053   6.9273605  84.1198654  38.8854408  61.4453659
  84.4627457  38.4861984  60.6458244  84.8894119  39.0068893  62.0014839
  12.4342747  36.9803009   5.6444602  13.2688341  37.4483223   5.6709323
  12.1505022  37.0480309   4.7328029  47.9394531  50.4998894  16.3956947
  47.4880257  51.3044319  16.6509457  47.9418259  49.9645233  17.1891747
  86.2442322  64.9219894  21.2931099  86.6534424  65.4949036  21.9416103
  85.6512909  65.4952545  20.8072929  69.3864136  41.0660515  76.6559448
  69.3422318  41.7955208  76.0377579  68.6533051  40.5008850  76.4122925
  77.5088348  45.7333794  67.7497330  77.7196808  45.0156517  68.3469315
  78.3190918  46.2392197  67.6877060  68.7055206   6.3336692  57.1678619
  68.0261917   5.7788620  57.5511818  68.7749100   7.0763679  57.7677078
  68.5992050  52.8191338  53.8269882  69.3164520  52.1887283  53.8930893
  68.0599518  52.6502800  54.5995979  16.7083607   3.1617799   1.1456484
  16.2523975   2.3888569   0.8126024  17.5402050   2.8244531   1.4780298
  34.5840111   1.4687270  78.8670120  34.3407822   1.9781214  78.0939713
  33.7994614   0.9619380  79.0764847  10.4758568  41.0773392  46.6591873
  11.0967817  40.4084129  46.3707008  11.0257149  41.8022041  46.9566040
  26.7518806   7.2531586  78.3186188  27.3600750   7.9082532  77.9762955
  25.8981094   7.5162840  77.9749985  64.3746490  17.0800285  63.0745583
  65.1303940  16.8261166  63.6042862  63.7231903  16.3997803  63.2451248
  67.8740921  36.5721436  80.8832016  66.9589157  36.2919426  80.8964005
  67.8402481  37.4878387  80.6064529  64.7500687  23.4763050  54.4074783
  64.8402710  23.3183002  53.4677277  65.4350357  22.9403877  54.8072853
   0.0380635  54.4872169  53.5441704  -0.6222216  54.1976700  52.9145546
   0.7552181  54.8187065  53.0037689  66.7303848  37.5030251  87.3196030
  66.6482773  38.0148239  88.1243134  65.8889694  37.0547829  87.2339401
  47.0300865  70.8072357  33.4792061  47.6611099  71.5166016  33.3573761
  46.6627884  70.6610565  32.6074524  74.4195557  18.3047390  72.8220444
  74.6295929  17.7784748  73.5935135  74.0905075  19.1302891  73.1776123
  66.1370697   3.7005711  23.3985367  66.2841797   3.1816983  24.1893349
  65.5936661   3.1416972  22.8430157  52.9435654  42.6487236  58.9482613
  52.6456108  42.0843964  58.2348289  53.7980042  42.2937546  59.1935501
  86.4969788  46.9808846  72.8726578  86.0061569  47.7678719  72.6360550
  86.6290970  46.5224800  72.0428085  68.7165833  43.4201584  82.4190292
  69.3009033  43.7819557  83.0852966  69.2527008  43.3789635  81.6271210
  53.5795021  16.9739208  73.4776840  54.0571938  17.5642033  74.0604477
  54.2625961  16.4749184  73.0297852  14.7549706  57.3857040  51.3473358
  14.8415003  56.7021980  50.6828346  15.5430498  57.9194489  51.2459564
  61.1707153  41.6998558   0.3757426  62.0343513  41.3717537   0.6261786
  61.1210594  41.5475769  -0.5679613  19.2987213  56.5662613  50.8474655
  18.8934994  56.3643150  51.6908226  19.7882004  55.7753448  50.6214256
   5.1164761   8.9042177  26.7582073   5.7919273   8.2356529  26.6441116
   4.9663987   9.2459335  25.8767662  51.0882301  11.9948692   1.8718762
  50.2632904  12.1173306   2.3416700  51.6702499  11.5860329   2.5124516
  86.8301390  71.6434957  89.1920650  90.0000000  90.0000000  90.0000000
