QMMM reactant CHA#2 frame 56098
 55680
  19.3977776  41.8425407  38.8087769  20.1537018  41.7460175  39.4716187
  19.2521362  42.7527313  38.3959236  18.6226158  41.6482658  39.4264183
  19.6054478  40.8114624  37.7871246  18.7698441  40.9037132  37.0933266
  20.8464165  41.1115379  36.9242821  20.8420639  42.1497574  36.5923576
  21.7620773  40.8228149  37.4403267  20.8978691  40.2776222  35.6776543
  20.8416939  39.2237511  35.9502411  20.0272045  40.3970222  35.0328407
  22.3500957  40.4923592  34.5897560  22.0272827  41.9478035  33.6783829
  21.0046883  41.7004776  33.3933716  22.1889019  42.7867470  34.3552551
  22.5998478  41.9259033  32.7511368  19.5494404  39.3938255  38.3591728
  20.2433071  39.1774712  39.3575478  18.5861549  38.5465469  37.8310242
  17.9564152  38.8571854  37.1050568  18.3654842  37.0517235  38.1406593
  18.2595596  37.0378685  39.2254143  17.0275784  36.5551758  37.4922943
  16.2448902  37.1675453  37.9400673  16.9367828  36.7444344  36.4226990
  16.5879974  35.1073723  37.8926620  17.2907028  34.4077339  37.4400940
  15.5692844  34.9921455  37.5224648  16.6005077  34.8304482  39.6890869
  16.3212395  33.0474052  39.5942841  15.2795038  32.9114037  39.3037872
  16.5625114  32.7217636  40.6061401  16.9254284  32.5680733  38.8240242
  19.6082973  36.2727737  37.6144218  20.2772293  36.7073822  36.7022552
  19.9077950  35.2159386  38.3673439  19.2944965  34.9730186  39.1321678
  21.0099487  34.2332497  38.1737366  21.8487282  34.6618042  37.6251945
  21.4756756  33.6313896  39.5230865  20.6172009  33.0966797  39.9295349
  22.7566872  32.7579994  39.3530807  22.5134335  32.0421181  38.5679359
  23.6536007  33.2978783  39.0494766  22.9098797  32.0850449  40.1967430
  21.7538509  34.6330986  40.6396675  20.8105602  35.1304245  40.8654327
  22.1384468  34.1563492  41.5412750  22.7166595  35.6865463  40.2070122
  22.2133236  36.4531517  39.6178932  23.2464676  36.1354599  41.0471840
  23.4618835  35.1909828  39.5847931  20.4523659  33.0988655  37.3039055
  19.5503082  32.4168930  37.7686310  20.9693642  32.8147125  36.0341759
  21.7751961  33.3680916  35.7802010  20.6228447  31.6674252  35.1981926
  19.7701588  31.1840134  35.6749992  20.3779793  32.0881996  33.7463036
  21.1356945  32.7933273  33.4045944  20.5909576  31.1791134  33.1838913
  18.9686947  32.6550179  33.4454575  18.7761078  32.4003868  32.4032593
  18.1571503  32.1627655  33.9813499  18.7825603  34.1447525  33.6313667
  19.3745499  34.4690781  34.4872055  19.2101269  34.6373825  32.7580948
  17.3230572  34.5828133  33.7834282  16.6028481  33.8773041  33.8438988
  16.8336048  35.8178902  33.7424469  17.6053429  36.8654671  33.7452431
  17.1737480  37.7784424  33.7626152  18.5832500  36.8055916  33.4998627
  15.5905533  36.0671463  33.8983078  14.9851007  35.2644424  33.9942055
  15.2522793  37.0095673  34.0306549  21.6738968  30.5351410  35.3093414
  22.8435287  30.8203411  35.3041687  21.2605743  29.2659321  35.1425095
  20.2808323  29.1360226  34.9343529  22.1615448  28.1139126  35.0244408
  23.1299839  28.3254223  35.4777527  21.7766666  27.1750107  35.4224777
  22.3122559  27.9064388  33.5594673  21.3660088  27.9916573  32.7898216
  23.5181503  27.4107647  33.1558266  24.2398357  27.2905655  33.8521194
  23.9930801  27.0885715  31.7936115  23.1646805  26.9705276  31.0950928
  24.8317451  28.2701645  31.2580338  25.7880821  28.1540928  31.7679825
  25.1771812  28.0467110  29.7686100  25.5852127  27.0366154  29.7324219
  24.2736454  28.2113590  29.1815720  25.9017029  28.7947083  29.4466190
  24.3515530  29.7532368  31.4436169  23.5183887  29.9857769  30.7803974
  24.1508217  30.0065022  32.4846077  25.3440495  30.8717384  31.0094490
  24.9441204  31.8570061  31.2490387  26.3450470  30.6261597  31.3641262
  25.3694038  30.7839890  29.9232826  24.7515106  25.7713737  31.9121914
  25.5020847  25.5709953  32.8726654  24.4623947  24.8060780  30.9395218
  23.8196507  25.0731888  30.2076530  25.0374203  23.4264774  30.8387432
  25.8954639  23.4387302  31.5108414  24.0515270  22.2808609  31.1490593
  23.2008762  22.3751774  30.4740772  24.5228634  21.3179684  30.9521408
  23.5319614  22.2552090  32.6156158  24.4314880  22.5456085  33.1584053
  22.7460651  23.0057678  32.7001038  23.1141853  20.8271255  32.9835396
  23.9582081  20.1408672  33.0526505  22.7120953  20.8130741  33.9965706
  22.1109581  20.3572292  32.0611229  21.2658005  20.8825989  31.8885136
  22.1568050  19.2870655  31.2863102  22.9911575  18.3233223  31.6061077
  23.8395672  18.4179497  32.1458740  22.9106808  17.5349026  30.9799938
  21.3488979  19.0946865  30.2995720  21.3477669  18.1646233  29.9057655
  20.5999928  19.7577591  30.1596642  25.6952305  23.1851749  29.3995152
  25.4271946  23.8772621  28.4226074  26.4645195  22.1106625  29.3041897
  26.6205063  21.6735783  30.2012539  27.0085640  21.5379562  28.0537205
  26.1972599  21.4620609  27.3297596  27.8425941  22.1585979  27.7261581
  27.6285553  20.1949940  28.1249542  28.0510502  19.7767544  29.2222023
  27.9463787  19.6462421  26.9865608  27.6432629  20.0602646  26.1166153
  28.5130653  18.3518505  26.9101772  29.1350994  18.1954193  27.7914867
  27.3576183  17.2850647  26.8074722  26.7120628  17.3106918  27.6853714
  26.7683086  17.5087414  25.9182110  27.6647224  16.2468872  26.6810760
  29.5201645  18.2662144  25.6802864  29.2263393  18.8192520  24.6480865
  30.6208782  17.5505657  25.8332424  30.8310509  17.1283665  26.7263680
  31.4895802  17.2273598  24.6412106  30.8146992  17.2909393  23.7876301
  32.5991631  18.2442226  24.5560284  32.1986275  19.2523823  24.6622772
  33.6787949  18.0364170  25.5695782  33.3009148  17.8391399  26.5727673
  34.2990799  17.1919746  25.2691402  34.2588234  18.9530544  25.6765556
  33.1282387  18.1522827  23.2857628  33.5147324  18.9980011  23.0470486
  31.9780273  15.7622013  24.8248100  31.6722641  15.1083002  25.7859573
  32.6852913  15.2272959  23.8438454  33.0390587  15.7663507  23.0664349
  33.2406845  13.8541479  23.8320332  33.2393494  13.4291191  24.8357506
  32.3388481  12.9335260  22.9128170  32.9392395  12.0380068  22.7525864
  31.0283279  12.4687967  23.5018444  31.2607422  11.6662226  24.2018108
  30.5290775  13.2827377  24.0275345  30.3751945  12.0015574  22.7648163
  31.9888477  13.6184435  21.7429562  32.6931381  13.3462830  21.1500816
  34.7157288  13.9712105  23.2823544  35.0170479  14.9411726  22.5577946
  35.5823746  12.9778395  23.5936451  35.2843704  12.3467884  24.3237591
  36.9252701  12.7749166  23.0147800  37.0001259  13.4000273  22.1249866
  37.9864731  13.1447916  24.0191727  38.9235191  12.7784042  23.5998802
  38.0530357  14.6061583  24.5010662  38.2492943  15.1969490  23.6063271
  37.0597687  14.9765425  24.7547131  38.7917213  14.8565702  25.2624702
  37.8471527  12.3732300  25.3273945  38.7147903  12.5004034  25.9747944
  36.9985161  12.7584333  25.8926697  37.7793808  11.2900248  25.2265244
  37.0407600  11.3685303  22.5754890  36.2644882  10.5038967  22.9387112
  38.1204338  10.9826784  21.8481903  38.8668709  11.6450138  21.6924744
  38.3064499   9.6398983  21.2979050  37.3746071   9.0852928  21.1875420
  38.7280502   9.6535444  19.7877903  39.6405029  10.2306366  19.6378078
  38.9014359   8.6230288  19.4778328  37.7646751  10.2567787  18.7976646
  37.7077980  11.3293018  18.9835682  38.0577049  10.0681238  17.7648754
  36.3194351   9.6770144  18.7859364  35.4059105  10.4010830  19.3015633
  36.0908318   8.4978065  18.4358883  39.2715034   8.6969948  22.1357746
  39.3239632   7.5111966  21.9953861  40.1662064   9.3515377  22.8769474
  40.0421371  10.3357182  23.0669384  41.2391815   8.7163219  23.6480770
  41.0034637   7.6640482  23.8070068  42.5238495   8.8756924  22.8658047
  42.8017387   9.9282446  22.8109055  43.2134247   8.1816730  23.3463535
  42.4594536   8.2569914  21.4326763  42.0392075   7.2548623  21.5177002
  41.9200897   8.8596411  20.7019234  43.9112625   8.0619850  20.8592453
  44.4698219   8.9974413  20.8914261  44.3680420   7.3189492  21.5129662
  43.8937721   7.4214334  19.5308208  43.2884216   6.6158357  19.4625530
  44.3941383   7.8933511  18.4091015  45.1294060   8.9717522  18.2868385
  45.4533730   9.2305622  17.3658810  45.4351540   9.5336056  19.0684643
  44.2395172   7.2119498  17.3121243  44.7604942   7.4286313  16.4744301
  43.3926086   6.6621580  17.2881546  41.4218407   9.2357626  25.1033306
  41.5506859  10.4574776  25.2049007  41.3631897   8.4455500  26.1600437
  41.1205177   7.4945126  25.9218464  41.6449852   8.9485636  27.5562687
  40.9631538   9.7740316  27.7607555  41.2912865   7.8878350  28.5997162
  40.2414322   7.6103802  28.5052567  41.8276100   6.9727101  28.3487053
  41.6371155   8.2697678  30.0800343  41.4955063   9.4519835  30.5134926
  42.0537071   7.4119062  30.9116421  43.0380058   9.5015106  27.7464676
  43.9853058   8.8496218  28.1482220  43.2687454  10.7399521  27.3838959
  42.4931335  11.3031130  27.0655003  44.5747719  11.4572020  27.5131702
  45.1824112  11.0570498  28.3248043  45.4557800  11.2843571  26.2214165
  45.0889397  11.9478664  25.4382896  46.9012680  11.6712809  26.2577991
  47.0209770  12.7266426  26.5026855  47.4830055  11.0371294  26.9267788
  47.3112259  11.7228651  25.2491493  45.4686356   9.9646959  25.7768764
  44.5375824   9.7311363  25.7905807  44.4676781  12.9576101  27.8218040
  43.5561790  13.6232481  27.2787037  45.3265457  13.5370569  28.6201134
  45.9838181  12.9543247  29.1186295  45.3566933  14.9854841  29.0133705
  44.5083847  15.1724930  29.6717834  46.6700783  15.4146109  29.8015842
  47.5187645  15.3308105  29.1227570  46.6213684  16.4380035  30.1736012
  46.8995857  14.5854979  31.1214733  46.4973221  15.0688982  32.0117569
  46.4420815  13.5993710  31.0417976  48.4648323  14.4212322  31.3898907
  48.8460503  13.2817717  31.6604614  49.2328720  15.3098850  31.2475967
  45.1850853  15.9330063  27.7873631  44.3728104  16.8846741  27.8606243
  45.9478531  15.8233852  26.7329865  46.6688271  15.1362629  26.9007912
  45.9305954  16.6378498  25.5071583  45.9340782  17.7096786  25.7053261
  47.1666336  16.4353371  24.6184292  47.2337723  15.3728466  24.3845348
  46.9466858  17.0696049  23.7596931  48.4321251  16.8587685  25.2947121
  49.3102646  16.9035378  24.6505337  48.4267311  17.9194374  25.5458164
  48.9144058  16.0512333  26.5124893  49.4179688  16.6948261  27.4396477
  48.7984581  14.8237123  26.5890522  44.6490746  16.4447517  24.7069855
  44.4099464  17.2173080  23.8292313  43.8176460  15.4437809  24.9391403
  44.1030731  14.7570190  25.6225052  42.4176407  15.3772860  24.4375935
  42.3062553  15.9537439  23.5192261  41.9310875  13.9049940  24.2114258
  41.5815582  13.4332314  25.1297722  41.0558929  13.9244452  23.5620003
  42.8850632  13.0284424  23.3953838  43.6422272  12.6711121  24.0933228
  42.3707466  12.1376410  23.0347500  43.4472961  13.6763506  22.1578140
  42.5984192  14.2906599  21.4703331  44.6437645  13.5678148  21.7775192
  41.3976479  15.9850645  25.3639221  40.6360512  16.8559399  24.9681644
  41.4459152  15.6256304  26.6609554  42.1111603  14.9149523  26.9301815
  40.4993935  16.0917187  27.7249088  39.4713669  15.8911905  27.4231625
  40.7197914  15.2772169  29.0553780  41.7954865  15.2867546  29.2311306
  39.9709587  16.0621357  30.1679382  38.9808464  16.1827354  29.7283669
  39.8736115  15.5261374  31.1120396  40.5220337  16.9916935  30.3105621
  40.2983551  13.7939711  28.9770927  39.2323799  13.6677771  28.7876854
  40.8004990  13.4288130  28.0812092  40.7351189  12.8010082  30.0949516
  40.4023247  11.8035641  29.8078117  41.8208618  12.8053179  30.1910782
  40.2719650  13.1107912  31.0317707  40.5386009  17.6115341  27.8768196
  39.4924965  18.2377129  27.9698524  41.7162323  18.1666298  28.0721779
  42.5173454  17.5517120  28.0860519  41.7712402  19.5565891  28.5268574
  40.9938049  19.7803268  29.2573643  43.1080933  19.8673611  29.1834412
  43.8408051  19.7923527  28.3799458  43.0521202  20.9099560  29.4964371
  43.5136185  18.9698200  30.3732185  43.6469612  17.9239902  30.0965157
  44.9095383  19.4154491  30.8534508  44.8619957  20.4258156  31.2596607
  45.2837791  18.6353588  31.5164013  45.6248474  19.5206528  30.0377522
  42.4776039  19.1474953  31.5127239  41.5760880  18.6315765  31.1822758
  42.8932838  18.6752949  32.4028587  42.2129593  20.1985683  31.6280861
  41.5161133  20.4138050  27.2611866  40.8889046  21.4576054  27.3944721
  41.8669395  19.9597168  26.0866852  42.2199516  19.0271473  25.9260731
  41.7182121  20.7341843  24.8357220  41.9607697  21.7931976  24.9237862
  42.6040001  20.0997772  23.7133789  43.5486107  19.7873116  24.1585503
  41.9804726  19.2821293  23.3517628  42.9142303  21.1203899  22.5876122
  43.0008011  20.5351963  21.6721039  42.0346527  21.7168350  22.3453350
  44.1096191  21.9737663  22.8298607  44.0347672  23.0687218  23.2817326
  45.2278938  21.5030594  22.4281464  45.3056946  20.5303993  22.1674118
  46.0373917  22.0251465  22.7318516  40.2492676  20.7746277  24.4382915
  39.7152214  21.7918663  24.0489998  39.4496689  19.6555519  24.5082817
  39.8687210  18.8177814  24.8859482  38.0066605  19.6392403  24.1601028
  37.8302803  20.1760654  23.2280045  37.5177040  18.1098824  23.9135036
  38.1434059  17.3709679  24.4141083  36.5176544  18.0404739  24.3415070
  37.2933731  17.7804317  22.4153252  36.9504013  16.7494030  22.3290863
  36.4220428  18.2847919  21.9975853  38.5274734  17.8273849  21.5051708
  39.0427361  18.7813473  21.6171951  39.1071281  16.9506721  21.7940941
  38.1033096  17.6465836  20.0397091  37.5214233  16.7251110  20.0196877
  37.4316330  18.4504414  19.7384415  39.2659340  17.4417076  19.1448421
  39.8907814  18.2320461  19.2157860  39.6490364  16.5276699  19.3394699
  39.0283508  17.4844913  18.1641159  37.1726913  20.3641739  25.1931610
  36.1932487  21.0483360  24.8468971  37.5572548  20.4049072  26.4316864
  38.3348808  19.7908382  26.6274414  37.0167389  21.1490707  27.5981140
  35.9319115  21.0528336  27.5535011  37.5951881  20.6102123  28.9303513
  38.6726303  20.7277527  29.0460987  36.9978523  21.2223644  30.0939922
  35.9129066  21.1181259  30.1053429  37.4476280  20.8566437  31.0170574
  37.2043495  22.2922287  30.1230068  37.3585548  19.2423801  28.9605770
  38.1737442  18.8591919  28.6285629  37.2322464  22.6688461  27.4292679
  36.2892647  23.4848728  27.3377972  38.4531021  22.9644871  27.0138798
  39.1239090  22.2668934  26.7249413  38.7995644  24.3812466  26.7877789
  38.4921532  24.8361874  27.7293892  40.2941246  24.4855480  26.5755520
  40.7030678  23.8201046  27.3358498  40.4396439  24.0112705  25.6049919
  40.9295807  25.8820610  26.5393772  40.4605064  26.4667358  25.7480335
  40.7038765  26.4472847  27.4436378  42.4754944  25.6570148  26.4356594
  42.8897057  25.1633224  27.3147488  42.6460991  25.0389404  25.5541973
  43.1353073  27.0025597  26.3275661  42.9086571  27.7704582  27.0672016
  44.2133904  26.8855267  26.4377689  42.7691345  27.5788078  25.0143700
  42.6325111  26.8860493  24.2922058  41.9502525  28.1695824  25.0371056
  43.5244064  28.2220898  24.8250179  38.0093536  24.9750538  25.6019516
  37.4738922  26.0774918  25.7835808  37.9734306  24.2739620  24.4522514
  38.5357361  23.4362431  24.4059639  37.2064171  24.6205559  23.2822914
  37.4410934  25.6265202  22.9343491  37.5281754  23.6121674  22.1689663
  37.3661041  22.6158123  22.5801945  36.8046646  23.7418938  21.3640976
  38.9053001  23.7814827  21.4617882  38.8668442  24.6036968  20.7472363
  39.6503029  23.9307556  22.2433186  39.1932259  22.3693981  20.8523731
  38.5338936  21.3369560  20.8016033  40.4073563  22.2205544  20.3081608
  40.6661682  21.2810841  20.0426178  41.0242615  23.0177364  20.3716736
  35.6565056  24.5714149  23.4659443  34.8629723  25.1994209  22.7121124
  35.2165871  23.8895416  24.5289879  35.8687706  23.2791901  25.0003986
  33.8551750  23.9044437  25.0253448  33.1344681  23.8877888  24.2077827
  33.5553169  22.5872841  25.8397198  33.6214523  21.8309212  25.0576439
  34.3519478  22.4523640  26.5713482  32.2141380  22.6350842  26.5124817
  31.9778919  23.5915966  26.9787254  31.0487747  22.2946377  25.5777550
  30.1933041  22.4654903  26.2312698  30.9454556  23.0971298  24.8473892
  31.1411610  21.3213921  25.0957203  32.2068481  21.6049461  27.6458378
  32.3070602  20.6461048  27.1372242  33.1443939  21.8237915  28.1569290
  31.3774319  21.8166866  28.3206234  33.4444885  25.2490406  25.7777405
  32.4481773  25.8660107  25.4385452  34.4340858  25.6628685  26.6688728
  35.1822357  25.0005455  26.8161831  34.3798370  26.9317055  27.2933464
  33.4359665  26.9635887  27.8375816  35.4582253  27.0872154  28.3848591
  36.4539528  27.1065731  27.9418564  35.3886299  28.0688457  28.8535328
  35.3872261  26.0350266  29.5079956  35.6004143  25.0570107  29.0765610
  36.4187050  26.2318020  30.6094818  36.2866516  27.1071930  31.2453690
  36.4680328  25.3795261  31.2871933  37.4176521  26.3323917  30.1851139
  34.0554810  25.9496841  30.2943478  33.8894081  26.9498024  30.6947060
  33.2598343  25.5905209  29.6416225  34.1927376  25.2371712  31.1077251
  34.4121704  28.0782719  26.3657990  33.5305672  28.9407997  26.4773693
  35.2332954  28.1440964  25.3329735  35.8039665  27.3203201  25.2071171
  35.2885971  29.1996956  24.2944946  35.5345917  30.1645336  24.7379742
  36.4862251  28.9653320  23.3450336  37.3540649  28.9203930  24.0030117
  36.3712158  28.0855427  22.7119141  36.6232643  30.1621113  22.4173393
  35.8680153  30.2575798  21.6372223  36.6752167  31.1365528  22.9029980
  37.8970833  29.9972248  21.5590858  39.0097427  30.0578442  22.0641594
  37.7106247  29.7015343  20.3742428  33.9474907  29.3230991  23.5768414
  33.5323715  30.4728394  23.2799644  33.2660065  28.1678791  23.2251053
  33.7284088  27.2710667  23.2699318  31.8413887  28.2650528  22.7388763
  31.9288330  28.9874630  21.9273491  31.4408779  26.9302635  22.1244240
  32.2799950  26.6955872  21.4695148  31.3742390  26.0639610  22.7825871
  30.2241325  26.9536266  21.1501923  30.1691875  25.9177704  20.8153992
  29.2706299  27.1978054  21.6184978  30.4340153  27.7796783  19.8500309
  30.3806171  28.8039036  20.2190971  31.2747498  27.3528805  19.3031197
  29.1529427  27.6306114  19.0169334  28.9405613  26.5630531  19.0745220
  28.2987461  28.0097008  19.5779476  29.3139400  28.0918198  17.5912724
  30.2022190  27.7444592  17.2590065  28.4942646  27.7288132  17.1260109
  29.4107342  29.0968761  17.5668831  30.7748146  28.6151390  23.7864990
  29.9283028  29.4337482  23.4213181  30.6979485  27.9632797  24.9280891
  31.4116879  27.3159313  25.2307701  29.6376209  28.3237724  25.8960361
  28.7594032  27.9881458  25.3445015  29.7276974  27.4232597  27.2001114
  30.7039070  27.5420437  27.6702309  28.6224480  27.9135647  28.1179047
  27.7243977  27.9957294  27.5056496  28.3882523  27.2880116  28.9792595
  28.9566860  28.8519917  28.5603333  29.4907932  25.8848667  26.9684677
  28.4366264  25.7016964  26.7604218  30.0580559  25.4681683  26.1361980
  29.7925549  25.0085926  28.1347084  29.2765331  24.0568256  28.0083694
  30.8785248  24.9155521  28.1454563  29.3757133  25.4273262  29.0506859
  29.6417122  29.8283978  26.1847916  28.6007710  30.4940815  26.3309078
  30.8529434  30.3930073  26.3905334  31.5291176  29.6427612  26.3861599
  31.1429996  31.7599907  26.7505379  30.6113358  32.0236168  27.6648312
  32.6667023  31.9611568  27.0044460  33.2459526  31.5479279  26.1787281
  33.0861015  33.3899765  27.0656986  33.1200142  33.8191185  26.0643063
  32.3341064  33.9780579  27.5917835  34.0399628  33.5677032  27.5623417
  33.2242622  31.2992992  28.2871456  32.9154091  31.8044300  29.2023239
  32.8495674  30.2862968  28.4338722  34.7223320  31.2672310  28.2746296
  35.0821991  30.4916954  28.9507504  35.0335770  30.9329758  27.2849331
  35.0980949  32.2215500  28.6436539  30.6467361  32.6453934  25.5718422
  30.0070171  33.6239700  25.8650341  31.0846310  32.3865280  24.2852516
  31.7371540  31.6249676  24.1655102  30.6919193  33.3027802  23.1250896
  30.9448071  34.2757225  23.5464344  31.5346107  32.8956909  21.9672565
  32.5747185  33.0126076  22.2715683  31.3466187  31.8266106  21.8680878
  31.2679253  33.5339470  20.5922642  31.9047203  33.1101990  19.8157139
  30.2364502  33.2584381  20.3725910  31.3861847  35.0742302  20.5605030
  31.6130600  35.7151756  21.6372929  31.3331604  35.5899277  19.4186172
  29.1572437  33.3132668  22.8011703  28.5781422  34.3175354  22.4217415
  28.4948940  32.1273346  22.9277363  29.0395489  31.3027420  23.1362915
  27.0248260  31.9811916  22.8147507  26.6684761  32.4501610  21.8975906
  26.4971714  30.4989185  22.9398289  26.8067646  30.1516476  23.9255543
  25.4107571  30.4126377  22.9587708  27.0359802  29.6052055  21.8572044
  28.1225071  29.6699257  21.7991238  26.8483543  28.5504799  22.0583344
  26.2298126  29.7813244  20.5694008  25.0264835  30.2805824  20.5400524
  26.8186741  29.4225273  19.4681149  26.2510071  32.8390617  23.8786983
  25.2362194  33.4392662  23.6251640  26.8044510  32.8741913  25.0871925
  27.6288815  32.3203278  25.2706280  26.0318031  33.4184456  26.2440777
  24.9855194  33.5493851  25.9679470  25.9262867  32.3014679  27.3734665
  26.8853931  32.0508614  27.8266907  25.4829884  32.6832466  28.2931576
  25.1395054  31.0760746  26.9522610  23.9319649  30.9609699  27.0281372
  25.8325882  29.9915962  26.8102245  25.4057560  29.1338806  26.4904728
  26.8425426  30.0010052  26.8089123  26.4929142  34.8237152  26.7115955
  25.9935017  35.3744087  27.7573910  27.4271393  35.4345589  25.9600315
  27.6173668  34.8930092  25.1289883  28.3142605  36.5334511  26.2474728
  29.1625519  36.4822044  25.5649166  27.5717850  37.9200974  25.8247986
  26.8793068  38.1088791  26.6451263  28.2865086  38.7428093  25.8451519
  26.8299465  37.9146843  24.4721146  27.4794388  37.5519638  23.3099766
  28.4153366  37.1754189  23.2608852  26.5755310  37.8479614  22.3052769
  26.6779156  37.6609306  21.2465343  25.4602833  38.3338356  22.8275166
  24.5836716  38.5641327  22.3818531  25.5926018  38.3661919  24.1800289
  24.8410091  38.6802559  24.8891602  28.8997803  36.5865250  27.6459217
  28.8969097  37.7280350  28.2605858  29.4567108  35.5215225  28.1898346
  29.5226879  34.7146492  27.5859280  29.8060093  35.4051590  29.6020298
  29.0036659  35.7699318  30.2433472  30.0085659  33.8787231  29.8376408
  30.9669056  33.6047554  29.3964710  30.1473999  33.5378036  31.3189392
  29.2135735  33.8073235  31.8123188  30.2835960  32.4729347  31.5076351
  31.0369282  34.0607185  31.6702137  29.0160618  33.0229301  29.3150883
  28.1852150  33.3068924  29.7032394  31.1409664  36.0535469  29.8947296
  32.1466408  35.8596954  29.2295418  31.1947746  36.9032288  30.9208622
  30.3463287  37.1677246  31.4007339  32.4615707  37.2291412  31.6301537
  33.2536850  36.9325829  30.9426174  32.5301476  38.8076401  31.8209019
  32.4435997  39.3039513  30.8543186  31.6865902  39.2487946  32.3518372
  33.7512016  39.2897682  32.6068344  33.7408752  38.6704559  33.5037460
  34.6689758  39.1100006  32.0469437  33.7524033  40.7669525  32.9439545
  32.9291496  41.1587563  33.5413170  34.5917206  41.0208244  33.5914078
  33.9656219  41.6007004  31.6501236  34.9545517  41.4013329  31.2373581
  33.3076286  41.3053131  30.8328781  33.8167839  43.0273743  31.7489605
  32.8204994  43.1362915  31.6238480  34.1285477  43.4162140  32.6274300
  34.2600288  43.5902443  31.0370541  32.5852127  36.4650688  32.9300499
  31.5809250  36.2206306  33.5976486  33.7461853  35.9319687  33.2630424
  35.0036163  36.0363693  32.4673843  35.1084061  37.0409431  32.0575638
  35.1029739  35.2247620  31.7466068  36.0642548  35.8789558  33.5160789
  36.4027596  36.8353310  33.9146500  36.9075661  35.4569778  32.9693985
  35.4218597  34.9296608  34.5160599  35.8665810  35.0902405  35.4981689
  35.6377831  33.9100990  34.1967201  33.9282265  35.1086006  34.5143318
  33.5397072  34.1164703  34.2844887  33.4750824  35.6833191  35.8476219
  33.0877304  34.9327888  36.7685089  33.5086746  37.0120010  36.0114746
  33.9724388  37.5436554  35.2887306  33.0374527  37.7664337  37.1265144
  33.5906410  37.4640007  38.0156822  33.3248329  39.2611771  36.9755554
  32.8127670  39.5773659  36.0667610  32.8173294  39.9173508  37.6826439
  34.8666840  39.7090302  37.0384216  35.3393440  39.1524200  37.8476677
  35.2635078  39.4534340  36.0559235  35.0330200  41.2197952  37.3154106
  34.8691864  41.6806564  38.5032692  35.3308296  41.9450417  36.3440018
  31.5397739  37.4862099  37.3308868  31.0141983  37.4744873  38.4328842
  30.7776031  37.1942139  36.2849007  31.1644135  37.1980019  35.3519135
  29.3673439  36.7798080  36.3234444  28.7771435  37.4916039  36.9006004
  28.7404861  36.7999687  34.9473038  29.2225342  36.0372696  34.3357315
  27.6739063  36.5768166  34.9740715  28.8342991  38.0722122  34.2275772
  28.9823132  39.1976547  34.7870712  28.8798923  38.0499611  32.9918175
  29.1662045  35.4229965  36.9415283  27.9937115  35.1204262  37.2629547
  30.1335907  34.5329514  36.9936714  31.1046982  34.7953033  36.9030037
  29.9441662  33.1245651  37.2597275  28.8906097  32.9521790  37.0397263
  30.8965645  32.2342300  36.3873520  31.9434929  32.3389244  36.6720924
  30.5474892  30.8020782  36.6425781  29.5166836  30.5898857  36.3588371
  31.1663437  30.0936985  36.0918350  30.6002350  30.5452023  37.7005653
  30.9006157  32.6967850  34.8644257  31.4171715  33.6560135  34.8303185
  31.2905750  31.8302689  34.3303986  29.8812351  32.8349152  34.5040321
  30.2131996  32.8893585  38.7564545  31.3307343  32.8931808  39.1733055
  29.1271362  32.6036530  39.4423523  28.2506790  32.5853806  38.9407578
  29.0810890  32.1154633  40.8165741  29.4420338  32.9893188  41.3589706
  27.7383423  31.6263008  41.3642044  27.4289379  30.7338276  40.8202744
  27.8498573  31.2980766  42.8738670  28.1383705  32.2356949  43.3489761
  26.8768826  30.9274158  43.1964035  28.6216412  30.5496178  43.0534897
  26.6550522  32.7128258  41.2584305  26.5868568  33.1164055  40.2481956
  25.7244701  32.2389488  41.5707703  26.8311901  33.6863022  41.7160606
  30.0240593  30.9038544  41.0314407  30.8178539  30.8821411  41.9915695
  29.7936783  29.9039345  40.2685013  29.2449417  30.0532837  39.4338226
  30.4934940  28.6320953  40.3772888  31.5690613  28.7770882  40.4784584
  30.1375084  27.8878174  41.7055054  30.5960007  26.9057178  41.5898857
  30.6481361  28.4200916  42.5080376  28.6521320  27.7676067  42.0566444
  28.6015987  27.6157570  43.1348343  28.1220512  28.6695919  41.7508087
  27.9244709  26.6417389  41.2831268  28.4284916  25.5986195  40.9744110
  26.7121639  26.9015369  40.8365822  26.3728027  26.2613411  40.1329575
  26.3615208  27.8446445  40.7488632  30.1945286  27.8104477  39.0969162
  29.2243252  28.0590000  38.3632927  31.0339127  26.7218704  38.9409218
  31.8691406  26.6768894  39.5070190  31.0495625  25.6546345  37.9633904
  30.1219254  25.7334080  37.3964806  32.2087975  25.9395428  36.9334869
  32.0933762  26.9245453  36.4812164  33.1172142  25.8877373  37.5336533
  32.3120232  24.8532391  35.8366432  32.5204391  23.8768902  36.2741432
  31.3574352  24.7809238  35.3154602  33.5719795  25.1000309  34.5788994
  33.0895004  26.6679478  33.8771515  33.5685081  26.7812710  32.9046249
  32.0291939  26.6025486  33.6330605  33.4009666  27.5312672  34.4651718
  31.1720085  24.3304939  38.6232262  32.0453529  24.0749588  39.4321632
  30.3708763  23.3866425  38.1959152  29.7096863  23.6001129  37.4628677
  30.7121258  21.9677696  38.3681145  31.5217857  21.7483959  39.0641212
  29.3797359  21.2023964  38.6920090  28.6634121  21.3447151  37.8828583
  29.5869942  20.1542969  38.9079857  28.8432503  21.6625366  40.0458336
  28.5832767  22.7192631  39.9838409  27.5497742  20.9062634  40.3765335
  27.1563511  21.3071003  41.3106956  26.7141266  21.0470333  39.6909828
  27.7482777  19.8420811  40.5038605  29.8045254  21.5455666  41.1610641
  30.6901951  22.1340504  40.9215431  29.3477936  21.9868984  42.0469093
  30.1481361  20.5151691  41.2522583  31.2730141  21.3428288  37.0175552
  30.8155003  21.7579060  35.9557228  32.0665550  20.2679005  37.0760117
  32.2664070  20.0097370  38.0317917  32.5895042  19.4682980  35.9510422
  31.9939766  19.8548908  35.1240005  34.0846786  19.8875256  35.6760674
  34.6076355  20.0227146  36.6228180  34.7054253  19.1131516  35.2253838
  34.2594376  21.0931816  34.7551384  33.4574127  21.7767506  35.0336914
  35.5838089  21.8357964  34.9138756  36.4509583  21.2124958  34.6955910
  35.5446281  22.7319870  34.2946777  35.7256393  22.0197964  35.9788284
  34.1391945  20.7217712  33.2784500  34.9454651  20.0185146  33.0699921
  33.1958923  20.2299290  33.0410194  34.3057861  21.5008793  32.5345802
  32.4582329  17.9690838  36.2962799  32.8158379  17.7034149  37.3933411
  32.1835670  17.1611309  35.2837181  31.9376030  17.6026783  34.4092827
  32.0962219  15.6841345  35.3538399  32.7485695  15.2887659  36.1324463
  30.6336403  15.1669359  35.5920181  30.6069088  14.0877552  35.7428627
  30.3053055  15.6100101  36.5322227  29.6237717  15.6809130  34.7136841
  28.7959499  15.2415857  34.9217758  32.6120300  15.1403370  33.9726334
  32.6464577  15.7971964  32.9631081  33.0916367  13.9524136  33.9855042
  33.2788010  13.5724564  34.9024010  33.5758743  13.1412621  32.7735252
  33.1111794  13.4790707  31.8472176  35.0697899  13.3917723  32.6112633
  35.1586456  14.4758987  32.6810837  35.6309509  12.8516359  33.3737907
  35.4048958  12.9939966  31.6533566  33.2187576  11.6648417  33.0950546
  33.2219696  11.1799612  34.2550392  32.9031410  10.8963194  32.0795059
  33.0682106  11.2083683  31.1332073  32.4566727   9.4910879  32.1950455
  31.7187729   9.5273705  32.9964714  31.9388390   8.9047117  30.8528309
  31.8470840   7.8210201  30.9255924  30.5216618   9.4834270  30.5097218
  30.0638638   9.1220331  29.5888977  29.8313599   9.0996866  31.2609386
  30.5505428  10.5712976  30.4479809  32.9145088   9.2529879  29.9097481
  33.5473404   8.5407705  29.7919693  33.5659142   8.6588097  32.7617760
  34.7208977   9.0195856  32.5805435  33.2802391   7.6208253  33.5227623
  31.9598598   7.1828308  33.9904861  31.3040104   7.1281500  33.1215973
  31.4750614   7.8079429  34.7403603  32.2190247   5.7443438  34.5907936
  32.2905350   5.0128489  33.7858696  31.4499283   5.5346303  35.3341827
  33.5676575   5.9792352  35.2829247  34.1334534   5.0877075  35.5533943
  33.2322121   6.5421596  36.1539536  34.2947922   6.8831182  34.3532181
  34.7272415   7.6169801  35.0333214  35.3798523   6.1874652  33.4491882
  36.2700005   5.5358982  33.9872131  35.1609192   6.0829148  32.1264267
  34.5685997   6.8139772  31.7592564  36.0280533   5.4883590  31.0922985
  36.4941750   4.6718912  31.6438503  35.2900772   4.9123421  29.7697277
  36.0643463   4.5955815  29.0709629  34.6798897   4.1053910  30.1754360
  34.4449234   5.9163074  29.0461998  33.9924164   5.6139269  27.9479427
  34.3316727   7.0765014  29.4867229  37.1354141   6.5144386  30.7342091
  38.1083336   6.1350017  30.0405483  37.1463089   7.6939397  31.3523769
  36.3202782   7.9420729  31.8779297  38.3159637   8.5935249  31.3806133
  39.0260315   8.2734013  30.6181030  37.8339005   9.9448309  31.0036678
  37.0824890  10.3402233  31.6871490  38.6680908  10.6458988  31.0306244
  37.2525711  10.0776730  29.5535698  36.5047455   9.2862387  29.5036354
  36.5407143  11.4244108  29.4928703  36.4703789  11.7274809  28.4482117
  35.5284843  11.3063116  29.8795795  37.1129112  12.1967297  30.0068874
  38.1627769   9.9298630  28.3320274  38.5991554   8.9313459  28.3067589
  37.6684303  10.1676121  27.3901138  38.9393120  10.6563673  28.5713692
  38.9578819   8.6808777  32.7349625  38.2251930   8.8031216  33.7428894
  40.3011360   8.6697922  32.8159065  40.8196487   8.7287598  31.9511719
  41.0157890   8.6299267  34.1265030  40.3828506   8.9304581  34.9614716
  41.3270073   7.1551795  34.5229378  40.4023933   6.5997553  34.3658104
  42.1498108   6.8000412  33.9024734  41.4616737   6.8337903  35.9378052
  40.5204086   6.9469624  36.9476089  39.5450821   7.1651096  36.8018341
  41.1364136   6.6793289  38.1611519  40.7210655   6.8060007  39.1500130
  42.4013481   6.1681075  37.8968620  43.1057587   5.9694772  38.5928879
  42.6085205   6.3738890  36.5019302  43.5282555   6.2786736  35.9438782
  42.3210068   9.4488497  34.1838150  43.0120506   9.4352942  35.2078972
  42.6772232  10.0823936  33.0634346  42.0101624   9.9621468  32.3146515
  44.0205803  10.6210175  32.7982788  44.8002167   9.9262772  33.1106987
  44.2505951  10.6137838  31.2371025  44.6168213   9.6621799  30.8518448
  43.3693962  10.8341589  30.6345882  45.0758514  11.2824001  30.9921322
  44.2690735  11.9981613  33.6115799  45.4086304  12.2986078  33.8868103
  43.2069969  12.8437815  33.8607674  42.3026543  12.5723763  33.5021553
  43.3308487  14.2338467  34.3502617  44.0974388  14.1980982  35.1243210
  43.8086853  15.0982704  33.2022057  44.5930099  14.5325642  32.6993027
  42.7959595  15.4609671  32.0752602  42.2409248  14.5956707  31.7129269
  42.2028122  16.3185921  32.3926811  43.4124985  15.8861036  31.2832756
  44.3985023  16.3535748  33.7170219  45.3102303  16.2170238  34.2985878
  44.7732811  16.9454746  32.8819809  43.6570091  17.0119457  34.1696129
  41.9541054  14.7162275  34.8317795  40.9403877  14.3813677  34.2033730
  42.0170479  15.6106892  35.8171158  42.9511375  15.7517748  36.1744308
  40.8349991  16.4740658  36.1646347  39.9853325  15.7914276  36.1776657
  41.0020676  17.2085304  37.5864258  42.0183182  17.5990620  37.6394958
  40.3128014  18.0475903  37.6812515  40.9809608  16.2622490  38.7854347
  39.7455750  15.7755489  39.1894302  38.8539467  16.0931187  38.6692886
  39.6172638  14.8907614  40.2633896  38.6205406  14.5302191  40.4706421
  40.7514381  14.4201174  40.9226685  40.6283264  13.6756458  41.6953278
  42.0278206  14.9374828  40.5345345  42.9056664  14.6409245  41.0893707
  42.1272774  15.9107122  39.5128670  43.1162300  16.1299152  39.1382790
  40.5655632  17.5889130  35.1349945  41.5156784  18.2972298  34.8628693
  39.3642998  17.7526398  34.5519524  38.1693878  17.1008263  34.8161278
  37.6538696  17.6177597  35.6255264  38.3887558  16.0586185  35.0480347
  37.4570007  16.9234638  33.4873505  36.3767776  16.9711876  33.6249733
  37.7590332  16.0163155  32.9639435  37.8034439  18.2432079  32.7791252
  36.9855347  18.9375801  32.9714012  38.0248871  18.1780052  31.7138481
  39.1083717  18.6244717  33.4522858  39.9508400  18.4147053  32.7932358
  39.2719917  20.1681366  33.8969231  39.6385803  20.9814892  33.0483589
  39.1214180  20.4614468  35.2064362  38.8799553  19.6901627  35.8121719
  39.2024803  21.8960190  35.7035713  38.4004402  22.5652237  35.3921204
  38.8973160  21.8102856  37.2098999  39.2135658  22.7215405  37.7175484
  37.8729019  21.5862637  37.5073814  39.4013634  20.9043560  37.5465355
  40.5576439  22.6376972  35.5448265  40.6034431  23.8842049  35.6087570
  41.6326218  21.9064064  35.3130951  41.5384560  20.9100723  35.4493256
  42.8761787  22.4415932  34.7331963  43.2546501  23.1834259  35.4364395
  44.0095367  21.4065075  34.6255417  43.6122322  20.5707874  34.0495033
  44.8336182  21.9608498  34.1764412  44.4338570  20.7507172  35.9866943
  44.6324425  21.6591206  36.5554390  43.5971298  20.1976166  36.4133797
  45.7387962  19.9699230  35.9838943  45.6189957  19.1361103  35.2921562
  46.5074577  20.5888920  35.5211411  46.2362289  19.6148643  37.3961716
  47.1367607  19.0119572  37.2793579  46.5487442  20.4964409  37.9558678
  45.2168503  18.8287277  38.1402588  45.5903893  18.2956429  38.9125214
  44.3815231  19.3138905  38.4351311  44.9750862  18.0733566  37.5149078
  42.7108879  23.2312012  33.3985901  43.6306686  24.0099907  33.0966454
  41.6175880  23.0375862  32.6442146  41.0612335  22.2211838  32.8540993
  41.1503143  23.8375473  31.4342804  41.9554214  24.1420822  30.7655773
  40.1101761  23.0235119  30.7446308  40.4387321  22.0145950  30.4951439
  39.2558022  22.9437256  31.4167767  39.7899208  23.5879593  29.8688831
  40.5730667  25.2302399  31.9011784  40.6045952  26.1799259  31.1930389
  39.8863945  25.3181667  33.0320511  39.7160606  24.4535179  33.5254822
  39.1710663  26.5015850  33.5290146  38.4841385  26.7210522  32.7116623
  38.2762833  26.3230228  34.7869492  38.8545265  26.0378189  35.6658096
  37.4670486  27.5992203  34.9884567  36.8371124  27.4278641  35.8613396
  38.2144241  28.3507442  35.2428932  36.8022614  27.7489452  34.1377220
  37.2687263  25.2013798  34.4956436  36.6922760  24.9481030  35.3853989
  36.5700417  25.5847149  33.7520065  37.7466469  24.2520275  34.2539330
  40.1895523  27.6448708  33.7441483  40.1867714  28.6808071  32.9928932
  41.0935249  27.4696579  34.7111549  40.7713356  26.8319530  35.4250412
  42.3203735  28.2676430  34.8847389  42.0386276  29.2965527  34.6609993
  42.8425674  27.9511395  36.3304520  43.6768723  28.6242714  36.5277634
  42.0083733  28.1206169  37.0112534  43.4566841  26.5510349  36.4431839
  42.6914825  25.7863426  36.3097229  44.2341156  26.4022045  35.6938210
  44.0045090  26.5353260  37.8643227  44.8552589  27.2125111  37.9400902
  43.2504921  26.8134880  38.6006546  44.4284554  25.2206936  38.2709808
  45.3716850  25.1867428  38.6305237  43.7014503  24.1362553  38.3830910
  42.3927231  24.1248016  38.1147919  41.8727493  23.2601223  38.0694046
  41.7757034  24.9128208  37.9790955  44.1538620  22.9944038  38.8540916
  43.5207825  22.2112026  38.7772522  45.1318512  22.9463921  39.1017532
  43.4035339  28.1679859  33.7649193  44.5571938  28.6748009  33.9072075
  43.0430984  27.5971184  32.6122894  42.1240005  27.2088375  32.4554672
  43.8679733  27.8921146  31.4795322  44.9226952  28.0982304  31.6616993
  43.7536926  26.6499290  30.5821915  43.8733139  25.7437725  31.1760540
  42.7187080  26.6644115  30.2405891  44.7784767  26.7653446  29.4253540
  44.6336136  25.9134636  28.7609653  44.5917091  27.6676540  28.8430653
  46.2400284  26.6068287  29.7668056  47.0910721  27.0109615  28.9002609
  46.5236931  26.2545776  30.9836369  43.4446220  29.2596550  30.8959637
  44.2548485  29.9499454  30.3269958  42.2071915  29.7227116  31.1135349
  41.5028343  29.2694969  31.6779633  41.7450943  31.0119858  30.5407600
  42.3249245  31.2522678  29.6496029  40.2524185  30.8763580  30.1439495
  39.6487350  30.7749825  31.0458298  39.9920387  31.8156834  29.6561298
  39.9320030  29.6872921  29.3033504  40.2978096  28.7535343  29.7304134
  38.4027328  29.5310097  29.0658531  37.9424095  30.3614731  28.5305614
  38.3115082  28.5969143  28.5115566  37.8856239  29.3443565  30.0070534
  40.5041885  29.8351212  27.8874779  41.5801086  29.6858807  27.7967987
  40.0811768  28.9782772  27.3630886  40.3002548  30.8714600  27.6181965
  41.9209137  32.1260223  31.5488224  41.9522285  31.8480854  32.7757187
  42.1196404  33.3467216  31.0527821  41.9824562  33.5549622  30.0740452
  42.3545227  34.4873543  31.8933220  43.0520897  34.2092781  32.6833725
  43.0617142  35.5162582  31.0521278  43.9111710  35.0575027  30.5461006
  42.4241638  35.9052963  30.2582188  43.4996719  36.5537338  31.8207741
  43.9774361  37.1611214  31.2511959  41.0970306  35.1076126  32.5107193
  40.0690079  35.1149406  31.8030052  41.1745071  35.6357689  33.7295456
  42.0250244  35.5671616  34.2699280  39.9887581  36.0351181  34.5412369
  40.2651367  36.7368355  35.3281975  39.3439331  36.5258217  33.8121910
  39.2799606  34.8437271  35.1593170  38.6182289  34.9612274  36.2021179
  39.3969231  33.6311607  34.5690308  39.8829803  33.6317062  33.6836739
  38.6431351  32.4164581  34.9498100  37.6157417  32.6319122  35.2433090
  38.5344734  31.4509373  33.7612991  39.4622688  31.4867573  33.1903229
  38.2482910  30.4644585  34.1260719  37.4593086  31.9443245  32.8355827
  37.5705452  32.8717613  31.7652645  38.4471855  33.4699631  31.5651245
  36.3242035  33.1009140  31.2622128  36.1830750  33.7970428  30.5441685
  35.3903503  32.2962570  31.8854752  33.9918251  32.2365532  31.7193108
  33.5742798  32.9068718  30.9826126  33.1880302  31.3444195  32.4539795
  32.1683617  31.1702709  32.1435814  33.8288536  30.4835567  33.4148560
  33.3147812  29.7055607  33.9596977  35.2064362  30.7041759  33.6736031
  35.5477257  30.1022873  34.5028534  36.0426064  31.5716515  32.8778076
  39.2335320  31.8531742  36.2446899  38.5339203  31.1589279  36.9823265
  40.5152092  32.1300850  36.5943336  41.1599236  32.6299515  35.9988708
  41.1765213  31.5413513  37.8208237  41.1750832  30.4650898  37.6483269
  42.6500587  31.9574604  37.9415665  42.9050713  31.3704128  38.8238602
  43.1527863  31.5206490  37.0786858  43.0462646  33.3844757  38.1935577
  42.3822403  33.8750916  38.9052200  44.0675392  33.3379898  38.5716438
  43.2420273  34.2380753  36.8793182  42.4992409  34.1195297  35.9079895
  44.2240791  35.0993500  36.7826614  44.3771591  35.5869446  35.9115028
  44.7897263  35.2542114  37.6049538  40.3656807  31.9168911  39.1051750
  40.2643547  31.0984516  40.0621872  39.8092499  33.1350517  39.1200867
  40.0292778  33.7521935  38.3514366  39.0187721  33.5718918  40.2078171
  39.5840111  33.2887001  41.0957413  39.0068588  35.1348610  40.1240120
  38.3212929  35.4862976  39.3529167  38.5440750  35.5041351  41.0392075
  40.3024368  35.9106789  39.8896179  41.2421913  36.0216370  40.9720764
  41.0654144  35.5845375  41.9437218  42.5438232  36.5200768  40.7075310
  43.2358398  36.3831863  41.5253220  42.8400459  37.0671234  39.4356117
  44.0215912  37.6335106  39.1573715  43.9496307  38.2343521  38.4121132
  41.7470741  37.1845093  38.4715157  41.9026260  37.7202721  37.5467644
  40.5610008  36.4996338  38.6840210  39.7091103  36.5780144  38.0248222
  37.6260757  32.8876534  40.3990555  36.9852638  32.9879570  41.4547005
  37.1889305  32.0624008  39.4451523  37.7464561  31.9311275  38.6132660
  35.8496857  31.2810230  39.3986664  35.1721725  31.9796581  39.8895721
  35.3682480  30.9645672  37.9403458  35.9095802  30.2587948  37.3103065
  33.9527092  30.4154968  38.0426941  34.0095673  29.4036446  38.4439735
  33.4066620  31.0620937  38.7296028  33.5064392  30.3026009  37.0546646
  35.2683830  32.3071899  37.1293907  36.3273010  32.5358887  37.0090103
  34.7641792  32.2374878  36.1655312  34.7936668  33.0736122  37.7420387
  35.9477730  29.9091892  40.0964012  36.8064461  29.0379200  39.7118263
  35.1013489  29.6348953  41.1379585  34.2157860  30.5741863  41.7868996
  33.2409096  30.3854179  41.3373566  34.5542793  31.6003876  41.6439514
  34.0664825  30.0822716  43.2299461  33.1601906  30.4608650  43.7026024
  34.9331093  30.4150028  43.8012161  34.1068420  28.5743694  43.0609093
  33.1244392  28.2559166  42.7122421  34.3814735  28.0619526  43.9829216
  35.0895081  28.3838577  41.8763733  36.1473885  28.2991486  42.1250076
  34.7150764  27.1517410  40.9283676  33.7925644  27.2417145  40.1225128
  35.3885384  25.9786835  41.1776619  36.2956505  26.0704727  41.6122055
  34.9995384  24.7257767  40.5793533  33.9483871  24.6842842  40.2939453
  35.6710815  24.6351147  39.2272568  35.3969498  25.5008717  38.6244087
  37.2202911  24.5255756  39.1625938  37.6212463  24.7413769  38.1722565
  37.6741982  25.2402267  39.8491402  37.4798164  23.5377064  39.5432053
  35.1522446  23.4317036  38.4243584  35.5229149  23.7197571  37.4406281
  35.6023636  22.5130920  38.8007202  34.0761337  23.3992920  38.5947685
  35.1968918  23.5406113  41.5215340  36.0306587  23.6546040  42.4372025
  34.5131302  22.4380798  41.2872581  33.8110390  22.6530285  40.5937424
  34.7492104  21.1308670  41.8220024  35.7699547  20.9601669  42.1641235
  33.9048347  20.7358189  43.1047821  34.0958939  19.6726952  43.2509499
  34.2032661  21.4969177  44.3466721  33.6926880  20.9895020  45.1651688
  35.2851334  21.6249199  44.3824692  33.8413353  22.4946651  44.0984840
  32.4956207  20.7865829  42.9611511  32.1851921  20.2901878  42.2003441
  34.3643723  20.0184917  40.8640671  33.3497696  20.0636578  40.1405754
  35.1881065  19.0131626  40.6281090  35.9791451  18.9777794  41.2550926
  34.9524231  17.9010029  39.8204727  34.2208748  18.1599045  39.0550194
  36.2793388  17.3945885  39.1195679  36.8795319  16.8282948  39.8317337
  35.9087410  16.6047115  38.4662285  37.2608795  18.6151085  38.1056747
  37.7782593  19.1301651  39.2245712  34.2783813  16.7581215  40.5971222
  34.8511276  16.0459137  41.4091148  33.0418701  16.5197468  40.1602745
  32.6582413  17.1267319  39.4499931  32.1387711  15.4259624  40.6488838
  32.3405457  15.2647152  41.7078362  30.6825733  15.9450159  40.6171417
  29.9938850  15.2055120  41.0257301  30.6681309  16.9075966  41.1283455
  30.1760426  16.2352772  39.1927795  31.0389462  16.5740452  38.6194267
  29.7505856  15.3361282  38.7471008  28.8351440  17.4486732  39.2116623
  27.7512989  17.0432320  37.8640022  26.8520260  17.6589413  37.8816414
  28.2634544  17.3235664  36.9435616  27.6050148  15.9637318  37.8268356
  32.1714554  14.1126347  39.9987679  32.3952522  14.0555935  38.7693253
  31.9690590  13.0357542  40.7452545  31.9589100  13.1720486  41.7459641
  31.9039497  11.6877184  40.0990715  32.8459244  11.7503681  39.5542183
  31.9787483  10.6132698  41.1615829  32.8558578  10.8158245  41.7761993
  31.0889721  10.6016598  41.7910767  32.0968437   9.1234818  40.5194473
  31.9935951   8.4036293  41.3313942  31.3943520   9.1001253  39.6863480
  33.4563980   8.9101667  39.9831276  34.3709450   9.5460024  40.4015770
  33.6404915   8.1125307  38.9711342  32.8745041   7.5589218  38.6149368
  34.3470001   8.4079847  38.3126106  30.6963806  11.5840435  39.1450882
  29.6432972  11.9896679  39.5709190  30.9198074  11.1107378  37.8747826
  31.8682766  10.8785810  37.6166954  29.7524891  10.9402876  36.9002533
  29.0473480  11.7713470  36.9151688  30.3893051  10.9717426  35.5415955
  30.9030819  11.9300594  35.4656715  31.1975555  10.2441835  35.6157227
  29.4008007  10.6904964  34.4190063  30.0089016  10.7432804  33.5159416
  29.0909805   9.6491861  34.5072784  28.1215420  11.5005169  34.2638092
  28.0834122  12.2403660  33.1981125  27.1609955  11.5578585  35.0373993
  28.9879684   9.7207365  37.2899284  29.6564274   8.7036314  37.5828781
  27.7194462   9.6917706  37.1324615  27.2146873  10.5019903  36.8025169
  26.9618473   8.4541168  37.3185043  27.3305550   7.9151821  38.1912613
  25.5590553   8.8217564  37.6004066  25.5388012   9.2280474  38.6116524
  25.1800823   9.5507193  36.8841019  24.6067886   7.6693196  37.7291336
  24.8461437   7.0229440  36.8847389  24.6828079   7.1062059  38.6593170
  22.8973122   8.2973404  37.6462975  22.1459904   6.7045069  37.4253197
  22.3919468   6.2605104  36.4607086  22.6529427   6.0632792  38.1463776
  21.0700264   6.7288680  37.5979729  27.0783634   7.6620102  36.0088806
  26.7383060   8.2222309  34.9470253  27.6438198   6.4338460  36.0617561
  28.0593987   6.1207390  36.9274101  27.4670620   5.5062251  34.9425011
  27.7532253   6.0738468  34.0570564  28.3865490   4.3159781  35.0515709
  29.3778038   4.7275677  35.2415962  28.0880127   3.7473676  35.9322853
  28.4445305   3.2988815  33.8239403  28.3403759   3.7382829  32.6513062
  28.6136112   2.0503275  34.0489388  26.0263042   4.9730682  34.7904739
  25.4352322   4.7252030  35.8871384  25.5686302   4.7959604  33.5287132
  26.2477341   4.8022542  32.7811241  24.2439194   4.6344786  33.2583313
  23.8405514   3.8649781  33.9165611  23.4122467   5.9321117  33.4335670
  23.6343956   6.4107504  34.3873253  23.6777210   7.0522556  32.2680550
  24.7544575   6.9887290  32.1108704  23.1975670   6.8337650  31.3142128
  23.3832550   8.0304756  32.6481552  21.9718075   5.5601592  33.6143494
  22.0028057   4.8576880  34.4472237  21.3939342   6.4484344  33.8695602
  21.4796753   5.0174761  32.8072586  24.0714054   4.1527181  31.7859306
  24.7309227   4.6593499  30.8387547  23.1840591   3.1992121  31.5684261
  22.5674763   2.9026713  32.3113861  22.8089409   2.7370608  30.2094021
  23.7086601   2.6794937  29.5967941  22.0449142   1.3806504  30.2290058
  21.4827995   1.2699900  29.3017025  22.9505310   0.2108297  30.4742603
  23.3999882   0.3588255  31.4561939  22.5292130  -0.7938960  30.4408207
  23.6567173   0.3254460  29.6519070  21.1326084   1.3874327  31.3204727
  20.7003231   2.2381933  31.2158966  21.9577084   3.8170395  29.5490227
  20.8466911   4.1930108  30.0205441  22.5948982   4.3700619  28.5106869
  23.5552025   4.0818701  28.3887844  22.1272316   5.3751488  27.5687733
  21.8264008   4.8466530  26.6641769  21.1769085   5.7971973  27.8956718
  23.1221085   6.5383682  27.2953720  22.8887043   7.2628245  26.3214359
  24.2360554   6.5977926  28.0610695  24.4095840   5.9025640  28.7728615
  25.2943611   7.5806518  27.7759666  24.8494225   8.5748701  27.8167286
  25.9698257   7.4889193  28.6265163  26.1399364   7.2905836  26.5721836
  25.9356956   6.2728577  25.9193478  27.0418282   8.1888247  26.2049026
  27.0796452   9.0730524  26.6915340  28.1165390   8.0353441  25.2593937
  27.8460217   7.2397938  24.5651169  28.3199730   9.3613987  24.4917374
  28.6768227  10.0315590  25.2738132  29.1160622   9.3218098  23.7482414
  26.9945850   9.9272795  23.9317799  26.2233963   9.9585533  24.7014542
  27.3022442  11.3150434  23.5098991  28.1344528  11.2910585  22.8063679
  26.4842567  11.8037720  22.9806156  27.5976009  11.8831377  24.3920193
  26.3232727   9.2706032  22.7289906  26.1796551   8.2048321  22.9067764
  25.3873711   9.7268124  22.4064045  27.0257759   9.3337498  21.8979645
  29.4058075   7.5032969  25.8801270  29.6184940   7.6559696  27.0597019
  30.3889999   7.0430489  25.0632572  30.1535072   6.9542193  24.0851173
  31.7855415   6.6419048  25.5175858  31.7596989   6.2406135  26.5307007
  32.3516808   5.5642223  24.6391678  32.2486382   5.8886375  23.6036777
  33.4058189   5.4731989  24.9010925  31.5428677   4.2165213  24.9037533
  31.4880676   4.0179515  25.9741116  30.4896317   4.3548012  24.6594734
  32.1560745   3.0806224  23.9982719  32.0151138   3.4146407  22.9703312
  33.2188339   3.0727577  24.2403240  31.5431767   1.7439801  24.3333416
  31.4990616   1.6091238  25.4140701  30.4894543   1.8364766  24.0702477
  32.2327080   0.6556619  23.7097759  32.2248993   0.7892212  22.7086716
  33.1913567   0.5910752  24.0210953  31.7288361  -0.2031678  23.8789616
  32.6495438   7.8989649  25.5595436  32.4550705   8.7692728  24.7707062
  33.6277847   7.9281955  26.4888306  33.6722450   7.2259340  27.2133656
  34.6310501   9.0540915  26.5964108  34.9198227   8.8552427  27.6284828
  35.7475090   8.7994576  25.5573254  35.4483681   8.9097137  24.5149918
  36.4584846   9.6256227  25.5651989  36.4764442   7.4530993  25.6967297
  36.8791924   7.1953454  26.6762486  35.6894646   6.7195921  25.5214176
  37.5867386   7.2983909  24.6640377  37.2371063   7.5603323  23.6654148
  38.4203568   7.9187341  24.9932041  38.2368736   5.9318776  24.5123520
  38.9868279   6.0500989  23.7302418  38.6903496   5.7134542  25.4791775
  37.2901611   4.9201336  24.1655846  36.6623878   4.8524446  24.9538879
  36.7172089   5.1441379  23.3645535  37.7287178   4.0190778  24.0396194
  33.9566803  10.4675570  26.5624046  34.2269249  11.2226248  25.6264992
  32.9552841  10.7552834  27.3743172  32.7830925  10.1196404  28.1400890
  32.1379242  11.9640207  27.3485317  32.3126984  12.4579458  26.3927116
  30.6699257  11.5308800  27.3663750  30.3604565  10.7328320  26.6915054
  30.4699020  11.1086864  28.3511829  29.5680656  12.9058657  26.8987389
  30.3816662  13.7038088  27.5960445  32.5273743  12.9992647  28.5603085
  33.0314598  12.4739046  29.5724087  32.3906288  14.3427677  28.4717216
  32.0497093  14.6328821  27.5663433  32.6873589  15.3198147  29.4264660
  32.8627205  14.8582344  30.3982162  33.9464340  16.1261635  29.1376839
  33.6153374  16.6315708  28.2304707  34.2436676  17.2306023  30.1654434
  35.2237587  17.6487179  29.9358616  33.4264984  17.9501152  30.1140995
  34.4146805  16.9030323  31.1908951  35.2124748  15.1585884  28.9531517
  35.6462936  14.9849634  29.9379139  34.9425774  14.2263384  28.4570026
  36.3009796  15.7190733  28.0424442  37.1347923  15.0311499  28.1825523
  35.8266029  15.6801176  27.0618591  36.6531754  16.6846542  28.4053669
  31.4078808  16.1779861  29.6190128  30.7659950  16.3531761  28.6056499
  31.1004696  16.6975708  30.7693787  31.7133999  16.4335041  31.5274582
  29.8908997  17.5245838  31.0051384  29.5764866  18.1034660  30.1367245
  28.7340069  16.5526276  31.4129448  29.2024212  15.9265347  32.1723480
  27.9033813  17.0954094  31.8641148  28.1948090  15.5540552  30.3521938
  28.2542248  16.1412392  29.4357948  28.9026814  14.7319336  30.4577045
  26.7385406  15.1504679  30.4761257  26.1498585  16.0364552  30.7139969
  26.4217110  14.7327642  29.5204887  26.5397530  14.1670313  31.5211620
  27.3348942  13.6082706  31.7962036  25.5383492  13.9910908  32.3112831
  24.4183998  14.6075888  32.2798080  23.9121208  14.5158167  33.1489258
  24.1179981  15.1205006  31.4632435  25.6161251  13.2295694  33.3380470
  24.9876080  13.3809710  34.1140327  26.4819336  12.7471075  33.5322304
  30.0798321  18.6521778  32.0829849  30.8172855  18.4780426  33.1217461
  29.3907261  19.7769718  31.8910332  28.8809509  19.8657627  31.0236549
  29.6109257  21.0356884  32.6245499  30.2202835  20.8824291  33.5152245
  30.4905949  22.0290165  31.7990017  31.4163761  21.5070744  31.5569210
  29.8404427  22.7579231  30.6220875  30.6358261  23.3360767  30.1517639
  29.4626617  22.0372334  29.8968372  29.0891743  23.4902973  30.9176044
  31.0167389  23.0398693  32.7742195  30.2587986  23.6319275  33.2871475
  31.7374916  22.5925579  33.4587097  31.6778259  23.7664585  32.3018494
  28.2849197  21.6741238  32.9709282  27.3381500  21.6074352  32.1407852
  28.1728668  22.3306961  34.1417580  28.9750366  22.2762451  34.7530327
  27.0099220  22.9363651  34.7619820  26.3478527  23.2909794  33.9720383
  26.4056282  21.8617725  35.7140503  25.9659805  20.9867191  35.2354164
  27.2086906  21.4272270  36.3093338  25.3040161  22.4116974  36.6458054
  25.0411015  21.6239185  37.3517685  25.7527084  23.2655563  37.1534424
  23.7385807  22.9055882  35.9105186  23.9703560  24.6765022  35.8753242
  24.6307201  25.1940479  36.5711479  24.5190887  24.7606239  34.9372864
  23.0038586  25.1803761  35.8850784  27.5690746  24.1293049  35.5834770
  28.1317863  23.9569378  36.7164917  27.3449936  25.2949524  35.0331078
  26.8152885  25.3283024  34.1738052  27.7397270  26.5508709  35.7350464
  28.1608429  26.2684288  36.6999245  28.8532791  27.3320293  34.9391937
  29.5212822  27.8916035  35.5939827  29.6059895  26.6512527  34.5416069
  28.4716492  28.2345028  33.8441772  27.5698700  27.8682785  33.3534889
  28.2544556  29.1998005  34.3014793  29.8611050  28.5450687  32.6220856
  29.1548901  29.7082157  31.4273987  28.2311382  29.2813969  31.0367355
  28.8832378  30.5942249  32.0012398  29.7613831  29.8077774  30.5272026
  26.5357895  27.4333668  35.9747314  25.6285229  27.2384701  35.1754303
  26.6089363  28.3993816  36.9086952  27.5026207  28.6233234  37.3225517
  25.4953976  29.3357468  37.2373505  24.6792202  29.2887878  36.5164185
  24.7731323  29.0556202  38.5281944  23.9897270  29.7731133  38.7722893
  24.1994019  27.6350040  38.6249275  24.9960518  26.8922253  38.6664696
  23.4984131  27.5602932  39.4562721  23.5946140  27.3532925  37.7629700
  25.6341038  29.2342873  39.6040802  25.9573021  30.1369705  39.5560455
  25.9998779  30.7784309  37.2762489  27.0355968  31.1690121  37.8100014
  25.1608276  31.6988716  36.6435242  24.3395290  31.3551884  36.1666107
  25.6945248  32.9072762  35.9747810  26.6549072  33.1728821  36.4166260
  26.0476418  32.6496773  34.5269966  25.0939713  32.5884476  34.0027161
  26.8076534  33.8394051  33.9103622  26.1946926  34.7406158  33.9243050
  27.7337151  34.0542221  34.4436188  27.0317707  33.7607460  32.8465538
  26.8362904  31.3825169  34.2702560  27.4592228  31.4850101  33.3816872
  27.5559292  31.1957817  35.0673447  26.1831360  30.5114517  34.2179680
  24.7392921  34.0516853  36.0917587  23.5511990  33.8360023  35.9313507
  25.1806774  35.3219414  36.2392693  26.1459408  35.5033989  36.4747200
  24.2983704  36.4565201  36.1689911  23.3489323  36.0659752  36.5352516
  24.8208637  37.3561478  37.3041153  24.8424778  36.8586655  38.2737274
  25.7655678  37.7865868  36.9719162  23.8037682  38.5218620  37.5609932
  23.8687458  39.3119087  36.8128624  22.7846813  38.1353951  37.5753670
  24.0832710  39.1070862  38.8987656  25.2255707  39.5359955  39.1800385
  23.0491333  39.1721725  39.7149429  23.1872044  39.7057343  40.5613174
  22.1764545  38.7469635  39.4361420  24.1392651  37.0968666  34.7671738
  25.1211853  37.4018135  34.1087761  22.8480778  37.2305489  34.3483810
  22.0915356  37.1169128  35.0078011  22.5838966  37.5057259  32.8894157
  23.1181202  38.4160538  32.6173744  23.1810246  36.3843422  31.9269161
  24.2675400  36.4349022  31.8560257  22.8891811  34.9258347  32.2971306
  23.4367161  34.7188072  33.2166138  21.8236580  34.8747902  32.5210800
  23.2087917  34.2789726  31.4801102  22.7386036  36.5152473  30.6011753
  23.0828114  37.3576622  30.2954712  21.1186848  37.6324463  32.5826340
  20.3507004  36.8329315  33.0963058  20.6713524  38.6299782  31.8069897
  21.3669281  39.2709694  31.4528656  19.3069553  39.1015625  31.6542377
  18.8075581  38.9469299  32.6106834  19.1733475  40.5719299  31.2525177
  18.1128426  40.8234596  31.2397900  19.6210918  41.2148094  32.0103645
  19.7658482  41.0306320  29.9009781  20.0472603  40.1333427  29.0170174
  19.8874836  42.2392616  29.6608047  18.4550552  38.2903557  30.6504650
  17.2553501  38.5649414  30.4131031  19.0752182  37.3012581  30.0945110
  20.0627346  37.1522942  30.2452831  18.4510822  36.3883286  29.1570072
  17.9605179  37.0045967  28.4035721  19.4957638  35.6188583  28.3335381
  20.1599941  34.9550247  28.8869190  18.7725868  34.8073158  27.2555141
  19.5253143  34.1986923  26.7544327  17.9726143  34.2174034  27.7028942
  18.1947556  35.4608307  26.6019630  20.4950600  36.4935303  27.5813923
  21.1885624  37.0141907  28.2417469  21.0961590  35.8788033  26.9113979
  19.9387779  37.2177887  26.9863319  17.4214439  35.5167007  29.7987461
  17.7812386  35.0662155  30.8636284  16.1931973  35.2766876  29.3108387
  15.5348101  35.8224564  28.0347519  16.0087376  35.3672752  27.1650887
  15.6653681  36.8975220  28.1584034  14.0748987  35.3023720  28.1033306
  13.8210268  34.5752373  27.3320179  13.4170218  36.1465340  27.8967209
  13.8858385  34.7651787  29.4674778  13.1585236  33.9538803  29.4373512
  13.5096636  35.6550102  29.9722462  15.2550306  34.3470993  30.0440292
  15.2797174  34.6226311  31.0983410  15.6827173  32.8936157  29.8470917
  16.2706356  32.4635201  28.8706551  15.2036419  31.9949303  30.7517014
  14.4795237  32.3189278  31.3768234  15.6256008  30.5912857  30.8752022
  16.6417141  30.4473057  31.2424679  14.7650518  29.9481735  31.9918327
  15.0459023  30.3851871  32.9500809  13.6924028  30.0822697  31.8520374
  14.9695950  28.5123138  32.2428818  14.7310343  27.9000912  31.3731842
  16.0390110  28.4472218  32.4434204  14.0160494  27.9801636  33.3115959
  13.0924835  27.2576466  33.0425682  14.1724453  28.3706570  34.5612679
  15.0426493  28.8001423  34.8412514  13.5621166  28.0274258  35.2891350
  15.5066175  29.8609943  29.5158081  16.5216370  29.3137321  29.0441532
  14.3783836  29.9683781  28.7900791  13.6832151  30.6321983  29.1002121
  14.2036934  29.2005863  27.5281219  14.4223070  28.1487732  27.7125034
  12.7189226  29.2412167  27.1235943  12.5709229  28.8165035  26.1307106
  12.1937027  28.5971222  27.8288517  11.9973488  30.5527210  27.2425556
  11.7016582  31.1598873  26.2014046  11.6884422  31.1264572  28.3297024
  15.1190948  29.6575394  26.3719559  15.1825409  29.1281853  25.3003311
  15.7781782  30.8634567  26.4695606  15.8481779  31.2722950  27.3904591
  16.6295586  31.5453300  25.4295139  16.5288467  30.9771633  24.5047741
  16.0255032  32.9270592  25.2264023  16.2271557  33.5170174  26.1204872
  16.6404743  33.4233894  24.4756908  14.5318108  33.0663147  24.9092999
  13.9616642  32.6611252  25.7452755  14.4251699  34.1459312  24.8036766
  14.1013250  32.4490700  23.5773125  14.6736202  32.6143188  22.4995937
  13.0938711  31.6610107  23.6269646  12.5297432  31.4340420  24.4334049
  12.6978245  31.3820858  22.7407093  18.1146908  31.5319939  25.7940674
  18.9582043  31.8151836  24.9579830  18.4925518  31.2450542  27.0593891
  17.7898560  31.1698513  27.7809639  19.8346214  30.8523159  27.4514313
  20.4860725  31.7239952  27.3890667  19.7828884  30.4454937  28.9187508
  18.9651012  29.7305355  29.0091305  21.0700779  29.6712093  29.2751713
  21.2402954  29.7376938  30.3497448  20.9932289  28.6010170  29.0831223
  21.9335976  30.1281147  28.7917747  19.4854202  31.5708904  30.0160179
  18.5389614  32.0792847  29.8320255  19.4405956  31.0518131  30.9734364
  20.7192039  32.5377464  30.2346287  21.3649349  31.9107151  30.8494225
  21.2259293  32.8660126  29.3271198  20.4519749  33.4309082  30.7993851
  20.2173481  29.7133427  26.5690289  19.4175816  28.7842617  26.4679661
  21.4457588  29.8267899  26.0431576  22.0935783  30.5010300  26.4250336
  22.0078697  28.7596798  25.1555557  21.1567059  28.2133560  24.7491684
  22.6952953  29.3730240  23.9061470  23.5704918  29.8883839  24.3017902
  23.1362324  28.6688728  23.2005653  21.8595276  30.4122448  23.1624565
  21.7140121  31.3783016  23.6458359  22.3465939  30.7229252  22.2381496
  20.4945469  29.8058548  22.8734722  20.5625210  28.7996426  22.4599304
  19.8739376  29.7813282  23.7692127  19.7296371  30.6370182  21.9875488
  18.8780746  31.1320267  22.2109566  20.0181389  30.9104633  20.7143917
  21.0324039  30.4319000  20.0865250  21.2490559  30.8227577  19.1807652
  21.7351456  29.8723621  20.5482273  19.2132092  31.7656536  20.1463966
  18.4447060  32.2024994  20.6349354  19.1318913  31.7725296  19.1396980
  22.8585567  27.6550274  25.7901058  24.0462742  27.8350639  26.0033455
  22.3626766  26.4664326  25.9502945  21.4454136  26.3055820  25.5593262
  23.0836124  25.3072796  26.3799000  23.8535252  25.4711819  27.1338711
  22.2050991  24.2687740  26.9849815  21.5795898  23.8743172  26.1841965
  22.8082123  23.4189034  27.3044720  21.4331703  24.8362751  28.0928574
  21.8810806  25.0626984  29.3546600  20.8379974  25.6021805  30.0361347
  20.8331966  25.8489971  31.0875435  19.7122173  25.5516510  29.2924442
  18.8020477  25.9161415  29.5350056  20.0519867  25.0152302  28.0507011
  19.3992977  25.0441494  27.1907177  23.7889996  24.6849194  25.1259212
  23.1775799  24.7335701  24.0427799  25.0027027  24.1801338  25.1581440
  25.4313793  24.1477451  26.0720863  25.8379211  23.8871727  23.9925232
  25.2970238  24.1397190  23.0805149  27.1550751  24.7380257  24.0761642
  27.6029034  24.5901794  25.0588608  28.2024708  24.5381050  22.9714546
  29.1892300  24.8199883  23.3388176  28.1861095  23.4843006  22.6933689
  27.9817295  25.0616207  22.0412369  26.7125950  26.1875267  24.0229092
  27.5663433  26.8649330  24.0048714  26.0395851  26.5608788  23.2510490
  26.1578503  26.4408112  24.9263515  26.2388000  22.3800602  23.9177227
  26.5195103  21.7347507  24.9510212  26.0344944  21.7200756  22.7486362
  25.6036797  22.1607246  21.9484310  26.2462387  20.2934666  22.5856380
  26.7530479  19.9385300  23.4830036  24.8687916  19.6024628  22.4087772
  24.2800522  20.0951900  21.6350155  25.0042572  18.5445709  22.1838036
  24.0612946  19.6429348  23.6975918  24.1413307  18.4680748  24.5018101
  24.8099537  17.6919651  24.1597462  23.3095074  18.3561268  25.6283665
  23.3465691  17.4489956  26.2132931  22.4073925  19.4488049  25.9743233
  21.6353340  19.3281479  27.0679398  21.1434860  20.1207790  27.2947006
  22.3693905  20.6353722  25.2042522  21.6156673  21.3630104  25.4666500
  23.1977921  20.6756153  24.0273724  23.1569157  21.5118256  23.3451118
  27.2694817  19.9329300  21.5040569  26.9402046  19.9597225  20.3009892
  28.5070744  19.7614994  21.8599758  28.6805973  19.4755554  22.8129864
  29.6035824  19.5667973  20.9098778  29.3758392  20.0964794  19.9848537
  30.8954315  20.2349510  21.4123154  31.2051868  19.6321850  22.2660275
  31.6728153  20.1690350  20.6511097  30.6497936  21.7713718  21.7456226
  29.9825630  21.8450108  22.6043892  31.9956589  22.4578571  22.1404800
  32.7414970  22.4056015  21.3473225  31.7828503  23.4996014  22.3804455
  32.3391342  21.9905739  23.0633945  30.1426792  22.5722408  20.4562817
  29.2667732  22.1502724  19.9635067  29.9840317  23.6282787  20.6747189
  30.9892731  22.5660152  19.7697334  29.8339100  18.1242447  20.4372158
  29.5221729  17.1126366  21.1031628  30.5727711  17.9756165  19.3119049
  30.7940540  18.8169117  18.7987213  31.1370678  16.6599998  18.7918282
  31.4325809  16.7796993  17.7494984  32.3669510  16.3488846  19.6385880
  32.1153793  16.4371471  20.6954803  32.7308884  15.3415985  19.4360332
  33.4821701  17.4422073  19.4090767  33.0056915  18.4225426  19.4056320
  34.1495132  17.3425179  20.2651234  34.3096771  17.2865582  18.1826782
  35.5311699  16.9727764  18.1957588  33.6901360  17.5141830  17.1279030
  30.1162167  15.5196419  18.6297054  29.0297546  15.7386494  18.0957966
  30.3411160  14.3984718  19.2717323  31.1225758  14.2659626  19.8977222
  29.2993698  13.3284388  19.3974094  28.8203678  13.2166271  18.4246998
  30.0041370  11.9476957  19.6084843  30.3847408  11.8404083  20.6242256
  29.2098064  11.2107210  19.4901276  31.1170998  11.6521740  18.5144024
  30.7086372  11.7354908  17.5072670  31.8547764  12.4244976  18.7322273
  31.7412624  10.2335567  18.6989384  32.2852440  10.2200470  19.6433983
  30.9920635   9.4421282  18.6779346  32.5664139   9.9367981  17.4938259
  31.9736118   9.8199148  16.5866184  33.1643944  10.8256006  17.2924614
  33.4640732   8.8452349  17.6464863  34.2806282   8.9310598  18.2346821
  32.9560776   8.0960455  18.0945473  33.7539101   8.5422010  16.7276478
  28.0680542  13.6263695  20.3526955  27.0167408  13.0495625  20.1501617
  28.2700291  14.4871931  21.3222160  29.0582447  15.1172438  21.2791824
  27.1853046  14.8282518  22.2979240  26.8089447  13.9469614  22.8173294
  27.8987808  15.6410122  23.4176331  27.1523361  15.9737844  24.1388683
  28.6366749  15.0207329  23.9264259  28.3605900  16.5411148  23.0118656
  25.9869862  15.5303993  21.7047806  25.0393333  15.6969957  22.4698544
  25.8913937  15.9141417  20.4111214  26.6959972  15.7093000  19.8360100
  24.7160625  16.5808010  19.7983418  24.6289616  17.4944115  20.3864155
  25.0863743  16.9807949  18.3359413  26.0106869  17.5511532  18.4278126
  25.4310799  15.7627640  17.4826298  24.5962219  15.0659637  17.4079113
  25.4199619  16.0828419  16.4407425  26.3930149  15.3404770  17.7732544
  24.0600433  17.9313946  17.7364578  24.1630039  18.0579605  16.6587372
  23.0773125  17.4829540  17.8822060  24.2079811  18.7981339  18.3806477
  23.4338551  15.7474861  19.9144821  22.3393803  16.3358879  19.9712620
  23.4511776  14.4292154  19.8614559  24.4134789  14.1240778  19.8302555
  22.3553066  13.4307251  20.1216412  21.5400581  13.7467537  19.4707985
  22.6989994  12.0079737  19.8659554  21.7909527  11.4055157  19.8903618
  23.3743629  11.8366652  18.4713402  23.6765347  10.7971907  18.3437595
  22.7031803  12.2304192  17.7080765  24.2598801  12.4661732  18.3836956
  23.7208138  11.4978161  20.9254932  24.1140709  10.5355854  20.5975266
  24.5427608  12.2077208  21.0179157  23.2299213  11.3781738  21.8913136
  21.8267536  13.5230865  21.5426464  20.6965141  13.0882187  21.8544197
  22.5753765  14.1069155  22.5011196  23.4450970  14.4897661  22.1589050
  22.1251335  14.4166393  23.9108829  21.4959412  13.5690203  24.1824684
  23.2569637  14.4860477  24.9964066  23.6921196  15.4735594  24.8429127
  22.7938080  14.4585361  25.9827290  24.3531055  13.4402828  24.9184628
  24.7637081  13.3544044  23.9124165  25.5238495  13.7792587  25.9057236
  25.2188072  13.9188347  26.9428177  26.2923012  13.0097647  25.9796352
  25.9519062  14.7032852  25.5170841  23.7166977  12.1292305  25.2010422
  24.4203129  11.3617783  25.5235958  22.9975090  12.2724056  26.0074959
  23.1427441  11.7526217  24.3543816  21.2229004  15.6346359  23.9649830
  20.3242302  15.6842861  24.8058548  21.3592262  16.5772781  23.0413971
  22.1816044  16.4960575  22.4607086  20.5356960  17.8171005  22.9701385
  20.8824348  18.4381504  23.7960739  20.8122292  18.5449505  21.6719437
  21.8815155  18.7378864  21.5853195  20.3366089  17.9886646  20.8642120
  20.2863617  20.0161896  21.7224350  19.2084484  20.0634308  21.8772564
  20.9036160  20.5588036  22.4384460  20.6195354  20.7845535  20.4506035
  20.4238663  21.8203602  20.7279453  21.6907597  20.7878857  20.2491989
  19.8828201  20.2562580  19.2799816  18.9667683  19.8696995  19.4575253
  20.3421001  19.8193188  18.1241150  21.5255127  20.1143856  17.6897297
  21.9056664  20.9218826  18.1625195  21.5977478  20.2403851  16.6902275
  19.6975670  18.9656925  17.4426289  18.7820377  18.6694317  17.7494431
  20.2137737  18.5438652  16.6838856  19.0348282  17.3423920  23.0287476
  18.5406132  16.7379131  22.1076126  18.2944679  17.7930202  24.0615425
  18.7449665  18.7178669  25.0430279  19.1734619  19.5978813  24.5633736
  19.5010281  18.2083988  25.6404495  17.5614605  19.0156269  25.9433441
  17.0476723  19.8899250  25.5436859  17.8422012  19.3058605  26.9557934
  16.7015038  17.7297592  25.8501434  15.6609383  18.0542812  25.8530731
  16.8884449  16.9755955  26.6145992  17.0114498  17.1801872  24.4865913
  17.2694721  16.1392574  24.6815071  15.8581915  17.4058056  23.4497700
  15.1269560  16.5452538  23.1450691  15.9112768  18.5649815  22.8094101
  16.6427765  19.2397785  22.9816322  14.9918165  19.0296478  21.7478466
  15.1539412  20.1042461  21.6638660  15.4663534  18.4074917  20.4244900
  15.4877253  17.3240948  20.5423775  14.7108068  18.6529579  19.6781693
  16.7610664  19.0310783  19.9109707  17.1342468  20.1610699  20.3205757
  17.4740219  18.3842373  19.1159725  13.4735699  18.9833565  22.1680336
  12.5521507  19.0560474  21.2959862  13.1508799  19.0882397  23.4275913
  13.8470678  19.1686153  24.1548901  11.7498102  19.1364765  23.9082317
  11.1987171  18.4980679  23.2177029  11.7194548  18.6064587  25.3928890
  12.5680170  19.0105762  25.9449158  10.7542162  18.8429356  25.8406544
  11.7402678  17.0641689  25.3130875  12.2473269  16.7094803  24.4157658
  12.4685068  16.4542542  26.5376759  13.5420656  16.6388378  26.4989834
  12.0111122  16.8686161  27.4361172  12.2349682  15.3898230  26.5610733
  10.2891788  16.5736084  25.2580948   9.7112274  17.1511707  24.5366402
   9.8371906  16.6367111  26.2479553  10.2435150  15.5242424  24.9668007
  11.1945190  20.5798969  23.7561398  11.8396301  21.5662346  24.2338123
  10.0607920  20.7415257  23.1046333   9.5194216  19.9183712  22.8822994
   9.4478769  21.9346237  22.6760597  10.1258154  22.7690105  22.8557720
   9.1614647  21.7413254  21.1922474   8.8128147  22.7268639  20.8836079
  10.1245031  21.3919792  20.8199368   8.1197319  20.7724895  20.9607391
   8.1360312  20.5515938  20.0266399   8.0623083  22.2425594  23.3117180
   7.6046872  21.4748592  24.1592388   7.4970183  23.4164181  23.0798779
   7.9267917  24.1415062  22.5234241   6.2115793  23.8202000  23.5585995
   6.0761409  23.8086891  24.6400909   5.9807844  25.1647549  23.0081501
   5.8486652  25.1171894  21.9272327   5.0747447  25.5356464  23.4873505
   7.0410824  26.2192039  23.3852692   8.0282555  25.9553719  23.0058079
   6.5550981  27.4939270  22.6469078   7.3616514  28.2191277  22.7549133
   5.6666021  27.8775139  23.1484432   6.3274956  27.2781639  21.6030006
   7.1518126  26.3848000  24.8941097   7.8745131  27.1708202  25.1131458
   6.1225123  26.6397228  25.1464119   7.3956013  25.5046024  25.4890232
   5.0442371  22.8802242  22.9774284   4.0392189  22.6815109  23.6257591
   5.2191110  22.2604618  21.7784195   6.0525060  22.4511700  21.2406616
   4.2468042  21.2872467  21.2974224   3.2182238  21.5847988  21.5013485
   4.3145819  21.0971107  19.8133163   5.3575602  20.9609852  19.5273666
   3.3144538  20.1944447  19.0226383   2.3127058  20.4491844  19.3686275
   3.3755398  20.2865028  17.9382515   3.3457592  19.1385269  19.2912712
   3.9967766  22.4053936  19.2803516   4.6755848  22.5314007  18.6133118
   4.4310317  19.9314671  21.9415245   3.4907339  19.1464958  22.1931381
   5.6712108  19.6387768  22.5119152   6.4501758  20.2813778  22.5313301
   5.8651214  18.3616695  23.3333569   4.9914055  17.7355042  23.1526947
   7.1215148  17.6795082  22.8499470   7.9431977  18.3878841  22.9554977
   7.1990561  16.8706284  23.5764465   7.0903683  17.0987263  21.3720112
   6.9789753  17.9367218  20.6839294   7.9900069  16.5114288  21.1880779
   5.9165087  16.1828976  21.1458282   5.9004931  15.4460621  21.9488964
   4.9525971  16.6892433  21.0949631   6.1983767  15.4933968  19.8116951
   6.0928545  16.2222919  19.0081558   7.2744069  15.3219118  19.7824974
   5.4130211  14.2281895  19.5853386   5.6268768  13.6896362  18.7580986
   5.5725718  13.5476837  20.3144207   4.4123311  14.3524714  19.5281200
   5.8528051  18.4255066  24.8887653   5.8224392  17.4011669  25.6304684
   5.8070717  19.6429119  25.4272366   6.0031691  20.3782291  24.7631836
   5.6074600  19.9746323  26.8192253   6.3135924  19.4344292  27.4498272
   5.7746773  21.5234509  26.9455452   6.8294721  21.6770496  26.7176952
   5.0996585  22.0591660  26.2781162   5.4223547  21.8931732  28.3554115
   5.9453812  21.5765209  29.4563274   4.3612266  22.6377010  28.4307194
   3.8576241  23.0138359  27.6401443   4.0361052  22.9832268  29.3223534
   4.1698627  19.6016998  27.2763691   3.2339165  20.0201397  26.6352348
   4.0057502  18.7626038  28.3602581   4.7928057  18.3963776  28.8765163
   2.7060857  18.4848900  28.9259338   2.1049721  18.0119019  28.1493721
   2.9054980  17.4432354  30.0279655   3.2450385  16.5725327  29.4669933
   3.6761987  17.8935375  31.2357025   3.7833385  17.0290337  31.8908787
   4.6552401  18.1419430  30.8259792   3.1446092  18.6504211  31.8124523
   1.5959921  17.1338634  30.5306931   1.3245209  16.3289433  30.0834732
   2.0565503  19.7464447  29.4122238   2.6663847  20.5762558  30.0324936
   0.7218614  19.8592625  29.2101364   0.3317502  19.0712433  28.7132053
  -0.1414701  20.9559994  29.6340141   0.3064061  21.8479710  29.1959553
  -1.4687543  20.7173100  28.9119473  -1.4745212  20.3346634  27.8913364
  -1.9513353  19.9147606  29.4697456  -2.4729574  21.8999348  28.9526882
  -3.4084425  21.6467915  28.4538021  -2.7598712  22.2067013  29.9585114
  -1.9204205  23.1922092  28.2858639  -1.3719063  23.9527187  29.0709476
  -2.1269164  23.5112171  27.1074104  -0.2802980  21.0495701  31.1554546
  -0.1998462  20.0655003  31.8615608  -0.3529076  22.2462463  31.7186584
  -0.4457872  23.0176601  31.0733719  -0.5857001  22.5675831  33.1825371
  -0.0147948  21.8270016  33.7426338  -0.0105578  24.0321846  33.4514885
   0.9544176  24.2140770  32.9783707  -0.4968475  24.7893581  32.8364182
   0.0575745  24.4671764  34.9136047  -0.8639290  24.2671432  35.4603500
   1.1613911  23.6744099  35.6416969   2.1392498  24.0002193  35.2871017
   1.1168076  23.7953835  36.7240448   1.0002776  22.6048355  35.5069618
   0.4424833  25.9709225  34.9296722  -0.3834587  26.5110607  34.4668846
   0.4368383  26.1940327  35.9965782   1.4390881  26.1537743  34.5278702
  -1.9664204  22.3948231  33.7081604  -2.8824408  23.0180721  33.0951958
  -2.1928706  21.7082424  34.7291527  26.3322792  43.6711807  46.0753250
  26.9186783  43.9256363  46.8572998  26.8378830  43.3278084  45.2712326
  25.7601452  44.4403419  45.7572746  25.6684418  42.5062904  46.6793137
  26.3126278  42.0944939  47.4561996  24.4607239  43.0550957  47.4746666
  24.8330822  43.8512421  48.1193390  23.8481483  43.4178391  46.6492767
  23.6623707  42.0168266  48.2658424  22.7826748  42.4700470  48.7228203
  23.2465649  41.2240982  47.6439209  24.4836674  41.1943398  49.6850166
  24.8100700  42.6069908  50.6864052  24.1576252  42.5950394  51.5594864
  25.8653316  42.5284882  50.9478607  24.6736526  43.5497246  50.1565552
  25.2805939  41.3494301  45.6555519  24.6280441  41.6110611  44.6513596
  25.7780647  40.1171532  45.8715172  26.4411163  39.9945107  46.6234589
  25.8004284  39.0227699  44.8763199  24.8278351  39.0265007  44.3842316
  26.7954903  39.5133438  43.7839394  26.2768650  40.1728821  43.0881386
  27.6778450  39.9689598  44.2333527  27.3337059  38.3440933  42.9296379
  28.1608982  38.7574501  42.3525887  27.7851906  37.5563660  43.5327568
  26.0992641  37.4710541  41.8546829  27.1324883  36.6292877  40.5761909
  27.9057484  36.0883369  41.1216660  26.5603256  36.0144043  39.8814621
  27.6226349  37.4604492  40.0692101  25.8319416  37.6684189  45.6179008
  26.4203396  37.6491928  46.6870308  25.3842602  36.5958519  45.0192719
  24.7516003  36.7153473  44.2410927  25.7937965  35.2937965  45.5362320
  25.9190254  35.4321632  46.6101341  24.6860466  34.2162056  45.3556595
  25.1061134  33.3480797  45.8635941  23.4300022  34.5588608  46.1721420
  22.9662323  35.4970512  45.8674774  22.6994972  33.7506828  46.2084236
  23.4926586  34.5768738  47.2601929  24.5293236  33.6093979  43.9460106
  24.3660336  34.4723816  43.3004913  25.5329990  33.2441216  43.7285004
  23.3983421  32.5997238  43.6361084  23.4661751  31.7295475  44.2890167
  22.4697704  33.1330605  43.8395729  23.3054829  32.3131523  42.5885620
  27.1768951  34.7613411  44.9911613  27.4681473  34.9900742  43.8350639
  28.0281315  34.1046906  45.7973137  27.6657124  34.0180321  46.7360573
  29.4789982  33.7622833  45.5259819  29.6755810  33.6751785  44.4574013
  30.5325966  34.6895027  46.1581192  30.3145714  34.8672714  47.2111931
  31.5549011  34.3188133  46.0834160  30.5494385  36.0370369  45.3689384
  29.6030502  36.5423508  45.5615692  31.3621693  36.6544952  45.7514496
  30.6912689  35.9452324  43.8304024  31.6166153  35.3910866  43.6730957
  29.8661633  35.3294563  43.4724617  30.8355408  37.2206879  43.0962029
  30.6755581  38.0612907  43.6327629  31.0247478  37.3259392  41.8020134
  31.2825470  36.2206955  41.0645752  31.2567825  35.3379860  41.5547371
  31.4526749  36.3081627  40.0728569  31.0388241  38.3687668  41.1020470
  31.0900745  38.3792686  40.0934029  30.9674015  39.2354507  41.6157150
  29.7405453  32.3679810  46.1414757  29.4890690  32.1820984  47.3623734
  30.4026299  31.4834251  45.3406105  30.6976814  31.6989155  44.3990097
  31.0000439  30.3306141  46.0979195  30.2475319  29.8705215  46.7383423
  31.2517281  29.6568089  45.2789307  32.2810364  30.6797466  46.7970963
  33.2324409  31.2122231  46.1219864  32.3862343  30.0834007  47.9984818
  31.5076504  29.7358360  48.3553925  33.6195297  29.8442230  48.8091087
  34.3505516  30.5778370  48.4692192  33.2659264  30.2463036  50.2975311
  32.3734436  29.6743412  50.5513725  34.4745827  29.8858929  51.2545662
  35.4488716  30.2633286  50.9440613  34.3112869  30.1502037  52.2993507
  34.5900040  28.8024807  51.2229881  32.8864784  31.7541389  50.5458717
  33.7651634  32.3983231  50.5136642  32.1481781  32.0317001  49.7935562
  32.1860809  31.9028969  51.9152451  31.3956146  31.1784401  52.1112480
  33.0038261  31.9014740  52.6359367  31.7684422  32.8899574  52.1137123
  34.0641823  28.4118271  48.6507454  33.2625694  27.5362949  49.0539169
  35.3186722  28.1372051  48.1699486  35.9456253  28.9153233  48.0231094
  35.9198265  26.7657146  48.3260078  35.1042366  26.0768967  48.1059189
  37.0106392  26.6124573  47.1497955  37.4834557  27.5934200  47.1022758
  37.7261467  25.8612881  47.4843102  36.4999924  26.2458076  45.7721214
  35.8500938  27.0589542  45.4488182  37.2752609  26.1817818  45.0085945
  35.6541595  24.9175110  45.8313789  34.7034683  25.0595665  46.3452873
  35.5301208  24.4434185  44.8577499  36.2587662  23.8190041  46.5736542
  35.7871704  23.6005592  47.4396667  37.2612152  23.1504631  46.1063004
  37.6761856  23.1104221  44.8821335  38.3597984  22.4154434  44.6179810
  37.1051788  23.4608955  44.1263428  37.8879128  22.4480801  46.9813690
  38.7140541  21.9022751  46.7821465  37.6721268  22.6124821  47.9542542
  36.5572395  26.4862995  49.6594124  37.0227203  27.4016094  50.3314781
  36.7356796  25.1804657  49.9184914  36.2690277  24.4703407  49.3725433
  37.8378944  24.6738701  50.8236313  38.7200241  25.3106766  50.7570877
  37.4766045  24.7649937  51.8479691  38.2560844  23.2445335  50.5854950
  37.5992393  22.4460144  49.8899117  39.3295479  22.8317070  51.2283592
  39.8992195  23.5353374  51.6761017  39.8706360  21.4322510  51.1723480
  39.0359917  20.7322464  51.1341972  40.6467667  21.2313747  49.8283920
  41.1147919  20.2662849  49.6343422  39.9062500  21.2468624  49.0287094
  41.2768402  22.0698586  49.5316582  40.8451424  21.0722408  52.3678207
  41.4150047  21.9220161  52.9977303  41.0149384  19.7665482  52.6973457
  40.5800819  19.0666714  52.1132507  41.8464928  19.2574692  53.8278427
  42.8302765  19.7257748  53.8588676  41.1221313  19.4576111  55.1828995
  40.8421097  20.5099812  55.2298088  39.9573326  18.6155720  55.4490814
  39.3732948  18.8588047  56.3366852  39.2846298  18.6761208  54.5935669
  40.2263184  17.5632038  55.5400238  42.1232147  19.2635441  56.1688728
  41.7425385  19.5977974  56.9843254  42.1312408  17.7800941  53.6432610
  41.3736115  17.1606579  52.8939667  43.2064095  17.2404099  54.1887550
  43.6842155  17.8048477  54.8766594  43.5489960  15.8055267  54.1660309
  42.8932953  15.3043861  53.4539795  44.8957062  15.4836607  53.5230446
  45.0998878  14.4218903  53.6610832  45.0253372  15.8558006  52.0711746
  44.4132080  15.2448263  51.4077682  44.8225441  16.9162369  51.9213486
  46.0615425  15.8322248  51.7338066  45.7503700  16.1790905  54.3411674
  45.6434326  15.8230619  55.2262726  43.3236427  15.0842867  55.5009689
  43.3807411  15.7332191  56.5729446  43.0901070  13.7670412  55.5835686
  43.0470886  13.2212658  54.7348175  42.9481659  13.0138187  56.8191109
  43.2949829  13.6328468  57.6465378  41.5228729  12.5918512  57.3739166
  41.6649742  12.1392870  58.3552856  40.7818565  13.8653326  57.5746384
  39.7992134  13.6673222  58.0027733  41.4023895  14.4661417  58.2395172
  40.6321259  14.4789314  56.6862793  40.8069839  11.5988464  56.4489326
  41.0700684  10.5549479  56.6197052  39.7625999  11.6522837  56.7563515
  40.9085693  11.8772449  55.3999901  43.9621010  11.8158617  56.8053093
  44.3538361  11.2857361  55.7099915  44.3852310  11.3688040  57.9315109
  43.9776688  11.7828550  58.7576790  45.2784805  10.1131535  58.0770798
  45.9467125  10.0421896  57.2188644  46.2340088  10.2374001  59.3951416
  45.5888863  10.4277687  60.2528572  46.6119576   9.2310047  59.5752068
  47.2473145  11.4006462  59.3138733  46.7770386  12.3839006  59.3014374
  47.8371811  11.4120369  60.2304039  48.2147064  11.2150269  58.1502991
  48.7688408  12.1675186  57.6055794  48.4877777  10.0476122  57.7000542
  44.5185280   8.7999363  58.0766525  45.0513153   7.7322874  57.7497406
  43.2678261   8.8082952  58.6200905  42.8903618   9.7195768  58.8373184
  42.6193237   7.5676217  59.0019035  43.0235977   6.7141891  58.4575539
  42.6184425   7.2519808  60.4922028  41.6909828   7.5920115  60.9529648
  42.5477180   6.1794786  60.6734161  43.7963333   7.8576508  61.3028564
  44.7526588   7.6739049  60.8131866  43.8568840   8.9442978  61.2425880
  43.9771080   7.4918122  62.7768211  44.1042252   6.4094219  62.7961464
  44.9016609   8.0000286  63.0507126  42.9207153   7.9592910  63.6569977
  42.6756973   8.9372702  63.7171745  42.1769524   7.2376084  64.4444046
  42.1280136   5.9778099  64.4683304  42.6051941   5.3791933  63.8095016
  41.6808243   5.4859705  65.2287369  41.5333824   7.8581114  65.3568802
  41.5511818   8.8663778  65.3004761  41.0395737   7.3660426  66.0877151
  41.1864548   7.6189914  58.4407120  40.5557709   8.6911488  58.4894943
  40.6135063   6.4990444  57.9767609  41.1624870   5.6549835  58.0560074
  39.2257271   6.3664269  57.5147362  38.9039078   7.2651410  56.9885712
  39.2167168   5.3314185  56.3763161  40.0274162   5.5627460  55.6854057
  39.5677414   4.4195576  56.8594208  37.8792839   5.1051064  55.6657066
  36.9533501   5.9224401  55.8419685  37.7798958   4.1121235  54.9475746
  38.2287750   6.0022173  58.6682129  37.8593750   4.8324108  58.8634644
  37.9280624   7.0790815  59.4315758  38.3526039   7.9464426  59.1356850
  36.9453773   6.9779043  60.6154366  36.1013908   6.3472705  60.3359947
  37.5030746   6.3527532  61.8761978  38.0551796   5.4337249  61.6795502
  38.5327377   7.2209120  62.6504135  38.9411736   6.7855840  63.5624237
  39.2666588   7.5790682  61.9284859  38.0577431   8.1529303  62.9567184
  36.3683777   6.0771184  62.5930939  35.8344574   5.5024467  62.0396690
  36.2795868   8.3210068  60.8932915  36.9075127   9.3502541  60.5658302
  35.0210304   8.4158373  61.3595848  34.4131737   7.6131697  61.4391632
  34.2714806   9.6735620  61.6676407  34.2199631  10.1515350  60.6893806
  32.8924370   9.3664036  62.2474327  32.5704765   8.7103777  61.4386864
  32.9682350   8.6873541  63.0966949  31.9254284  10.5302324  62.4360504
  32.2564926  11.0876436  63.3122864  31.9693203  10.9904222  61.4489326
  30.4354572  10.2004433  62.7148170  29.7998085  10.8795900  63.5486183
  29.9018364   9.2165718  62.1817322  34.9815407  10.6572447  62.6104164
  34.8254547  11.8668079  62.5574265  35.7904243  10.1006956  63.5988579
  35.7145691   9.0950060  63.6530190  36.6849937  10.7711229  64.5763321
  35.9532547  11.3275385  65.1620407  37.4682350   9.7090292  65.3597794
  36.8878136   8.8589334  65.7183151  38.2750282   9.2861977  64.7611160
  38.1529083  10.2793074  66.5635147  39.0235863  10.8271389  66.2030945
  37.5726471  10.9615908  67.1847153  38.6097870   9.1712999  67.4644852
  37.7891846   8.3245335  67.9826813  39.7810860   9.0499096  67.7680054
  37.6314201  11.7110806  63.8802223  38.0189018  12.7788887  64.4204712
  38.0750999  11.4612322  62.6328735  37.9846725  10.5307312  62.2506561
  38.9683342  12.2695837  61.8512611  39.4138947  13.0182142  62.5063400
  40.1824646  11.5214148  61.2402382  39.8288765  10.8529587  60.4552269
  40.8686371  12.2501163  60.8086586  40.8335648  10.6165476  62.2198677
  40.1368484   9.8471165  62.5525246  41.5768394  10.0524015  61.6564980
  41.4388084  11.2716122  63.4395676  41.5909653  12.4952898  63.4625053
  41.9116936  10.4789858  64.3476868  38.1577530  12.9878139  60.7597504
  38.0547333  14.1643858  60.8014259  37.4793663  12.3091955  59.9194717
  37.4112511  11.3152075  60.0851440  36.8105698  12.9624043  58.7507896
  37.5021095  13.3160973  57.9860840  35.8608322  11.8735914  57.9336510
  35.1258774  11.5035372  58.6484985  35.0882034  12.2991590  56.7057648
  34.1054802  12.7533455  56.8325195  35.5487061  12.9466486  55.9595757
  34.9340630  11.4265280  56.0710564  36.8093719  10.7643452  57.3509254
  37.2397003  10.9668894  56.3701668  37.6742821  10.5500193  57.9786987
  36.0821152   9.3700142  57.2282944  36.8288002   8.5909567  57.0745735
  35.3938713   9.2082634  58.0579071  35.4639511   9.2751627  56.3355637
  35.7990494  14.0751162  59.1398201  35.9049416  15.1374025  58.6293106
  34.9132652  13.8827515  60.1155510  35.0983429  13.0673494  60.6820869
  33.8272552  14.8293438  60.5153770  33.3319473  15.2325296  59.6320801
  32.7036057  13.9910812  61.1732521  32.5657883  13.0733757  60.6014786
  33.0390396  13.6544380  62.1541977  31.4270267  14.7696600  61.3997803
  31.1480370  15.2275677  60.4507904  30.4148884  13.6740923  61.7926331
  30.6389866  13.3491259  62.8086472  29.5239449  14.3017540  61.7735977
  30.3893280  12.8118620  61.1262932  31.3712673  15.8340559  62.5717506
  30.3321838  16.0415096  62.8274307  31.7360401  15.3989697  63.5022011
  31.9185905  16.7195625  62.2486115  34.4638634  15.9335966  61.2877464
  34.1236076  17.0860424  60.9825974  35.3004265  15.6378307  62.2785110
  35.5364532  14.6638317  62.4038811  36.1286316  16.6526318  62.9468307
  35.4599838  17.3442173  63.4593887  36.9497719  16.0927525  64.1102524
  36.2107277  15.8987274  64.8875961  37.4467354  15.1574821  63.8525734
  38.0086632  17.0655937  64.7425995  38.5434418  16.6295757  65.5864029
  38.6916351  17.2974663  63.9253578  37.2507820  18.2336750  65.2269440
  36.1876564  18.1314049  65.8567886  37.7574883  19.4184093  65.1208191
  38.6739616  19.6329556  64.7545624  37.2788048  20.1826267  65.5757217
  36.9096184  17.5482445  62.0197945  36.7772369  18.7477741  62.1371918
  37.7590446  16.9664536  61.1056557  37.8430786  15.9645319  61.0098000
  38.6090393  17.8165722  60.2902794  39.0895691  18.5373344  60.9518623
  39.6210785  17.0172653  59.4007721  39.2805138  16.0450611  59.0444946
  39.8058815  17.7023849  58.5733910  40.9355316  16.8994484  60.2253342
  41.7363968  16.7312641  59.5053139  41.1858025  17.8535671  60.6891441
  41.0541000  15.9587488  61.3514137  40.3143120  16.0719109  62.1438828
  40.7893333  14.9404116  61.0668335  42.4041214  16.0351830  62.0484238
  43.1933365  15.9837055  61.2983627  42.5926285  17.0202942  62.4751778
  42.6251450  14.9810038  63.1073151  42.3012314  14.0624037  62.8401871
  43.6120148  14.8024368  63.2269173  42.2254143  15.1888494  64.0112610
  37.7337952  18.6724777  59.3299522  38.1705170  19.8023109  58.9737053
  36.5739479  18.1290894  58.9193954  36.3695374  17.1736813  59.1753464
  35.6092834  18.8739109  58.1860466  36.1108780  19.3947201  57.3704071
  34.3820953  17.9760227  57.7890816  33.7840767  17.5844364  58.6119614
  33.4718971  18.8657150  56.9067574  34.0863686  19.1532784  56.0536346
  32.6298752  18.2576237  56.5761147  33.0966644  19.7010918  57.4979095
  34.7606964  16.9137115  56.9908295  35.2126732  16.3242741  57.5990105
  34.9948196  20.0053425  59.0031357  34.9619942  21.1674709  58.5523186
  34.5773048  19.7415142  60.2407875  34.4656830  18.7477150  60.3822098
  34.0307121  20.6648426  61.1904488  33.2277184  21.2624378  60.7589569
  33.5975685  19.8711510  62.4443474  32.9859505  19.0203362  62.1441154
  34.4580765  19.5650673  63.0392723  32.8256264  20.7200890  63.4441833
  33.4133949  21.6306343  63.5605469  31.8717804  20.9955101  62.9942741
  32.4873276  20.1363411  64.7997894  31.7219868  19.3874779  64.5959396
  33.3642998  19.5456657  65.0646133  31.9898891  21.1332684  65.8710632
  31.2272530  21.7547779  65.4017868  31.4862423  20.6546879  66.7109451
  33.0456161  21.9220562  66.4885559  33.4040413  22.6375675  65.8723755
  32.7458763  22.4248371  67.3116379  33.8018417  21.3671951  66.8631821
  35.0441437  21.7218151  61.4322395  34.6404724  22.8783092  61.4547958
  36.4079514  21.4428654  61.5645981  36.7279091  20.4876919  61.4913025
  37.5646553  22.3990345  61.5499763  37.4064178  23.1003437  62.3692589
  38.9109917  21.7470665  61.8210678  38.8293152  21.1152611  62.7055168
  39.0589905  21.0912228  60.9631195  40.0881195  22.7376766  61.9400291
  41.0172997  22.1683540  61.9645119  40.2875710  23.4686546  61.1564522
  40.0876236  23.5342941  63.2387619  39.5843506  23.1593475  64.3329468
  40.5778084  24.7109013  63.2379684  40.5532608  25.1926880  64.1253128
  41.1666451  24.9821167  62.4634895  37.6021805  23.3026199  60.2431679
  37.9058380  24.5083237  60.3173332  37.4124336  22.6074600  59.0388031
  37.1340179  21.6367474  59.0213928  37.5107880  23.3482227  57.8268089
  38.4383240  23.9163456  57.7560234  37.5006981  22.3034897  56.6155319
  38.2867584  21.5633259  56.7650986  36.5295181  21.8108025  56.6621170
  37.5841446  23.0329037  55.2552185  36.7417297  23.7182293  55.1616058
  38.8553085  23.7529564  54.9826851  38.9473076  24.2244740  54.0042686
  38.8228569  24.5517349  55.7236290  39.6935768  23.0613384  55.0668030
  37.2527466  22.1540394  54.0358276  37.8851204  21.2842388  53.8579369
  36.2555618  21.7295856  54.1522789  37.3421440  22.8388710  53.1925468
  36.3651505  24.4101906  57.6648064  36.6937485  25.4648991  57.1164436
  35.1633110  24.1557655  58.2448273  35.0246582  23.2508888  58.6715279
  34.1291046  25.1608391  58.3140907  34.0492401  25.7563858  57.4046707
  32.8260994  24.2914352  58.4981842  32.8779068  23.8789120  59.5057755
  31.9875908  24.9870815  58.5310059  32.5718727  23.1545429  57.4458847
  33.4289474  22.5249443  57.2068634  31.3783817  22.2528000  57.8527107
  31.5790768  21.7662296  58.8072090  30.5600033  22.9638596  57.9656525
  31.1285210  21.5030422  57.1020203  32.1176796  23.8071079  56.1662254
  31.2398911  24.4326668  56.3282700  32.8675385  24.4711132  55.7362061
  31.8388939  23.0805168  55.4030457  34.4415932  26.1096172  59.4911194
  34.2567139  27.2791519  59.1881447  35.0083885  25.6858883  60.6173897
  35.2346420  24.7044239  60.6925087  35.3033066  26.5754662  61.6672287
  34.4414825  27.1933784  61.9193153  35.5341797  25.7881432  63.0021896
  36.0960541  24.8541279  62.9992294  36.0042534  26.4845695  63.6965408
  34.1474915  25.3366890  63.5279541  33.5888710  26.2588120  63.6883698
  33.6508331  24.6350288  62.8577995  34.3251305  24.6587696  64.9273529
  33.4129372  24.7209358  65.7624359  35.3195190  23.9788742  65.1549683
  36.4158173  27.6492825  61.4435158  36.4216652  28.6767406  62.0852890
  37.3100815  27.4785328  60.4937134  37.4691200  26.5926476  60.0354424
  38.0757141  28.6164818  59.8748512  38.3874168  29.3203068  60.6465836
  39.4092674  27.9403801  59.2939072  39.9652100  27.4495983  60.0927620
  39.1576691  27.2424526  58.4953499  40.4627190  28.8093872  58.6894646
  41.3587074  28.1888332  58.6746597  40.0691071  29.1931438  57.7482414
  40.8302956  30.0456047  59.5647469  41.3529701  30.8233814  59.0079918
  39.9960251  30.6148853  59.9746399  41.6388168  29.8756142  60.8855324
  41.0195770  29.4077911  61.6508980  42.4739418  29.1951885  60.7191353
  42.0735550  31.2317982  61.3074417  42.2656288  31.1617222  62.2965317
  42.9190102  31.5640602  60.8659554  41.3291512  31.8800354  61.0935402
  37.3605156  29.3537846  58.7711830  37.3164368  30.5724010  58.8008461
  36.7009621  28.6841583  57.8392868  36.6482201  27.6762695  57.8777695
  36.0140915  29.3750973  56.6799965  36.6617928  30.0175152  56.0834389
  35.3744888  28.2565823  55.7975540  35.0159607  27.4892998  56.4837265
  34.1108627  28.6980038  54.9773064  33.7501831  27.8716049  54.3648796
  33.3103104  28.8927727  55.6909485  34.3090820  29.6119976  54.4174614
  36.3835297  27.5748463  54.8664589  36.7904434  28.2228737  54.0901985
  37.1863441  27.3472652  55.5677414  35.9935303  26.2964325  54.0891304
  35.4550362  26.5148449  53.1669464  36.8969460  25.8210220  53.7071152
  35.4656563  25.5908794  54.7307243  34.9004784  30.3550682  57.1752777
  34.7572060  31.4491348  56.6175308  34.2241974  29.9938126  58.2278328
  34.3558655  29.0504189  58.5636520  33.1954193  30.9121990  58.8149338
  32.5744781  31.2468128  57.9839287  32.1447258  30.0342083  59.5955734
  32.7474327  29.4647655  60.3030891  30.9583282  30.7708588  60.2673340
  30.2731209  30.0354118  60.6888809  31.4293613  31.3664951  61.0492859
  30.4114323  31.3714809  59.5405273  31.5036449  29.0572243  58.6048088
  30.7422619  29.5676632  58.0150223  32.1250000  28.7578049  57.7607918
  31.0318737  27.7529011  59.1792145  30.5719395  27.1833611  58.3716393
  31.8253860  27.2849789  59.7618675  30.2895107  28.0236244  59.9300156
  33.7395554  32.1255836  59.6420174  33.0457268  33.1044388  59.7403641
  34.9477501  31.9159679  60.1898270  35.4496536  31.0630016  59.9882355
  35.7789688  32.9616470  60.9054184  35.1473122  33.5488663  61.5719643
  36.9095383  32.3598175  61.7835808  36.4308739  31.5617676  62.3511200
  37.5879211  31.8905621  61.0710526  37.6494331  33.3916664  62.6717491
  38.4626923  32.8130722  63.1098557  38.0620041  34.1637573  62.0223160
  36.8350296  34.0727844  63.7930412  35.9171333  33.4788437  64.3232040
  37.1900520  35.2434921  64.1484375  36.4203606  33.9701309  59.9112473
  36.3574219  35.1248322  60.1946869  36.8501129  33.4666290  58.7532654
  36.9969025  32.4814796  58.5858307  37.5733948  34.4170189  57.8505936
  37.9376030  35.1813583  58.5370674  38.6418190  33.7328033  57.0604935
  38.1112289  32.9294472  56.5494232  39.0503387  34.4244881  56.3237534
  39.8578033  33.2319260  57.8165512  39.5854759  32.3061752  58.3234329
  40.6255531  33.0186653  57.0727921  40.4314690  34.1397438  58.9976273
  40.5060463  35.3441505  58.8015862  40.7473984  33.5879898  60.0899239
  36.5737267  35.2012901  56.9944649  36.7127533  36.4557457  56.8308449
  35.5951576  34.5218925  56.4267807  35.4090958  33.5446358  56.6012688
  34.6091309  35.2115593  55.5920486  34.9894218  36.0816689  55.0568886
  34.0634193  34.2043953  54.5456734  33.4776115  33.4410095  55.0577011
  33.4171753  34.7261925  53.8398438  35.1737823  33.7747421  53.6470108
  35.6029472  34.4501953  52.7413559  35.7076263  32.6062431  53.9164009
  36.3998985  32.2180328  53.2917786  35.4438400  32.1088676  54.7549400
  33.5347710  35.9013977  56.4203644  32.5471764  36.3202705  55.8346519
  33.5109329  35.6863747  57.7129478  34.2346649  35.0725365  58.0586586
  32.5297470  36.2251663  58.7513885  32.9113197  35.7918358  59.6759033
  32.8120117  37.7049522  58.9360313  32.7877579  38.2134132  57.9721947
  32.0998840  38.1083984  59.6558990  34.2270660  38.0501671  59.4167862
  34.6434517  37.7541084  60.7094116  34.1101875  37.0511436  61.2009087
  35.7926559  38.3607559  60.9603004  36.3846855  38.1772766  61.8447418
  36.1417465  39.0935631  59.8503799  36.8099136  39.8509407  59.8450890
  35.0906754  38.9883118  58.9243584  34.9122391  39.5323944  58.0086403
  31.0648079  35.7937813  58.5242195  30.1165123  36.4769135  58.8957520
  30.8676910  34.6651802  57.8709793  31.6325779  34.0075340  57.8204956
  29.5736656  34.2569427  57.3047295  29.1653271  34.9334526  56.5539360
  29.7922840  32.9116592  56.4371338  29.9158058  32.0922203  57.1452103
  28.5375614  32.6077461  55.6407127  28.5095863  33.1358757  54.6876144
  28.4806824  31.5428886  55.4149971  27.6384869  32.8487167  56.2078972
  30.8601933  32.9805222  55.6064148  30.6929684  33.7069359  55.0014687
  28.5468521  34.0126991  58.3745003  28.6593208  33.0981445  59.2129135
  27.4022369  34.7733345  58.2180939  27.3760872  35.4136314  57.4374313
  26.1631126  34.6795273  58.9652557  26.3990917  34.4564934  60.0057716
  25.3494072  35.9917984  58.7648277  26.0141029  36.8513947  58.8507080
  24.9497395  35.9609146  57.7512131  24.2097816  36.2926178  59.7075996
  23.5981960  35.3910637  59.6720695  24.5816650  36.3791313  60.7285385
  23.3138599  37.5349083  59.3414688  23.0536060  37.3906097  58.2928772
  22.3425083  37.5088997  59.8353310  24.0191612  38.9147568  59.4747543
  24.1377697  39.1335640  60.5359573  25.0563583  38.7845116  59.1659431
  23.3100796  39.9629326  58.7262383  23.9110260  40.7661781  58.8435440
  23.2774830  39.8411980  57.7241287  22.4065742  40.1186981  59.1499329
  25.3786621  33.4551926  58.4244118  25.5187683  33.2728081  57.2240677
  24.6065407  32.6117706  59.1242828  24.5991020  32.4255562  60.5501442
  23.5881958  32.6868782  60.8629990  25.3204231  33.0619850  61.0627403
  24.7975750  30.9170303  60.8375626  24.5201893  30.7675285  61.8810234
  25.7791691  30.4651413  60.6948433  23.7632408  30.3890266  59.8192520
  22.7294674  30.6080894  60.0865173  23.9106140  29.3334122  59.5910835
  24.0878410  31.3519421  58.5950089  24.9134827  30.8453617  58.0952187
  22.8498821  31.5778389  57.6722527  22.6269703  30.8440914  56.6851654
  22.1496048  32.7258072  57.8975945  22.4361343  33.2597694  58.7056084
  21.0864983  33.1860771  57.0455856  20.3884869  32.3568878  56.9301453
  20.3945332  34.3406601  57.8409500  20.6069241  34.1570435  58.8941727
  20.8511276  35.2887344  57.5567474  18.8628864  34.3700333  57.5956268
  18.5916100  33.9548111  56.6250076  18.3093319  33.6863441  58.2392464
  18.2312508  35.7726822  57.5626717  17.1087475  35.9921913  57.1319809
  18.9479485  36.7455025  57.8769150  21.4822540  33.8242188  55.6616821
  20.6556568  33.7917671  54.7591934  22.7829933  34.1936607  55.4654198
  23.4450169  34.1591797  56.2274170  23.2407589  34.6756744  54.1952057
  22.5150032  35.2340317  53.6039200  24.4012070  35.6847916  54.4131355
  25.1947079  35.1817894  54.9658089  24.8134022  35.8253059  53.4139061
  24.0646858  37.0893402  54.9906578  25.0559082  37.8353615  55.4152527
  22.8551083  37.4526291  54.9934654  23.8311882  33.5220070  53.2841721
  24.0219574  33.7656822  52.0854874  23.8383255  32.2711067  53.7828751
  23.7869701  32.1535873  54.7847023  24.1000843  31.0345612  52.9972534
  24.9114857  31.2118263  52.2913437  24.4427662  29.8621445  53.8905945
  23.5488071  29.4641228  54.3707161  24.9912071  28.7412548  53.0072746
  25.6305370  29.1687469  52.2348671  25.5747147  28.0495663  53.6148834
  24.0870037  28.2901878  52.5985527  25.5186806  30.2220421  54.9575348
  26.2601166  30.9084015  54.5485382  25.0336800  30.7218170  55.7960434
  25.9223900  29.2662010  55.2914162  22.8412094  30.7307739  52.1450768
  21.7403107  30.5861397  52.6835213  23.0003510  30.4774513  50.8307114
  23.9172573  30.5938416  50.4234848  22.0478840  29.8228703  49.9339828
  21.0265484  30.2035770  49.9399109  22.5795231  30.0970020  48.4912415
  23.5793800  29.6630764  48.5009651  21.8234177  29.3947487  47.3488121
  20.9320488  29.9631920  47.0834122  22.3771801  29.4942093  46.4152374
  21.6518402  28.3283710  47.4954453  22.6945076  31.5871639  48.2306366
  21.8418617  32.1741829  48.5719604  23.4320469  32.0988312  48.8489647
  22.8890896  31.7529316  47.1710281  21.9679928  28.2959995  50.1648254
  20.8629818  27.7681293  50.5042000  23.1046276  27.6093082  49.9825287
  23.9285107  28.1444454  49.7481232  23.3345737  26.1219845  50.1370430
  22.9584789  25.6667252  51.0532265  22.6205139  25.3336048  48.9417648
  22.5789089  24.3148365  49.3270988  21.6033478  25.6877327  48.7742348
  23.2905865  25.5051346  47.5495644  23.9517574  26.3717098  47.5500603
  24.0480175  24.7397366  47.3805618  22.3566418  25.6646328  46.3515358
  21.1346588  25.5919514  46.3933258  22.9360104  25.7206974  45.1882858
  23.9320946  25.7873669  45.0350838  22.2824783  25.8667717  44.4322052
  24.8606701  25.8127346  50.0743599  25.6085510  26.7144470  49.7757416
  25.2254009  24.5559731  50.3621712  24.5459061  23.8405380  50.5778923
  26.6332569  24.0909252  50.4215088  27.2192326  24.7689667  49.8010292
  27.1594391  24.2977123  51.8444939  28.2039642  24.0112629  51.7219543
  27.1954308  25.3757133  52.0017128  26.5360661  23.3777447  52.8599777
  25.4896107  23.2734547  52.5733528  27.0734882  22.4308033  52.8091774
  26.5642147  24.0627308  54.5220642  28.3442860  24.0729637  54.8610458
  28.5122185  24.1668224  55.9339333  28.8117294  23.1605358  54.4908142
  28.7634144  24.9853325  54.4367638  26.8332424  22.6340294  49.9454689
  26.1821709  21.7413960  50.4567108  27.8209267  22.4198532  49.0211868
  28.2566700  23.2322178  48.6085205  28.2079163  21.2044811  48.3569107
  27.4377441  20.4542084  48.5358658  28.5128593  21.5121250  46.8408928
  27.6169033  21.7583599  46.2710381  28.9952145  22.4774189  46.6871300
  29.3346062  20.5687256  45.9692230  28.7575474  19.6467953  45.8974724
  29.3577328  21.0005112  44.4416656  29.5352592  20.1389675  43.7979813
  28.3829956  21.3584232  44.1101723  30.1543007  21.6886101  44.1586533
  30.7082386  20.0668049  46.4421272  31.3204498  20.9351273  46.6856728
  30.6823101  19.3437824  47.2573967  31.2735977  19.5947418  45.6386223
  29.4477806  20.7513065  49.1219482  30.3863316  21.5538769  49.2170410
  29.6956596  19.5102024  49.5840683  28.8805256  18.9323921  49.7317047
  30.9819088  18.9347553  50.0447884  31.7717304  19.6751671  49.9180069
  30.8421726  18.5532837  51.5283356  30.0729733  17.7892265  51.6407967
  31.7979374  18.0907631  51.7746849  30.6266441  19.7480316  52.5541458
  31.2115803  20.5401688  52.0867386  29.1874428  20.2093315  52.7852402
  28.6433258  20.4465256  51.8710327  28.6832809  19.3848400  53.2893600
  29.1751804  21.1110668  53.3974686  31.3651218  19.3992023  53.8376999
  31.0961990  20.1545296  54.5761185  30.8275700  18.5526104  54.2648087
  32.4289055  19.1858692  53.7329979  31.4135075  17.7093639  49.2482414
  30.6182175  17.0815392  48.5238533  32.6889114  17.2468662  49.3427658
  33.3995094  17.6295052  49.9500008  33.1481667  15.9966059  48.7188110
  32.3195992  15.2900925  48.6696014  33.5375595  16.3054790  47.2635384
  33.5704231  15.3017826  46.8397255  32.7257118  16.8128033  46.7423592
  34.7474289  16.9359055  47.0369606  35.0111122  16.8118267  46.1222572
  34.3155975  15.3774405  49.4612656  34.8170242  15.9755859  50.4001312
  34.6898651  14.1557922  49.0039749  34.1882896  13.6192074  48.3107262
  35.8364220  13.4580135  49.5406380  36.5694733  14.1613159  49.9357338
  35.3888130  12.7036495  50.8012276  35.0199966  13.4667187  51.4866562
  34.6359024  11.9989071  50.4482841  36.1907654  12.1379690  51.2755470
  36.4015350  12.3520527  48.5391235  35.6390800  11.8904028  47.6622963
  37.6398506  11.9492893  48.5452080  38.2125473  12.1983414  49.3389893
  38.2402687  10.9885368  47.5851173  38.0829048  11.3073406  46.5547295
  39.7523384  11.0144958  47.8168640  40.1339455  10.0886288  47.3864632
  40.3770142  12.2247868  47.0991020  40.1000214  12.1603060  46.0468597
  40.0330696  13.1664286  47.5270195  41.4635468  12.1885786  47.1781273
  40.1366692  11.2276630  49.1641273  40.2171402  10.3379765  49.5156708
  37.6544495   9.5838261  47.9059105  37.3906441   9.2751894  49.1111450
  37.5900536   8.6787424  46.9091415  37.9861603   8.8474550  45.5370636
  39.0314293   9.1564255  45.5298004  37.3203812   9.5116320  44.9859695
  37.8526917   7.4374118  44.8564301  38.7920647   6.9564829  45.1291695
  37.7741318   7.5065622  43.7714653  36.6829567   6.8415089  45.6192856
  36.6333809   5.7531362  45.5862923  35.7866821   7.2479491  45.1506729
  37.0020103   7.3840318  47.0558052  36.0826759   7.4878373  47.6321297
  37.8534279   6.4208508  47.9041405  37.2588234   5.3949704  48.2185555
  39.0493927   6.6847153  48.3980560  39.3081322   7.6560040  48.2993050
  39.6394424   5.8755689  49.5100861  39.6164436   4.8145113  49.2616348
  41.0677414   6.3805432  49.6429405  41.6667404   6.0417957  50.4882507
  41.6256790   6.0094185  48.7832451  41.2301331   7.8602557  49.5459404
  42.3556671   8.3211765  49.3571014  40.2866325   8.6470938  49.6000061
  38.9796982   6.0156298  50.8626366  38.9414368   5.0186105  51.5765038
  38.3751831   7.1354847  51.2277527  38.3358078   7.8609061  50.5261002
  37.5659027   7.3630395  52.5390129  38.0749130   6.8142743  53.3313942
  37.5179253   8.9123402  52.6400604  36.9995003   9.3034363  51.7646255
  36.7330475   9.0782261  53.3780022  38.8702164   9.7275229  52.8375969
  39.3967285   9.6361933  51.8875732  38.5916290  11.1720085  53.0677986
  38.5581970  11.5716591  52.0542603  37.6190147  11.4428377  53.4786186
  39.3541679  11.6974239  53.6427574  39.6892815   9.1549206  54.0419540
  40.6176147   9.7252054  54.0091400  39.1860161   9.4856749  54.9504852
  39.9308090   8.0921698  54.0599709  36.2010002   6.7279410  52.5098495
  35.4181366   6.8509593  51.5940285  35.5922623   6.1012721  53.5672302
  36.1257362   6.1227188  54.4245796  34.3285103   5.3546815  53.5716667
  33.6985512   5.6804986  52.7439613  34.6530838   3.8195996  53.2244530
  35.2084999   3.3131735  54.0138474  33.6965866   3.2989728  53.1779060
  35.4283829   3.5166903  51.9730759  35.0727081   3.7960844  50.7220345
  34.3319092   4.4517593  50.5185394  36.0118523   3.3281085  49.8978615
  35.9035301   3.3710177  48.8241615  37.0201340   2.7667584  50.5860596
  37.8696289   2.3406613  50.2441597  36.7199326   2.9945340  51.9387321
  37.3315125   2.6488206  52.7590065  33.4832726   5.3970256  54.8629875
  32.3560791   5.0200539  54.8366470  34.0301895   5.9116712  55.9181519
  35.0375519   5.8747568  55.9810600  33.3616867   5.9164457  57.2089958
  33.0535965   4.8793797  57.3419418  34.3366852   6.2959476  58.3452301
  35.3476601   5.9203920  58.1871414  34.4471359   7.3713641  58.4844398
  33.8460541   5.9467711  59.2537766  32.0852318   6.8057966  57.2380638
  31.0794258   6.4234033  57.8074265  32.0965233   8.0319014  56.6718407
  33.0202522   8.4142361  56.5281525  31.0147419   8.9807005  56.8828125
  30.0696602   8.4578075  57.0294571  31.2125435   9.7111177  58.2214661
  31.6032448   9.0358973  58.9827385  32.3417091  10.7397623  58.2861137
  33.1258850  10.3668432  57.6272430  31.9171238  11.6372204  57.8362274
  32.6590157  11.0189085  59.2908516  29.9448299  10.3092718  58.6714478
  29.4572067  10.9856215  57.9694023  29.2098732   9.5395746  58.9070435
  30.1608353  10.9317617  59.5397568  30.8601036  10.0351543  55.7721519
  31.8554268  10.3638716  55.1564064  29.6799965  10.4962149  55.4507065
  28.8203144  10.2025843  55.8920975  29.5487404  11.6862202  54.5948029
  30.0829906  11.5079670  53.6615829  28.0277328  11.7403288  54.2511673
  27.4931793  11.8152838  55.1981277  28.0253086  12.6306105  53.6222839
  27.3339577  10.5950279  53.3844414  26.3563843   9.7136812  53.8763733
  26.0344257   9.8454943  54.8988075  26.0186405   8.5905647  53.1031189
  25.3835106   7.8436089  53.5559616  26.5136776   8.4301090  51.8471565
  26.1171875   7.6189466  51.2545166  27.2404823   9.4571314  51.2192726
  27.5433483   9.4494009  50.1826363  27.7624092  10.4577532  52.0319786
  28.5322151  11.1091700  51.6453857  30.0866814  12.9491978  55.3374290
  29.5069389  13.2531805  56.3606339  31.1801319  13.6736879  54.9177704
  31.9279022  13.6079416  53.5861626  31.3227901  13.3175097  52.7273331
  32.7115822  12.8522816  53.6402283  32.4944229  14.9913130  53.3849449
  31.7870579  15.6498270  52.8808708  33.4025650  14.9536247  52.7833099
  32.8279037  15.4679279  54.8038216  32.7714195  16.5561867  54.8283958
  33.8141823  15.2494335  55.2132263  31.6811085  14.8447447  55.6825523
  32.2082787  14.4847059  56.5660477  30.4963627  15.8564148  55.8838425
  30.4937592  16.6391811  56.8031082  29.4885464  15.7672901  55.0034981
  29.6280651  15.1023884  54.2561417  28.2571220  16.5138931  55.2399826
  28.4888191  17.5558281  55.0190811  27.3094158  16.1420784  54.1464462
  26.2824383  16.3350964  54.4565392  27.4413681  16.7151756  53.2287064
  27.3972797  15.0885935  53.8808479  27.6340256  16.3568878  56.5436745
  27.0582943  17.3129711  57.0586357  27.8440762  15.2221012  57.1949539
  28.4856110  14.6138773  56.7064934  27.4208908  14.9761782  58.6458626
  26.3318100  15.0186052  58.6604691  27.7137241  13.5430441  59.0530968
  27.4759560  12.8686419  58.2304497  28.7879829  13.4888325  59.2295418
  27.0558014  13.0197601  60.3560638  27.2216091  13.6170425  61.2526474
  25.9994621  13.1705036  60.1335182  27.4354343  11.5056992  60.6087456
  27.2669811  10.8423929  59.7603645  28.5028763  11.5619450  60.8220673
  26.7435703  11.0001297  61.9164619  27.1041641  11.7076464  62.6631165
  25.6748791  11.0056906  61.7020607  27.1665649   9.6031427  62.2797050
  26.9294167   9.0370798  61.4775620  28.1723232   9.5366154  62.3439827
  26.7083530   9.2475595  63.1065712  27.9389267  16.0398540  59.7000160
  27.3388233  16.2880383  60.8025169  29.0327950  16.7809467  59.3672218
  29.5498199  16.5372181  58.5345268  29.6016140  17.8582592  60.1343384
  29.7174129  17.4782104  61.1493530  30.9234581  18.3509846  59.5439301
  31.1423836  19.2719650  60.0842705  31.6798725  17.5737209  59.6525536
  30.6952267  18.5834732  58.5037575  28.6562290  18.9953423  60.3836861
  28.8189335  19.5506763  61.4427910  27.7886238  19.4432030  59.4103508
  27.7697353  18.9575634  58.5249710  27.1639824  20.7711906  59.5177765
  27.9204674  21.5450497  59.6480789  26.4366608  21.0866470  58.1582146
  25.7288418  20.2640877  58.0557556  25.8404961  22.4722214  58.2120628
  26.5822811  23.2690735  58.2657509  25.2720966  22.6496811  57.2990837
  25.1640129  22.7029190  59.0350151  27.5049019  21.0824699  56.9888420
  28.2637501  21.8500080  57.1409416  28.0106926  20.1169930  57.0003357
  27.1221466  21.2710724  55.9858246  26.1685467  20.8878555  60.6995926
  26.1490726  21.8351269  61.4289589  25.4154339  19.7687664  61.0037003
  25.3774929  18.9985828  60.3514137  24.6583157  19.6042633  62.2697411
  24.0200081  20.4630127  62.4776192  23.6604481  18.4586277  62.2152901
  24.1660576  17.5260143  61.9649086  23.1270046  18.3518486  63.1598206
  22.4903278  18.7047806  61.2237778  22.0019417  19.5741253  61.6640282
  22.9207783  18.8792343  60.2376823  21.4895592  17.5091858  61.3524208
  22.0460033  16.6545029  60.9677238  21.1411495  17.4664745  62.3843536
  20.3356133  17.6012115  60.4103317  20.4118500  17.3563766  59.4334221
  19.2469883  18.2572517  60.6946754  18.9687977  18.6686916  61.9232254
  19.5967350  18.5588875  62.7066422  18.1512909  19.2610512  61.9531021
  18.4102325  18.6322861  59.7433167  17.7020206  19.3127232  59.9789925
  18.5169430  18.3306751  58.7853241  25.4019527  19.5914192  63.6015396
  24.7012405  19.6334133  64.6321030  26.7758999  19.4838200  63.6101570
  27.2105598  19.5319767  62.6997452  27.4962902  19.6579571  64.9324646
  26.8634186  19.3529282  65.7658539  28.8779659  18.9901333  64.9341278
  29.4376965  19.4513874  64.1204605  29.4548130  19.2884121  65.8095551
  28.8147449  17.4708271  64.8428955  28.5698853  17.2642555  63.8010330
  29.7443733  16.9599361  65.0936737  27.8515320  16.9057713  65.8742218
  27.8045063  17.3378010  67.0329132  27.1426220  15.9603767  65.5362625
  27.7928658  21.1272392  65.1491547  28.3367176  21.4654312  66.1521149
  27.3847446  22.1081390  64.2573395  27.0436249  21.7705269  63.3686600
  27.3948231  23.5762424  64.5379639  28.1119919  23.9152966  65.2855072
  27.5997124  24.4046078  63.2315369  26.8545551  24.1574574  62.4753876
  27.3761749  25.4637985  63.3589897  28.9548244  24.1288795  62.5386429
  29.1986618  23.0953503  62.2927513  29.0433617  24.9242134  61.1999626
  29.9701176  24.7119255  60.6668930  28.1506634  24.6358318  60.6449623
  28.9037037  25.9928551  61.3630638  30.1026878  24.5006256  63.4154358
  31.1196384  24.4333248  63.0289230  29.8459110  25.4988251  63.7700691
  30.1499805  23.8290653  64.2726822  26.1046505  24.0632305  65.2033539
  25.0632000  23.4358730  65.0637741  26.2860622  25.2134247  65.8590012
  27.1589184  25.6999741  65.7124023  25.2051411  26.0499725  66.4611282
  24.3872547  25.4202423  66.8112946  25.6771564  26.8882236  67.6719513
  24.8957825  27.5436516  68.0566254  26.0954933  26.2219696  68.4264069
  26.7755604  27.7782307  67.3399582  27.4119453  27.5529442  66.6574173
  24.7379303  27.0355644  65.4348679  25.5516796  27.5968781  64.7128830
  23.4205284  27.1834316  65.3168182  22.8007698  26.7670536  65.9969864
  22.7006149  28.0058422  64.2875290  21.6641903  28.2207718  64.5477753
  23.1110477  29.0132236  64.3570251  22.7163429  27.5879612  62.8413048
  22.2534180  28.3759403  62.0604973  23.2133923  26.3841038  62.5013885
  23.6352692  25.7688026  63.1822166  23.2444859  25.8639450  61.1226273
  22.9935226  26.6827126  60.4482880  24.6709671  25.5353947  60.7142181
  25.1111641  24.9201698  61.4989624  24.6461945  24.9178143  59.8163948
  25.6068916  26.6496983  60.4734116  26.2821331  27.3620815  61.3918037
  26.2496014  27.1618633  62.4525871  27.2486382  28.1624298  60.7444763
  27.7695866  28.8259926  61.2998123  27.1869602  28.0721207  59.3651657
  27.8616390  28.7131557  58.2989426  28.4310722  29.6032143  58.5224190
  27.6749573  28.2432842  56.9612007  28.2642632  28.6664810  56.1611824
  26.7411308  27.2116470  56.8398590  26.5333233  26.7427330  55.8894196
  25.9192905  26.7057076  57.8589134  25.2047749  25.9295483  57.6277313
  26.1409283  27.1438255  59.1728172  22.2018147  24.8405190  60.7907829
  22.1638947  24.3324146  59.7131042  21.3096485  24.5991650  61.7761650
  21.4165211  24.8931522  62.7365036  20.2806129  23.4585552  61.6587486
  20.8417206  22.5764599  61.3502579  19.6745110  23.1361389  63.0109901
  19.1110592  23.9607201  63.4476662  18.9468422  22.3374062  62.8673439
  20.6009274  22.6411724  64.0583801  20.0786972  21.9941406  64.7631683
  21.2799225  21.9371586  63.5773048  21.3879852  23.7051525  64.8951035
  21.5168304  24.8592663  64.5448914  22.0621986  23.3107700  65.9900284
  21.8814831  22.3574200  66.2703323  22.8184757  23.8640385  66.3669128
  19.1910267  23.6871929  60.5889702  18.4485149  22.7009335  60.3175926
  19.0875702  24.8620205  60.0493240  19.6630116  25.6002808  60.4287186
  18.2570686  25.0749474  58.8995438  17.5225430  24.2733173  58.8223495
  17.3431759  26.3703823  59.2119255  18.0085239  27.2337303  59.2054329
  16.6071091  26.4744034  58.4147530  16.5833416  26.2696304  60.5235176
  15.5034122  25.4434261  60.6323051  15.1647587  24.9001999  59.7624664
  14.7485943  25.3832283  61.8481216  13.8987589  24.7167873  61.8422356
  15.0534925  26.2330742  62.9373779  14.2855625  26.1356850  64.0566559
  13.6509638  25.4454479  63.8506012  16.2278976  27.0618439  62.8053818
  16.5731945  27.7430134  63.5690422  16.9542465  27.0270405  61.6595535
  17.8733387  27.5940876  61.6482887  18.9689026  25.2009029  57.5660782
  18.2999325  25.3331776  56.5543251  20.3215389  25.3310966  57.5810471
  20.8580761  25.0633698  58.3937912  21.0463905  25.5473576  56.2829666
  20.5187664  26.3207054  55.7247124  22.4280205  25.9828053  56.4126320
  23.0152225  25.2394238  56.9517784  23.1429329  26.2826900  55.0829773
  22.7164040  27.1753273  54.6254005  24.1392384  26.6531887  55.3242416
  23.2149448  25.4558811  54.3763657  22.5282612  27.3076839  57.2786865
  21.9337044  28.1486664  56.9218292  22.3525295  26.9728355  58.3009834
  23.5732307  27.6177311  57.2826500  20.9759045  24.2023430  55.4077911
  21.0377502  23.0960102  56.0096703  20.7790165  24.2615471  54.0319252
  19.9809456  25.3425312  53.4148560  20.3438721  26.3701630  53.4337883
  18.9448547  25.3489857  53.7533569  19.9517822  25.0097389  52.0032501
  20.9469337  25.2131119  51.6077576  19.1726551  25.4890175  51.4105034
  19.7898426  23.4725552  52.0627861  19.9765148  22.9403934  51.1300163
  18.7500076  23.3401546  52.3616409  20.6594429  23.0654659  53.1733437
  20.2036629  22.2347984  53.7121925  22.0680809  22.6730690  52.6677475
  22.8483829  23.4655190  52.0535164  22.2707024  21.3389626  52.7389870
  21.5832729  20.7235737  53.1498833  23.6117992  20.7155399  52.5718651
  24.2941055  21.4878998  52.2168770  24.1276302  20.1446571  53.9446945
  23.5038471  19.2655277  54.1063232  25.4789028  19.4846840  53.9963837
  26.2545109  20.1280174  53.5808678  25.7275925  19.1852913  55.0145264
  25.4223289  18.4849987  53.5656471  24.0606403  20.9313984  55.2521095
  24.8981209  21.6286640  55.2754478  23.0776157  21.3982716  55.3136902
  24.2173710  20.2833462  56.1144066  23.6109028  19.6458263  51.5188980
  22.5477829  18.9873104  51.4563980  24.6230526  19.4572620  50.6664848
  25.3275547  20.1703606  50.7900429  24.7708492  18.3088474  49.8307266
  24.0560341  17.4999924  49.9820328  24.5732555  18.6327572  48.3396339
  24.4359684  17.6948681  47.8014717  23.2143192  19.3820763  48.1348000
  22.5191441  18.7391720  48.6747208  23.2645721  20.3544369  48.6247940
  22.8627129  19.4209518  47.1038017  25.5762005  19.4168930  47.7935829
  26.0172691  18.8080826  47.1965828  26.2096367  17.7083645  49.9881783
  27.1146679  18.3346176  50.5038681  26.3689442  16.5546188  49.4500237
  25.6612701  16.1386738  48.8615608  27.6736984  15.8781128  49.3881874
  28.4799252  16.6112118  49.3624115  27.8699398  14.9483557  50.5908203
  27.2877655  15.3121099  51.4374962  27.4992332  13.9645729  50.3029861
  29.5556297  14.8789825  51.1340370  29.9964542  14.4015131  49.9667282
  27.7095814  15.1027670  48.0108528  26.7145653  14.5760918  47.5812454
  28.9217014  15.0119781  47.3889275  29.6625957  15.6458435  47.6523514
  29.3033333  14.1711302  46.1887321  28.4860458  13.4606438  46.0648346
  29.3465004  15.0127792  44.9606476  29.5373039  14.4075775  44.0744057
  28.3390789  15.4128342  44.8459511  30.4146194  16.0689468  45.1088028
  30.3529682  16.5977039  46.0599670  31.4136047  15.6617165  45.2646713
  30.3966637  17.3756523  43.8806763  32.2324181  17.5019169  43.6357269
  32.3944054  18.2553444  42.8648758  32.6435165  17.9116173  44.5583572
  32.6139183  16.4938889  43.4731445  30.5950737  13.3597488  46.3721809
  31.3610306  13.7744160  47.2508736  30.8415165  12.3530254  45.5739174
  30.1605682  12.1975365  44.8443756  32.2088051  11.8007221  45.3970146
  32.6949654  11.7957153  46.3725815  31.9736843  10.3856049  44.7968216
  31.3109283   9.7619829  45.3967819  31.5016022  10.4670820  43.8177376
  33.2642860   9.5890999  44.7766342  33.0608864   8.8700075  43.9831390
  34.1294250  10.1288443  44.3915138  33.6789131   8.7608681  46.0752487
  33.1617851   7.7052250  46.1378708  34.2530746   9.2987356  47.1259117
  34.5779266  10.2550430  47.1191101  34.3410072   8.7894688  47.9936790
  33.1063843  12.6931305  44.4510536  32.6325226  13.1864605  43.4593353
  34.3674965  12.9813299  44.8133850  34.8200645  12.5264091  45.5933380
  35.2781601  13.8167477  44.0226974  34.7225647  14.5859842  43.4863319
  36.4512253  14.4766960  44.8297806  36.1015625  14.8106327  45.8066750
  37.2428398  13.7672405  45.0708542  37.1613731  15.6600685  44.0545959
  38.0387535  15.9005280  44.6549988  37.4466591  15.1387463  43.1408463
  36.3225365  16.8711777  43.7921638  36.7004356  17.8662891  43.1542702
  35.2870636  16.9805794  44.5102501  35.8293114  12.9044085  42.8995819
  36.1535797  11.7057314  43.2092972  35.9252930  13.3386116  41.6595192
  35.6073265  14.2789135  41.4728928  36.0963440  12.5843420  40.3956375
  35.2727509  11.8703432  40.3950958  35.8578300  13.4932384  39.2710571
  34.8711624  13.9176054  39.4567986  36.5886574  14.2971535  39.3588715
  36.0237885  12.8672876  37.8859062  37.0579147  12.7933168  37.5494385
  35.7207642  11.8210011  37.9254379  35.1014709  13.5864639  36.5279503
  36.1445007  14.9433966  35.9213257  36.3291359  15.6949320  36.6889229
  37.0592651  14.4834471  35.5474854  35.6512375  15.4761724  35.1083374
  37.3296890  11.6564608  40.3340569  38.4704094  12.0851231  40.6234245
  37.2033463  10.3746347  39.8912544  36.2832870   9.9623251  39.8313484
  38.3116074   9.4196301  40.0729370  38.7478294   9.6392384  41.0474014
  37.7588921   7.9518838  40.0260696  36.7884712   7.8095779  40.5015984
  37.5808830   7.6689396  38.9885941  38.7780952   6.9388356  40.5467262
  39.7515335   7.3268147  41.2350922  38.7581215   5.7494674  40.0968857
  39.3168678   9.6259422  38.9857559  39.0071487   9.5472288  37.7703705
  40.5641174  10.0192347  39.3705978  40.8925133   9.9245358  40.3210144
  41.6806793  10.3597383  38.4370537  41.4706192  10.1379070  37.3907433
  41.8454170  11.9311171  38.3649025  41.6635818  12.3434381  39.3573875
  43.2421989  12.4601765  37.9660072  43.9537773  12.2926493  38.7745209
  43.4841270  12.0162277  37.0003586  43.2411156  13.5498438  37.9390907
  40.7604218  12.5238676  37.4529114  40.8182144  13.6116381  37.4918861
  40.9384651  12.3112783  36.3987732  39.7846870  12.2331362  37.8421631
  42.9788742   9.6313572  38.8414230  43.0931206   9.2126226  39.9843597
  43.8449287   9.3830118  37.8642845  43.4704781   9.3622999  36.9264908
  45.2492218   8.9464512  37.9832649  45.2409935   8.1901255  38.7681274
  45.8320885   8.4314947  36.7490120  45.1455612   7.6859698  36.3477974
  46.0292206   9.5466557  35.7271194  45.2468147  10.3053446  35.7449265
  46.9668312  10.0382805  35.9865303  46.0357628   9.1572819  34.7090607
  47.1403770   7.8394356  36.8491364  47.1015205   7.1163626  36.2188568
  46.1648407  10.0221014  38.6176643  46.1076279  11.2049999  38.2347679
  46.9583092   9.6397467  39.6442566  47.0662041   8.6485386  39.8053894
  47.9828720  10.4767714  40.3110352  48.6401596   9.9083490  40.9690361
  48.6768684  10.9812670  39.6387596  47.3499031  11.5087690  41.2504158
  48.0098038  12.4914179  41.5814781  46.1315613  11.2490501  41.7386742
  45.5974007  10.4198866  41.5212784  45.4168472  12.1131878  42.6652679
  45.7038918  13.1295366  42.3955650  44.3388901  11.9914761  42.5589867
  45.7644920  12.1071692  44.1315384  46.1621056  11.0917988  44.6853600
  45.5903358  13.2758646  44.7234573  45.3055229  14.0011778  44.0808830
  45.8755951  13.5397301  46.1482315  46.8633537  13.0976868  46.2787590
  45.9064484  15.0476189  46.4455490  46.7574081  15.4348564  45.8851738
  44.9615173  15.5061235  46.1540260  46.1240845  15.4615030  47.9208870
  45.4475403  14.8283920  48.4949608  47.5594978  15.2511806  48.4560318
  47.8163834  14.1942921  48.3845863  48.1904602  15.8741398  47.8220711
  47.6734581  15.6395655  49.4680939  45.6816673  16.8894691  48.0982437
  45.5951576  17.0410728  49.1741753  46.4166527  17.4653015  47.5358276
  44.6648102  16.9423180  47.7092628  44.8898544  12.8061457  47.0369225
  43.6999817  13.2226887  47.3537521  45.3453140  11.6893597  47.5954742
  46.2686005  11.3736401  47.3347702  44.6367149  10.7110329  48.4181328
  43.7681007  10.3279104  47.8825684  45.5862694   9.5194979  48.5811806
  46.5153122   9.8540506  49.0427589  45.1378403   8.8409777  49.3068695
  45.8504066   8.7701626  47.2381897  44.9386330   8.7954426  46.6414223
  46.6196404   9.3521605  46.7305946  46.3819046   7.3961377  47.4675789
  47.2994308   7.5567074  48.0336761  45.7722015   6.7451143  48.0941086
  46.6753693   6.7805066  46.1117706  45.7776031   6.3044982  45.7173996
  46.9914894   7.4868360  45.3441353  47.7795601   5.7484150  46.3240852
  48.5942116   6.1874423  46.7286758  47.3778915   4.9430709  46.7825470
  48.0151405   5.4772677  45.3801155  44.2192879  11.2635632  49.8155212
  44.9100342  12.1374111  50.3988571  43.1056976  10.7635469  50.3385162
  42.7270775  10.0104876  49.7820549  42.4001198  11.0623751  51.5659370
  41.4077415  10.6153164  51.5074196  43.1441498  10.4140387  52.7683296
  44.1333199  10.8621616  52.8622780  42.5908585  10.5980625  53.6892586
  43.4253769   8.8512526  52.7822609  42.5435219   8.2801304  52.4920044
  44.1117516   8.6447115  51.9610825  44.0835838   8.4598570  54.0710678
  45.0995407   8.8493385  54.1361618  43.5887833   8.9880190  54.8861275
  44.1592712   6.9758401  54.3975410  44.5816956   6.8888474  55.3985863
  43.1648903   6.5321741  54.4471970  44.9309235   6.3186889  53.3727264
  44.4266205   6.2552071  52.4999428  45.8376923   6.7479935  53.2562485
  45.1069069   5.3799305  53.7011490  42.0907974  12.5624599  51.7713585
  42.2804184  13.0411043  52.8538399  41.6263351  13.2972288  50.7810173
  41.5005684  12.8478498  49.8852806  41.1772804  14.6634512  50.8131065
  41.6794739  15.2035589  51.6157188  41.6330452  15.3282766  49.5052986
  42.6266594  14.9420109  49.2780762  41.0191040  14.8990326  48.7135086
  41.5846138  17.1517563  49.7942238  42.8630638  17.2383156  50.1723366
  39.6169739  14.8131561  50.9289093  38.8778954  13.9521389  50.4942894
  39.1714935  15.8609791  51.6375351  39.9303932  16.4413376  51.9651794
  37.8041649  16.3219261  51.9293709  37.1313171  15.6727514  51.3690605
  37.5113029  16.2046261  53.4660873  38.3117485  16.6810665  54.0321236
  36.1616669  16.8441429  53.9140778  36.2057762  17.9268265  53.7959785
  35.3045158  16.4652138  53.3574791  36.0204163  16.5438232  54.9523239
  37.5513115  14.7677097  53.8628082  36.6292381  14.3496914  54.2667160
  37.8924599  14.2310562  52.9775238  38.5175667  14.3644876  54.9366531
  38.4884529  15.1206732  55.7211571  38.2090874  13.3620386  55.2333679
  39.5310516  14.3670492  54.5354881  37.7038689  17.7578716  51.4112206
  38.7193184  18.4652061  51.3829193  36.4876518  18.3167439  51.1180954
  35.7089119  17.6773663  51.1878090  36.3087654  19.5909729  50.3785858
  37.1317024  20.2441158  50.6688995  36.3494225  19.4896011  48.8624649
  35.7106705  18.7005806  48.4655495  36.0589256  20.4256401  48.3854485
  37.6478691  18.9712906  48.2729874  38.3855667  19.7564468  48.4386215
  37.8965797  18.0191917  48.7417603  37.6004982  18.7017365  46.7648926
  37.0091934  17.7861767  46.7504463  37.0778389  19.5488243  46.3206253
  38.9495735  18.7392445  46.1078873  39.3739662  19.5721970  45.7255478
  39.7312737  17.7194290  46.1019173  39.4839249  16.5724926  46.7333069
  38.7266579  16.4843369  47.3957863  40.2431602  15.9164314  46.8483963
  40.9068947  17.7658463  45.4441147  41.1484680  18.5096493  44.8049736
  41.5061913  16.9536724  45.4077644  34.9230576  20.2105808  50.6250000
  34.0174026  19.4783936  50.9806404  34.8134270  21.5099125  50.4556389
  35.6441994  22.0639000  50.3039360  33.5231018  22.1906948  50.2808304
  32.7448921  21.4905148  49.9771233  33.1247826  22.7320290  51.6457291
  33.1267967  21.8982105  52.3477554  34.0543976  23.8823166  52.2416458
  34.0367928  24.6403027  51.4585419  33.6393852  24.2614307  53.1755295
  35.0654755  23.4894028  52.3485870  31.6245003  23.1588459  51.7540245
  31.3712063  23.3140965  52.8027496  31.4759121  24.0367775  51.1253242
  30.9307175  22.4473972  51.3061371  33.5014000  23.1889019  49.0564270
  34.5518875  23.7469559  48.7330055  32.2507973  23.4852581  48.5370941
  31.4903011  22.9793549  48.9681435  31.8491592  24.6591949  47.7643776
  32.6140518  25.4187889  47.9258003  31.7586174  24.4334660  46.2069130
  32.6471939  23.8821545  45.8993568  30.8732986  23.8283653  46.0115585
  31.5416546  25.7430477  45.3879776  30.4702339  25.9200306  45.2939796
  31.9784031  26.5139771  46.0228195  32.4196205  25.6863213  43.8182030
  31.3602009  24.4845600  42.9649544  30.3030720  24.7499199  42.9779091
  31.7273426  24.3349972  41.9496002  31.3862648  23.4990082  43.4298248
  30.5332451  25.3128910  48.2661209  29.4746780  24.7582951  48.1642990
  30.6298790  26.4310932  48.9576378  31.5292530  26.8887463  48.9997864
  29.6095772  27.0192184  49.8058167  28.6863651  26.4476318  49.9010620
  30.1449089  27.1656857  51.2912216  30.2792244  26.2016907  51.7819099
  31.0721512  27.7378006  51.3231049  29.0869465  27.9043007  52.0451279
  29.1479282  28.9367275  51.7009277  28.0781364  27.5108032  51.9203796
  29.3905163  27.6457825  53.8502121  30.4123459  29.0786171  54.2315445
  31.3980198  29.0320988  53.7685242  29.9163361  29.9819927  53.8765945
  30.4305058  29.0873528  55.3213577  29.0508900  28.2974339  49.2860832
  29.7583008  29.2544079  49.2892075  27.7711258  28.3863850  48.7914886
  27.1680164  27.5793343  48.8623962  27.1897621  29.5839539  48.1994781
  28.0098133  30.1193333  47.7209511  26.3247719  29.1993732  46.8906479
  25.3403187  28.7929821  47.1225891  25.9700451  30.3633995  46.0437202
  25.0920944  30.9185066  46.3741035  26.7241936  31.1329994  45.8791733
  25.7097359  29.9105701  45.0870132  27.0533314  28.2878113  46.0732689
  27.1812477  27.5731430  46.7013512  26.4460907  30.6107025  49.0521202
  25.4126930  30.2487888  49.6428833  27.0021191  31.8138351  49.0985718
  27.9176464  31.9546089  48.6959648  26.6783886  32.8840866  50.1512756
  25.7389431  32.5803223  50.6130867  27.7979488  32.8788719  51.1952896
  27.4761734  33.4139709  52.0887299  28.0993748  31.4383316  51.7398758
  28.4521446  31.4283657  52.7711639  27.2089119  30.8103447  51.7682991
  28.7045479  30.8490868  51.0509224  29.2292671  33.4266357  50.8478851
  29.1529255  34.4601593  50.5100899  29.8250656  33.5171089  51.7561493
  29.6518707  32.7642708  50.0923843  26.5319443  34.2547569  49.4285812
  27.0989990  34.5048447  48.3835030  25.6020584  35.0456314  49.9562035
  25.0042706  34.6625290  50.6745262  25.2715588  36.3982162  49.6242599
  25.3576546  36.5362854  48.5464706  23.7868977  36.5921593  50.0811272
  23.1942997  35.8267975  49.5799789  23.5829277  36.5376587  51.1504860
  23.2962246  38.0228348  49.5634804  23.4551544  38.8422203  50.2645149
  23.8174591  38.3637352  48.6689415  21.8764286  37.9814987  49.1822548
  21.5925350  37.7049599  48.0245590  20.9666920  38.0396614  50.1127968
  21.1757622  38.0033379  51.1002541  20.0161324  37.9466667  49.7843361
  26.2103291  37.3640480  50.3897324  26.4589500  37.2276497  51.5818977
  26.8185368  38.3085136  49.6535034  26.7118034  38.1933441  48.6557846
  28.0420704  39.0518379  50.1120224  27.8008003  39.4949875  51.0782089
  29.2181168  38.1109695  50.1788673  28.9788494  37.3000412  50.8667946
  29.6181374  37.5301781  48.8219376  28.6565132  37.2826805  48.3723526
  30.1074295  38.3095131  48.2377014  30.2163696  36.6220894  48.8967743
  30.3593216  38.8874855  50.6791954  30.8577785  38.2669220  51.2158928
  28.2686939  40.2867699  49.2131538  27.7754345  40.3101349  48.0784950
  28.8935928  41.3444061  49.6837959  29.1518059  41.2927818  50.6588631
  29.2031174  42.5485268  48.9193420  28.5453968  42.6516609  48.0562820
  29.0870380  43.7891006  49.8060989  29.1281357  43.5851974  50.8760681
  29.9239693  44.4024353  49.4722176  27.8780994  44.5973701  49.6418266
  27.6260681  45.5600586  50.3800430  27.0986214  44.3018799  48.6971436
  30.6595650  42.3980141  48.3304749  31.1233215  43.1673126  47.5563965
  31.3738670  41.3478622  48.8301849  30.8842373  40.7469063  49.4776535
  32.7802277  41.1914444  48.6493454  33.2634125  42.1568298  48.7998962
  33.4728394  40.2761345  49.7655296  33.1705284  39.2296181  49.7265091
  34.9906578  40.3258476  49.4976692  35.5285072  41.2700081  49.5835800
  35.4395523  39.7612457  50.3148689  35.2898750  39.8108711  48.5847855
  33.1420441  40.7688217  51.1673927  32.0522194  40.7857208  51.1773949
  33.4572716  40.0385323  51.9126549  33.4726982  41.7642021  51.4640198
  33.1450615  40.6219597  47.2047844  32.6873779  39.5401993  46.8778839
  34.0413551  41.3171158  46.4600601  34.5225410  42.6849747  46.6610527
  35.3448219  42.6554375  47.3759537  33.7992592  43.3908691  47.0693207
  35.0169449  43.1593208  45.3444138  35.8707390  43.8368797  45.3513374
  34.2029648  43.6767731  44.8366890  35.4497528  41.8590965  44.6243896
  36.4581604  41.6481400  44.9803543  35.5257072  41.9111290  43.5382805
  34.4789543  40.8979149  45.1288338  33.6212158  40.8624153  44.4571762
  35.0677261  39.4588089  45.0635757  35.7612076  39.0288734  45.9395142
  34.9166107  38.7940445  43.9276237  34.4348373  39.3098640  43.2051811
  35.3627510  37.4167747  43.6325531  34.7084427  36.8171272  44.2653275
  35.1362152  37.1762009  42.0981445  34.2529945  37.7150192  41.7550774
  35.9282913  37.7128983  41.5759621  35.2451859  35.7247200  41.6037254
  36.2716942  35.3787994  41.7250328  34.5032387  35.0933495  42.0925903
  34.9430008  35.5919914  40.1102028  35.5584793  36.1340714  39.1887093
  33.8971901  34.9015274  39.7387047  33.2939949  34.5129433  40.4495163
  33.5836716  34.9042854  38.7786026  36.8047066  37.0759087  44.0615654
  36.9775200  36.1814575  44.8524628  37.8075981  37.9467773  43.7256432
  37.5555840  38.7557716  43.1759949  39.2134972  37.7556534  44.1224213
  39.3677864  36.6940918  44.3157730  40.0317917  38.3052864  42.9341660
  41.0462494  37.9578781  43.1298065  39.7014427  37.8749657  41.9887581
  40.0552406  39.8006973  42.7673225  41.0546455  40.3250809  42.0632477
  39.0507278  40.4613419  43.1104584  39.5350800  38.3000946  45.4979935
  40.7380409  38.3366241  45.9233017  38.4972725  38.7453423  46.2725868
  37.6162262  38.5467796  45.8204498  38.6666489  39.2085228  47.6589928
  39.7171516  39.1440201  47.9425125  38.0909233  40.5863914  47.7762222
  37.0826950  40.6382141  47.3652649  38.1612587  40.8911896  48.8203735
  38.9329491  41.5528679  46.9026222  39.9291763  41.5635033  47.3447990
  39.0164795  41.3067474  45.8440590  38.4124908  42.9719200  47.0496063
  38.0451317  43.5071945  48.0697021  38.3096504  43.7021675  45.9101143
  38.5793304  43.3405266  45.0064621  37.9732208  44.6473732  46.0263138
  38.0207863  38.2701530  48.6903992  38.2200775  38.3156776  49.8993378
  37.2491074  37.2433510  48.2109528  36.8496208  37.4366417  47.3036766
  36.7149696  36.0533600  48.9446754  36.1205330  36.4558449  49.7648849
  35.7485275  35.1782379  48.0973854  36.1737251  35.1235313  47.0952263
  35.8624763  33.7032776  48.5781898  35.0592842  33.1106071  48.1403198
  36.8343964  33.3431320  48.2408943  35.8185387  33.5020447  49.6485519
  34.2702827  35.5772057  48.0010567  34.1573601  36.4230270  47.3228722
  33.7540283  34.7497787  47.5142860  33.4916801  36.0218391  49.2457237
  33.7369804  37.0468712  49.5236359  32.4592018  35.9665146  48.9007263
  33.6438179  35.3340874  50.0775566  38.0203629  35.3269196  49.4617729
  38.8899803  34.9021645  48.6460838  38.0619278  35.0029068  50.7416687
  37.3282166  35.2275848  51.3983917  39.1132393  34.1379662  51.3046837
  40.0022049  34.3773766  50.7211380  39.2879601  34.6543274  52.7415352
  38.4035683  34.6306114  53.3782349  39.9409409  33.8992386  53.1792145
  40.0348091  35.9773064  52.8518333  41.0152283  35.7282829  52.4458008
  39.5416603  36.8087502  52.3482437  40.2285156  36.4515152  54.3035393
  39.2198715  36.5939713  54.6914062  40.6952782  35.6134338  54.8210869
  40.9125137  37.7434998  54.5262070  40.3734627  38.5969582  54.4925919
  42.2009277  37.7818565  54.5432663  42.9123306  36.6941032  54.5838280
  43.9035492  36.7936134  54.4174614  42.3946266  35.8563576  54.3596268
  42.8796387  38.8616600  54.6193962  43.8151855  39.0260086  54.9626770
  42.3885803  39.7002945  54.3443375  38.6324043  32.6287994  51.2231560
  37.7781143  32.1634750  51.9951859  39.1578064  31.8425808  50.2515907
  39.8054581  32.2740479  49.6077881  39.1010857  30.3481884  50.3218231
  38.0824013  30.0824966  50.6042976  39.3054047  29.7545090  48.8275223
  40.3628693  29.8721142  48.5908012  39.0173836  28.7046261  48.8812828
  38.4761543  30.3978291  47.7222595  37.0578613  30.3343849  47.7033081
  36.7562332  31.0822315  46.6808662  35.7157440  31.2378654  46.4368286
  37.8167572  31.7005692  46.0838661  37.7879410  32.4371262  45.3933907
  39.0046616  31.2412090  46.7068291  40.0108719  31.6334362  46.6971283
  40.1013870  29.6905880  51.3010788  41.1822586  30.1962700  51.5290031
  39.6636696  28.6030006  51.9742470  38.7473869  28.2338352  51.7639122
  40.4793091  27.9754868  53.0238380  41.3907814  28.5520573  53.1815948
  39.7294731  27.9504414  54.3480339  38.9753838  27.1637917  54.3228188
  40.6410866  27.4188290  55.4160385  41.3439789  28.1864891  55.7396660
  40.0464668  26.9965801  56.2261238  41.3181534  26.6424370  55.0598145
  39.2691689  29.3482018  54.7967072  38.9996071  29.3444309  55.8528442
  40.0210800  30.1320515  54.7055550  38.4201927  29.7947502  54.2790833
  41.0176849  26.6232719  52.5318375  40.2099762  25.7221394  52.3191261
  42.3274651  26.3963566  52.5516891  42.9024773  27.1386223  52.9238510
  43.0161171  25.1346588  52.1243248  42.2467270  24.3629818  52.0988045
  43.6262512  25.3440361  50.7013512  43.9080734  26.3932724  50.6131363
  44.5692902  24.7976437  50.6860886  42.7113647  25.1903915  49.5020981
  41.7838058  26.1676521  49.1517563  41.7651482  27.0150299  49.8210869
  40.9287148  26.0300694  48.0284576  40.1459351  26.7613888  47.8912506
  41.0502434  24.8751392  47.2708397  40.0967255  24.6133213  46.3052368
  40.3289604  23.8240280  45.8105812  42.1258736  23.9846077  47.4659500
  42.2339897  23.2077637  46.7235031  42.9671135  24.1258583  48.5767250
  43.8325310  23.5117702  48.7775917  44.0916176  24.8169765  53.1637077
  45.0923615  25.4838581  53.2576027  43.9425087  23.6664886  53.8363609
  43.2281342  23.0167789  53.5403023  44.7258949  23.3270111  54.9767494
  45.4805489  24.0480309  55.2909622  43.7621193  23.0440826  56.1596909
  43.2150688  22.1236248  55.9557533  44.4465942  22.7880306  56.9684181
  42.7975006  24.1707458  56.6038666  42.2193031  24.5412388  55.7573891
  41.7666550  23.5154190  57.5905991  41.3157921  22.6651783  57.0788269
  42.2480812  23.2623272  58.5352058  41.0314140  24.2791004  57.8441887
  43.4928551  25.3455448  57.2511864  44.2888985  25.0448532  57.9323692
  44.0040016  25.7855034  56.3948784  42.7912941  25.9420490  57.8343620
  45.5797272  22.0831718  54.7519531  45.2516556  21.3203602  53.7626686
  46.4916649  21.7493362  55.6212006  46.4833107  22.3216438  56.4533615
  47.1946068  20.4520645  55.7525711  47.9514084  20.5577507  56.5298615
  46.0872574  19.4332352  56.2832985  45.2705727  19.4275475  55.5614357
  46.5765038  18.4592075  56.2862206  45.2691422  19.5718079  57.6155396
  44.6349182  20.4569340  57.6646309  44.5636597  18.7428436  57.6722260
  46.2165070  19.6951542  58.9184799  45.5712624  19.8929520  60.0194054
  47.4887123  19.6536579  58.8537140  47.9237061  20.1119556  54.4264832
  48.6645622  20.9673061  53.8585052  47.8003273  18.8883495  53.9205208
  47.1393394  18.2992115  54.4064293  48.4118080  18.4280949  52.6837387
  49.3449211  18.9765759  52.5550117  48.8030319  16.9510174  52.9028702
  47.9228897  16.3468781  53.1230202  49.0428619  16.6472607  51.8838921
  49.9320793  16.6824818  53.8707352  50.6725502  17.4505959  53.6475563
  49.5243073  16.9758663  54.8380737  50.4814072  15.3301830  53.8051796
  49.6826591  14.6255112  54.0365562  50.8305244  15.1853352  52.7828102
  51.6169472  15.1376286  54.8376884  52.3402939  15.9398632  54.6917686
  51.0901718  15.2908039  55.7795715  52.2758026  13.7797642  54.9338226
  51.4712563  13.1859484  55.0759125  52.8528252  13.4600096  54.1690331
  52.8286400  13.5854235  55.7564430  47.6400757  18.8361588  51.3958206
  48.2003708  18.9112110  50.2984047  46.3843384  19.2964554  51.6479263
  46.1065559  19.4939346  52.5986824  45.4777870  19.8595085  50.6667786
  45.5176888  19.2644577  49.7544060  44.0271416  19.7538376  51.0308914
  43.8410034  20.5129776  51.7905960  43.4484901  20.1595554  50.2010384
  43.7944298  18.7286510  51.3188667  45.9528465  21.1804447  50.1715813
  45.5063477  21.6934204  49.1528206  46.9127007  21.8594189  50.8008232
  47.3317566  21.4863300  51.6406441  47.5775719  23.0749092  50.2464790
  46.7430573  23.7701607  50.1553383  48.5967598  23.5759792  51.1701660
  48.1252365  23.7145901  52.1430779  49.7511597  22.5802841  51.3070908
  49.4744186  21.5382519  51.4673500  50.3864403  22.4970455  50.4252815
  50.3184471  22.8979130  52.1819611  49.1971474  24.9825974  50.9302673
  48.3809052  25.7031708  50.8789673  49.8736534  25.2470360  51.7429848
  49.6086922  24.9668884  49.9210663  48.2625427  22.9958534  48.8732452
  48.1932068  23.9131298  47.9890518  48.6969604  21.8015022  48.4998093
  48.5417671  21.0868511  49.1964378  49.2727737  21.5204086  47.2296448
  50.0987129  22.2067051  47.0427475  49.7753334  20.0543461  47.3112106
  50.4220886  19.8553524  48.1657372  48.7010727  19.0482597  47.2798080
  48.3647766  18.9782104  46.2453575  49.2834435  18.1309414  47.3662338
  47.8853073  19.2449055  47.9754791  50.7383804  19.7851658  46.1335068
  51.4113045  20.6402664  46.0696487  51.3684654  18.9049892  46.2614937
  50.2057686  19.7044849  45.1859207  48.3235474  21.6078510  46.0499039
  48.7309151  21.9035816  44.9244957  47.0223579  21.5261803  46.3021584
  46.8439407  21.1835270  47.2353592  45.9537849  21.5954552  45.3126221
  46.1180229  20.7451687  44.6507034  44.5892487  21.5413151  45.9861794
  44.5165672  22.2886314  46.7763290  43.7886696  21.6887722  45.2613144
  44.4036407  20.1264648  46.5376511  45.2753639  19.8563976  47.1336937
  43.1713028  20.2568913  47.4566841  43.0962753  19.3131027  47.9968185
  43.2948723  21.1139412  48.1187248  42.2419930  20.3174095  46.8902740
  44.1024055  19.0900974  45.5102730  43.3443527  19.3977528  44.7899895
  44.9676018  18.9085884  44.8726273  43.8188553  18.1575108  45.9981041
  45.9015923  22.9550285  44.5602951  45.5627937  23.0707588  43.3638878
  46.3223305  24.0346489  45.2585106  46.6011047  23.8651428  46.2143669
  46.2115059  25.3986053  44.8159904  46.2334328  25.5334873  43.7345886
  44.8506622  25.8601952  45.2930565  44.7061996  25.6324787  46.3491669
  44.7550850  26.9436111  45.2210999  43.6524315  25.2963123  44.5162888
  43.6566162  24.2110806  44.6180382  42.7437820  25.5360641  45.0685272
  43.6025276  25.8661861  43.0387611  44.5166855  25.6421032  42.4890251
  42.7964935  25.4080753  42.4655800  43.3790970  27.3440304  43.0285797
  44.2053833  27.8994408  42.8586655  42.3218117  27.9509678  43.5072479
  41.2074318  27.3288212  43.8948250  40.3387337  27.8006649  44.1017838
  41.1491776  26.3635731  43.6032715  42.3331261  29.2428646  43.6494293
  41.5133286  29.5997181  44.1192017  43.1889229  29.6879520  43.3500748
  47.3392372  26.3245029  45.3825836  47.0968399  27.1477985  46.2695351
  48.5775566  26.2850666  44.8134308  49.0528679  25.5405312  43.7288055
  48.9820900  26.0094147  42.7473564  48.5087814  24.5960732  43.7203827
  50.5252762  25.2240524  43.9884720  51.1949806  24.8513355  43.2134361
  50.6787834  24.5291977  44.8141289  50.8990669  26.6437702  44.5128174
  51.0749359  27.2521458  43.6256561  51.8555527  26.6015091  45.0338211
  49.7253876  27.0593815  45.3780022  49.8712463  26.7865734  46.4231834
  49.5301514  28.5320625  45.2760735  50.1071548  29.2743301  46.0551834
  48.6635857  28.9457302  44.3419685  48.2384605  28.2758579  43.7169571
  48.2480202  30.2931442  44.0491905  49.1377792  30.8559895  43.7669907
  47.2840996  30.2598877  42.8251534  47.0272064  31.2915726  42.5848694
  47.6882553  29.9250374  41.8698349  46.0351067  29.4132977  43.0617676
  46.1554718  28.1900024  43.2003479  44.9215698  30.0629082  43.0765419
  47.5120430  30.9288788  45.2519913  47.4139175  32.1245155  45.3604889
  47.1192894  30.1696758  46.2125931  47.2271919  29.1671066  46.1550484
  46.4641151  30.6725655  47.4565163  45.9880295  31.6433735  47.3187714
  45.4194717  29.6356335  47.9309502  45.9689331  28.7091026  48.0974731
  45.0705910  29.9920158  48.9001694  44.2564278  29.4339828  47.0095329
  44.6156311  28.8301411  46.1761932  43.2725182  28.5861607  47.7419853
  43.6233559  27.5547028  47.7751999  42.9509964  29.0371666  48.6807709
  42.3782272  28.5985661  47.1189384  43.5464287  30.7164021  46.5149765
  43.1299248  31.2236099  47.3852425  44.3270073  31.2803555  46.0043373
  42.7562332  30.5051556  45.7945137  47.5185127  30.9472389  48.6112289
  47.3566322  31.8669605  49.4633217  48.6346054  30.2687931  48.6493492
  48.7321129  29.6646442  47.8458595  49.5941925  30.1312256  49.7332840
  49.0109444  29.7660599  50.5786095  50.7375336  29.2190838  49.3633766
  50.3868790  28.2143993  49.1272697  51.3254051  29.6173744  48.5364113
  51.5824928  29.1528206  50.4950256  51.1447754  28.8322220  51.2870026
  50.2448349  31.4493065  50.1629524  50.8877678  32.0993233  49.3036880
  49.9781914  31.9600525  51.3419456  49.6526413  31.4029102  52.1189346
  50.3686714  33.3108253  51.8536224  49.7943611  33.4347305  52.7717285
  51.8626976  33.3681908  52.1959953  52.4278679  33.3258591  51.2649231
  52.1052933  34.2942924  52.7171249  52.4569893  32.2728195  53.1307945
  52.3084335  31.3004684  52.6611519  53.9403496  32.4234009  53.3279076
  54.2233391  31.5929985  53.9747849  54.4488068  32.3144455  52.3699379
  54.3447800  33.2866211  53.8564796  51.7689133  32.3251457  54.4628639
  50.6972847  32.1331558  54.4095078  52.0969696  31.5319347  55.1346512
  52.1223602  33.2167244  54.9808121  49.9727440  34.4514847  50.9066696
  50.6564407  35.4278259  50.6265373  48.8560562  34.2328224  50.1550064
  48.4534302  33.3065948  50.1451721  48.3189545  35.2800255  49.2041473
  49.0406532  35.4144363  48.3984261  47.0273361  34.7727814  48.5872803
  47.2312813  33.7567215  48.2494507  45.8029289  34.6183319  49.5303497
  44.9480705  34.1789627  49.0162773  45.9804230  33.9306564  50.3572083
  45.4984245  35.5534058  50.0004730  46.6643677  35.6901588  47.5904922
  46.8297577  35.2714615  46.7425919  48.0596581  36.6230354  49.9165726
  47.5280037  36.6165619  51.0520782  48.4034119  37.7802505  49.3639488
  48.5456352  37.7556915  48.3643150  48.4461517  39.0598450  50.0786018
  47.8020592  39.0149727  50.9568024  49.8616562  39.3863487  50.6777191
  49.8789864  40.3562469  51.1748047  49.9506302  38.6579399  51.4836998
  50.9913750  39.3285217  49.6088371  50.9253998  38.3806610  49.0746918
  50.9173241  40.2009697  48.9596443  52.3138313  39.4658165  50.3338013
  53.1154518  39.6594124  49.6210442  52.4723549  40.3499069  50.9513474
  52.6294518  38.3324051  51.2718735  53.4699287  38.7013741  51.8597183
  51.8168526  38.2501259  51.9936829  52.9144402  37.1077461  50.5336723
  53.4323463  37.2772064  49.6832848  53.5865250  36.5661507  51.0581589
  52.1013298  36.5092697  50.5057983  47.8927574  40.1974258  49.2099800
  48.3682365  40.4836998  48.1174393  46.9562340  40.9046021  49.8179398
  46.8704681  40.7736168  50.8157310  46.2352676  42.0562019  49.2389145
  46.9461670  42.7318916  48.7633476  45.2646942  41.6204987  48.1598969
  45.7374039  41.0762825  47.3422928  44.4281273  41.0393219  48.5478325
  44.5580788  42.7949181  47.6510773  45.0105057  43.8350105  47.2754250
  43.2008247  42.7626877  47.6920013  42.8225937  41.8468285  47.8875694
  42.7282677  43.4137192  47.0813065  45.5693893  43.0034142  50.3205376
  44.9169006  42.5777359  51.2695694  45.8568649  44.3010750  50.3743744
  46.2793274  44.7655945  49.5832710  45.2486458  45.1960030  51.3888702
  45.8736572  45.0352364  52.2672882  45.4689522  46.6474762  50.9066849
  45.0395164  47.3856621  51.5840034  46.9264641  47.1162758  50.7674370
  46.8793373  48.1815262  50.5413513  47.4933777  46.8264122  51.6521339
  47.5068130  46.7303925  49.9293442  44.8568039  46.8512726  49.6283493
  43.9427071  47.0894432  49.7995338  43.7545776  45.0081100  51.6708755
  43.3789291  45.0513802  52.8660355  43.0368233  44.8080368  50.5494881
  43.5027008  44.6670609  49.6645088  41.5179253  44.7392464  50.5071907
  41.1178207  45.4457741  51.2344017  40.8810997  45.1515198  49.1270332
  40.9348946  44.3064003  48.4407501  39.8323250  45.4326363  49.2226562
  41.5684738  46.3365250  48.4585495  42.6005669  46.0925789  48.2067986
  41.0533829  46.5318069  47.5179939  41.5656548  47.6284561  49.3782883
  42.4605598  47.7843895  50.2043114  40.5217552  48.2937737  49.4619980
  41.0063705  43.3454933  50.8908043  39.8004761  43.1540298  51.1447830
  41.8610725  42.3253670  50.9598274  42.7796898  42.5899506  50.6338768
  41.5152550  40.9210815  51.2917061  40.6487656  40.7974091  50.6420898
  42.7035561  40.0358925  50.8352852  42.9671402  40.2577400  49.8011627
  43.5620003  40.3299484  51.4391975  42.5422630  38.5394554  51.0472603
  42.2208710  38.3153992  52.0644150  41.4617386  38.0813370  50.0636864
  41.9016914  38.0897179  49.0664558  41.1758232  37.0405350  50.2156143
  40.4906387  38.5763702  50.0665131  43.7811699  37.8214836  50.7397461
  44.6503944  38.3870850  51.0753593  43.8669167  36.8078690  51.1313286
  43.9438210  37.8398552  49.6621094  41.0973320  40.7583084  52.7880516
  41.7702408  41.3653221  53.6580315  40.1685867  40.0495033  53.1658669
  13.1502352  38.8668022  49.9213333  13.7759714  38.5960197  50.6664772
  13.3398256  39.7918930  49.5630569  12.1805487  38.8147202  50.1989937
  13.4055586  37.9256287  48.7515106  12.9062376  36.9816284  48.9697838
  12.5779972  38.4282036  47.5054283  11.5523882  38.6345673  47.8114357
  13.0592117  39.2413826  46.9620399  12.5477715  37.3279190  46.5048409
  13.4231062  37.4273300  45.8629646  12.6430759  36.3825378  47.0389519
  11.1136208  37.3334503  45.5236053  11.2987165  38.8014107  44.4123421
  12.0311136  38.5570259  43.6429443  10.3695564  38.9012909  43.8512840
  11.6042233  39.7292938  44.8958664  14.9098892  37.5748634  48.5082359
  15.6569071  38.4864922  48.2103386  15.3247862  36.3294754  48.6544228
  14.6205645  35.6267891  48.8287773  16.6661205  35.8391228  48.4581985
  17.1062698  36.4592628  47.6772995  17.5131493  35.9814644  49.7814369
  17.9561539  36.9753036  49.8456841  16.8378677  35.9684410  50.6369629
  18.6964531  35.0214882  50.0153275  18.2887440  34.0109024  50.0396156
  19.3749008  34.9976997  49.1625366  19.6414356  35.1843681  51.5038986
  20.9235611  33.9254837  51.0657310  21.8147392  34.4132195  50.6707458
  21.1743240  33.4833221  52.0299454  20.4360123  33.2871246  50.3289223
  16.6695919  34.4056358  47.8499031  15.7578192  33.5485001  48.0944405
  17.6824703  34.0914040  47.0405655  18.3554401  34.8233833  46.8633232
  17.9179573  32.6845856  46.5767899  16.9537506  32.2969513  46.2479401
  19.0451336  32.6371460  45.5833817  19.9275398  33.0813065  46.0440140
  19.2939491  31.2202587  45.0435562  19.1892376  30.4242611  45.7807961
  18.6268940  30.9134483  44.2379456  20.3042412  31.2328396  44.6345863
  18.5534992  33.4500427  44.3288651  17.7193813  32.9857941  43.8027229
  18.3487682  34.4753227  44.6370735  19.6836605  33.5921059  43.2963257
  20.2217197  32.6777458  43.0462418  19.3381233  34.0642929  42.3766823
  20.4063320  34.2221947  43.8148232  18.2026749  31.7525482  47.7322807
  19.0707474  32.0469933  48.5839043  17.5409679  30.5761528  47.7404900
  16.8832741  30.3805771  46.9993477  17.7768860  29.5412045  48.7842941
  18.7900105  29.6171780  49.1791382  16.6903419  29.7821426  49.8783569
  15.6822729  29.8702259  49.4732208  16.6869602  28.9000130  50.5186234
  17.2159157  30.9158020  50.8208923  18.2615814  30.6975651  51.0378113
  17.2003727  31.9174614  50.3913116  16.4037952  30.9305954  52.1558304
  15.3504868  30.9408245  51.8755798  16.6427727  30.0610027  52.7680397
  16.6008110  32.1929741  52.9377098  15.9231167  32.9309082  52.8101044
  17.7613907  32.5854454  53.4731483  18.8009949  31.8001938  53.5892258
  19.7271786  32.1678619  53.7538719  18.7308407  30.8984337  53.1397781
  17.9682903  33.7385788  54.0361633  17.1739502  34.3591652  53.9728584
  18.9084606  34.0777702  54.1815186  17.7311440  28.1352634  48.1546440
  16.9819050  27.8205013  47.2540550  18.4691639  27.1808777  48.7081757
  19.0782814  27.4064503  49.4816055  18.4135876  25.6994381  48.4776077
  18.6682835  25.5787449  47.4246750  19.1708870  25.3722324  49.1900177
  17.1636562  24.9601402  48.9913902  16.6573582  25.3304691  50.0418129
  16.7734394  23.9179878  48.2934914  17.2501125  23.6593323  47.4414482
  15.6134405  23.1118374  48.7616653  15.5280857  23.0983067  49.8482361
  14.2019100  23.5084019  48.2188683  14.2204609  23.2328453  47.1644363
  13.0815449  22.6664715  48.8501091  13.2464180  21.6405277  48.5209351
  13.0317850  22.6884670  49.9387550  12.1062813  23.0368900  48.5342789
  13.8902168  25.0140018  48.2319756  13.7997894  25.2053890  49.3012276
  14.8160486  25.4260635  47.8305550  12.6400738  25.6518040  47.4829674
  12.6574097  25.2126122  46.4855118  11.7113619  25.5176201  48.0375748
  12.7591658  26.7351913  47.4691772  15.8522654  21.6311607  48.3336372
  16.2493992  21.4163609  47.1680374  15.5459261  20.6319427  49.1498260
  15.1884527  20.9447289  50.0411606  16.0956345  19.2710609  49.1078682
  16.4763870  18.9865990  48.1269455  17.3184700  18.9888382  50.0335159
  17.1861649  19.3582134  51.0504532  17.5298424  17.9195366  50.0300026
  18.5024605  19.6325550  49.3918190  18.6743069  19.4981613  48.3238754
  18.4156151  20.7066517  49.5557480  19.7832565  19.2538643  50.0700989
  20.5034103  19.9258671  49.6033058  19.8003807  19.4245033  51.1465225
  20.1077938  17.8194599  49.8286285  20.1463032  17.5274181  48.8625374
  20.2552795  16.8741703  50.7340508  20.4295292  17.0543118  52.0037842
  20.4912720  17.9562759  52.4540596  20.3326721  16.2777557  52.6422806
  20.4322453  15.6869698  50.2974815  20.6602001  15.5536499  49.3226166
  20.5312233  14.9592876  50.9908676  14.9787502  18.1945076  49.3945084
  13.9125443  18.3907509  49.9307022  15.2218466  16.9582214  48.7949829
  16.0690174  16.9026718  48.2478867  14.5710974  15.7246361  49.1940842
  14.4212933  15.6831017  50.2729416  13.5423069  15.8474560  48.8555489
  15.1172161  14.4289055  48.6483879  16.0557709  14.4366703  47.8800964
  14.5587578  13.3399639  49.1519241  13.7364168  13.4110403  49.7339935
  14.9971104  11.9946032  48.6299934  15.2483358  12.0044317  47.5693855
  16.2449665  11.5963154  49.4441605  15.9682655  11.5423222  50.4970703
  16.6843700  10.6932182  49.0205574  16.9050350  12.4611225  49.3769684
  13.9196720  10.9388418  48.7856522  12.8526068  11.1526346  49.3722534
  14.2642279   9.7569475  48.2386322  15.0113821   9.7163057  47.5602455
  13.4375772   8.5473881  48.2005920  12.9280367   8.4919739  49.1625671
  12.4609404   8.7752838  47.0744400  11.9897671   9.7352180  47.2856789
  13.0861015   8.8928928  45.6580315  12.3872690   9.1123066  44.8508186
  13.7633810   9.7453575  45.7099457  13.6225100   7.9846044  45.3834724
  11.4649477   7.8187799  46.9577179  10.6797619   8.2960606  46.6797104
  14.3679333   7.3671842  47.8754692  15.5734119   7.5547810  47.7090034
  13.8210468   6.1526456  47.7483673  12.8203735   6.0196853  47.7155609
  14.5418530   4.9356194  47.4924736  15.4995127   5.1606703  47.0230675
  14.8305798   4.1535735  48.7896233  15.4284782   3.2530766  48.6491890
  15.6550531   4.9250970  49.8047104  15.1717930   5.8479509  50.1254921
  15.8850327   4.2342725  50.6158638  16.6856785   5.0550222  49.4745026
  13.6359358   3.8043165  49.4791946  13.2608433   3.0761354  48.9785385
  13.8051882   3.9701478  46.5634880  12.6470146   4.0685735  46.2719498
  14.5270576   3.0045784  45.9754982  15.4998503   2.9567537  46.2428703
  14.0549870   1.9478980  45.0996513  12.9662733   1.9177307  45.1431618
  14.5107374   2.2377181  43.5939407  13.8918114   1.5526514  43.0145340
  14.0821161   3.6142244  43.1382675  14.7401943   4.3989635  43.5113907
  14.2721415   3.6040647  42.0650101  13.0618391   3.8394914  43.4487343
  15.9209728   1.9279352  43.3690910  16.1769714   0.8705222  43.4358292
  16.1166306   2.2881141  42.3590965  16.4644547   2.5953484  44.0378876
  14.5508099   0.5852368  45.5949287  15.5894375   0.4163769  46.2772446
  13.8379707  -0.4222791  45.1654091  12.9354601  -0.2036399  44.7682037
  13.9609852  -1.9025891  45.5121002  14.5706949  -1.9996902  46.4103889
  12.5627146  -2.4512348  45.7005844  12.1188316  -2.3354990  44.7118111
  12.7421160  -3.4912019  45.9733200  11.7479744  -1.8586435  46.8671608
  11.3820810  -0.8734820  46.5778885  10.8599949  -2.4894776  46.9076691
  12.4720421  -1.9334084  48.2309952  12.3190346  -3.0211277  48.8278694
  13.1294060  -1.0610923  48.7566261  14.7608871  -2.5300884  44.4231911
  15.3955936  -3.5970383  44.5816956  14.6301041  -1.9198188  43.1962013
  14.0921221  -1.0653292  43.1733284  15.3705997  -2.2765536  42.0350800
  16.2788754  -2.8473520  42.2282715  14.3067112  -3.1769621  41.2944756
  13.3048162  -2.7588191  41.3917503  14.4625950  -3.2181163  40.2164650
  14.3214054  -4.6317453  41.8546715  15.2916126  -5.1261172  41.9036255
  13.9075909  -4.6612411  42.8626328  13.2712898  -5.6323600  41.2332420
  13.5341311  -6.6016965  41.6567993  12.2787571  -5.3330069  41.5699387
  13.3361320  -5.7410502  39.7655487  14.0491648  -6.3402228  39.3748093
  12.4551401  -5.2056422  38.8946190  11.4312449  -4.4618521  39.2154350
  11.2382536  -4.2260699  40.1783829  10.8208990  -4.0134892  38.5471916
  12.6196136  -5.3423529  37.5682030  13.3672304  -5.9440475  37.2533340
  11.9735947  -4.9233179  36.9146233  15.7771511  -1.0434141  41.2354698
  15.0125227  -0.0607816  41.1868858  16.9156609  -1.1675379  40.5362778
  17.4183102  -2.0290051  40.6953964  17.3258419  -0.3057930  39.4213829
  17.1517620   0.7296805  39.7139397  18.7849674  -0.5581189  39.2321548
  19.3556652  -0.4465883  40.1540909  18.8978596  -1.5583652  38.8139877
  19.4332199   0.3554524  38.2249756  18.9758549   1.4918951  37.9905853
  20.5063152  -0.1184753  37.8154755  16.4941673  -0.7128636  38.1779556
  16.7277260  -1.7633494  37.5340919  15.4252949   0.0546676  37.9187164
  15.1140184   0.7786698  38.5503998  14.4475002  -0.1302497  36.8378754
  14.9041185  -0.4715950  35.9088516  13.4501724  -1.2577904  37.2687721
  14.0187283  -2.1794538  37.3928146  12.6768808  -0.9987430  38.5224609
  12.0187407  -1.7903824  38.8805885  13.4604340  -0.7508267  39.2384796
  11.9809790  -0.1606331  38.4851685  12.6063166  -1.5635593  36.1862717
  13.0785904  -2.0434589  35.5019798  13.6575575   1.1661628  36.6403809
  13.3774214   1.8316578  37.6545525  13.2387037   1.4055459  35.4375191
  13.4613676   0.8015974  34.6592064  12.6125021   2.7245450  35.1560211
  13.3429260   3.4840283  35.4349060  12.3453732   2.8630090  33.6651955
  11.5797729   2.1385164  33.3875847  11.8663025   3.7976351  33.3735275
  13.5549135   2.7111151  32.6603279  13.2432060   3.3055391  31.8014908
  14.4631243   3.1033137  33.1179657  13.9933586   1.3035012  32.2295837
  13.7755060   0.3231508  32.9907837  14.7607059   1.3424903  31.2675190
  11.3966656   3.0001829  36.0426102  11.3623428   4.0843773  36.5562553
  10.5509510   2.0051894  36.2114944  10.7808437   1.0922066  35.8458290
   9.2422132   1.9603552  36.8533325   8.5023651   2.5452607  36.3068810
   8.6911364   0.5302274  36.7217407   8.5333509   0.3037109  35.6672745
   9.3286705  -0.2729054  37.0913887   7.4101901   0.2953769  37.5934219
   7.6437550   0.4452210  38.6475067   6.7098317   1.0582124  37.2532997
   6.7950220  -1.1191369  37.4898720   5.6024070  -1.2056760  37.1382065
   7.5985923  -2.0770967  37.7357292   9.3598404   2.3088920  38.3321686
   8.4147711   2.9521329  38.8255272  10.4678936   2.0163226  38.9762650
  11.2469263   1.6245883  38.4666061  10.8126669   2.5248435  40.2892456
   9.9322300   2.5165019  40.9317894  11.8296394   1.5960033  41.0323448
  12.6469431   1.3808092  40.3440094  12.2609720   2.1845307  41.8420906
  11.3583202   0.2726149  41.6987495  10.5734282  -0.2031081  41.1107559
  12.1685123  -0.4539247  41.7606201  10.8283329   0.6276270  43.1111794
  11.3064394   0.0613899  44.1040268  10.0138826   1.5810424  43.1932831
  11.3198013   3.9219694  40.2585831  10.6369886   4.9087467  40.6600151
  12.5424290   4.0583181  39.6809502  12.9635677   3.2433114  39.2584496
  13.3428392   5.3032269  39.7085609  13.5381403   5.4215827  40.7743721
  14.7186737   5.1834135  38.9145088  14.4585266   4.8202758  37.9202423
  15.3228045   6.6153064  38.8398781  14.7039833   7.2607598  38.2165413
  15.3732233   6.9907432  39.8619385  16.3554516   6.4962301  38.5119057
  15.5564051   4.1670413  39.7103920  15.8029747   4.4852948  40.7233200
  14.9235048   3.2861786  39.8181915  16.8260231   3.8778634  38.9399719
  17.3922310   3.0096040  39.2770653  16.6553783   3.6683664  37.8839951
  17.4827995   4.7472072  38.9714355  12.5311165   6.5253949  39.2985840
  12.5291548   7.4629946  40.0939293  11.8687944   6.4742289  38.1290245
  11.8755465   5.6959519  37.4853325  11.2547350   7.6760440  37.4920235
  11.9068565   8.5096397  37.7527275  11.1557531   7.5097542  35.9408607
  10.4169617   6.7252522  35.7770157  10.7211466   8.4121552  35.5108719
  12.4162836   7.0793223  35.2003670  12.7601442   6.0758953  35.4513550
  12.1516504   6.9576612  33.6820221  13.0037699   6.4532738  33.2264061
  11.3239670   6.2780037  33.4792824  11.7907763   7.8813381  33.2295876
  13.4662104   8.1711855  35.3015366  14.2976141   8.0999613  34.6002502
  13.1428766   9.1773310  35.0346527  13.8922462   8.0096636  36.2917404
   9.9059420   8.0161524  38.1376648   9.7551794   9.1989174  38.3786469
   8.9668798   7.1693892  38.3744240   9.2041321   6.1877170  38.3858795
   7.7730913   7.4678149  39.1883354   7.0958018   8.1551323  38.6814079
   6.9896078   6.1824603  39.2859230   6.8558559   5.8399425  38.2598190
   7.4764552   5.3540792  39.8005753   5.6349201   6.3053174  40.0137444
   5.3241968   5.2605443  40.0133438   5.6939297   6.5642385  41.0709000
   4.5534959   7.0639334  39.3459358   4.7529521   7.9300919  38.5063133
   3.3189960   6.8600612  39.6913681   3.0177231   6.0789537  40.2563515
   2.5509059   7.2094202  39.1363106   8.1674337   8.1014080  40.5256729
   7.6665936   9.1352062  40.8539886   9.0694084   7.5282702  41.3010597
   9.5499983   6.6690826  41.0753822   9.3599148   8.0358334  42.6546288
   8.4672985   8.2415304  43.2454109  10.2733335   6.9111776  43.3498268
  11.1348286   6.6843915  42.7217369  10.6272745   7.3606243  44.2776337
   9.3383579   5.7462854  43.6414452   8.6596422   6.1188426  44.4086800
   8.7000332   5.5605884  42.7776413  10.1462479   4.6015482  44.2421188
  10.7088165   4.0619435  43.4802513  10.9362946   5.0441260  44.8487968
   9.2663860   3.7837722  45.1002312   8.8077536   4.4422545  45.8379021
   8.4090052   3.4822831  44.4984818   9.9769783   2.7041664  45.8119049
  10.8568497   3.0383406  46.1783142   9.4950056   2.2294307  46.5618629
  10.2294273   2.0182147  45.1148834  10.1923866   9.2607784  42.6950951
  10.0604582  10.0165606  43.7026329  10.9756298   9.5035067  41.6569939
  10.9659576   8.9401875  40.8187294  11.6978493  10.8051977  41.5517044
  12.0689993  11.0019217  42.5575142  12.8223419  10.8687859  40.4755516
  12.3358040  10.8182440  39.5014725  13.5700483  12.1433001  40.7294807
  14.4382296  12.2685251  40.0824280  12.9320383  12.9846249  40.4588966
  13.9467239  12.2716579  41.7442398  13.7309713   9.8838682  40.6906052
  13.4104843   8.9792137  40.7127304  10.7334299  11.9095325  41.2057190
  10.7908373  12.9746342  41.6961899   9.7580233  11.4955177  40.3487358
   9.8280182  10.5597868  39.9750938   8.7251167  12.4070215  39.8109550
   9.2097311  13.1900377  39.2277451   7.8250756  11.8279991  38.6952209
   8.5715761  11.5024481  37.9707565   7.2707353  11.0012226  39.1393509
   6.9337583  12.6998892  37.8549767   7.4373035  13.6308165  37.5943680
   6.6923842  12.2493725  36.8922348   5.5320797  12.9295378  38.5046959
   5.1988473  11.9312534  38.7883949   5.4913635  13.4867897  39.4405975
   4.5177550  13.4439583  37.4842834   4.6025453  14.5271749  37.3973503
   4.6195459  12.9344425  36.5260925   3.1474617  13.1698112  37.9963112
   3.1092403  13.3556852  38.9883270   2.4271355  13.6789179  37.5043259
   2.9356143  12.1925964  37.8539352   7.9522223  12.9949169  40.9684792
   7.8409848  14.1945724  41.2221985   7.4628458  12.0873232  41.7776833
   7.7025270  11.1218109  41.6032143   6.6361628  12.5015507  42.8962097
   5.9197330  13.2030859  42.4687920   5.7925167  11.2945423  43.3960876
   6.4511671  10.5896606  43.9034576   5.1402984  11.6813307  44.1791077
   4.8425074  10.7925615  42.3045769   4.3082671  11.6976185  42.0155106
   5.3730407  10.3164387  41.4799919   3.8396409   9.7342749  42.8519859
   4.1939588   8.8809414  43.6355019   2.6132061   9.6087790  42.3948975
   2.3460443  10.1214504  41.5667076   2.1354806   8.7887774  42.7405472
   7.3289714  13.2431030  44.0643349   6.6851406  13.9925575  44.7302589
   8.6532888  12.9966459  44.2083473   9.1515169  12.3102951  43.6599007
   9.5313206  13.7326612  45.1295013   9.0375538  13.7663460  46.1006660
  10.8591576  12.9449253  45.2427521  10.7723789  12.2321434  46.0628204
  11.0629044  12.3854084  44.3297768  12.1024647  13.7456560  45.5745964
  12.1663837  14.6206894  44.9278069  12.0789242  14.2631979  47.0193825
  12.9871464  14.8412609  47.1899071  11.2581291  14.9526882  47.2168617
  11.9860544  13.4368448  47.7240944  13.4092941  12.9572182  45.4732666
  13.4210978  12.2615528  44.6342125  14.1847973  13.6911440  45.2540436
  13.6386671  12.4056129  46.3849792   9.4767818  15.2386341  44.6488342
   8.9492502  16.0936947  45.3597908  10.0235806  15.4622793  43.4426117
  10.3821688  14.6668262  42.9339180   9.8586245  16.7807579  42.7638702
  10.5379877  17.5497074  43.1316795  10.1284237  16.5122051  41.2300224
   9.7156610  15.5597324  40.8975677   9.6503668  17.2846012  40.6275520
  11.6302814  16.5296021  40.7406006  12.0891609  15.8433475  41.4523468
  11.7931252  15.8733797  39.3375397  11.2953110  14.9037304  39.3460274
  11.2101793  16.5358505  38.6976891  12.8466864  15.7637358  39.0804672
  12.2957678  17.9666634  40.6981354  12.0935059  18.5190048  41.6158028
  13.3631201  17.7899380  40.5653648  11.9315252  18.5334034  39.8412590
   8.4788370  17.3939438  42.9966965   8.3810616  18.4820156  43.5392265
   7.4123178  16.7075481  42.6417313   7.6346250  15.8885040  42.0941505
   6.0261507  17.1555614  42.6500969   5.9666734  18.0853004  42.0842781
   5.1476326  16.1170139  41.8235474   5.5705075  15.9453897  40.8336868
   5.4001541  15.1931591  42.3439560   3.5943203  16.2299004  41.7961388
   3.3021553  16.7487545  42.7091179   3.2864637  16.9513111  41.0392456
   2.8443127  14.9071398  41.5322990   1.6940024  14.7280321  41.9952507
   3.3029771  14.0626106  40.7256088   5.4579329  17.5233002  44.0023613
   4.6943030  18.4692535  44.0519295   5.8789949  16.7570419  45.0359573
   6.5288291  15.9957848  44.9006653   5.5083518  16.9979248  46.4576416
   4.5211711  17.4532757  46.3786964   5.3912978  15.6734095  47.2846107
   6.2535467  15.0358534  47.0892906   5.2807174  15.8382244  48.3563919
   4.1550336  14.8144875  46.8828278   3.2492611  15.3931589  47.0639801
   4.3083611  14.4986801  45.8509102   4.1949573  13.5951109  47.7100716
   4.7009339  12.8400660  47.1084099   4.6759353  13.7263689  48.6793671
   2.7741795  13.1434832  48.0445747   2.3128662  13.9935770  48.5472031
   2.3775032  12.8220501  47.0815430   2.7155554  11.8998547  48.9112434
   3.1817431  12.1497087  49.7716751   1.7437868  11.6446695  49.0144653
   3.2392499  11.2336473  48.3616867   6.3387485  18.1152897  47.1260681
   5.7127137  18.7178459  47.9526672   7.5913811  18.4046593  46.7531242
   7.8860402  17.7444057  46.0479012   8.2386293  19.7001114  47.0506134
   8.2441568  19.9152412  48.1191597   9.7520618  19.7574272  46.6895599
   9.8912697  19.6246319  45.6166725  10.3175974  21.1045837  47.1850739
   9.8393154  21.9306297  46.6587715  10.0272741  21.2419739  48.2266769
  11.3977585  21.1821136  47.0611992  10.5574141  18.6490402  47.3678436
  10.5914936  18.6397495  48.4572716  10.0569706  17.7186489  47.0994606
  12.0182390  18.5645676  46.9352341  12.3749323  17.5569515  47.1487541
  12.0878353  18.8317528  45.8807831  12.5968399  19.2537212  47.5503693
   7.5299830  20.8731976  46.4337196   7.2554998  21.8411751  47.1562233
   7.2830524  20.7983818  45.1181946   7.5547829  19.9758778  44.5988235
   6.7508607  21.8316326  44.2195587   7.3667068  22.7261906  44.3123016
   6.8567247  21.3505650  42.7682991   6.4261084  20.3523235  42.6896629
   6.0637188  22.1592617  41.7392235   6.1233339  21.6643600  40.7698822
   5.0075822  22.0402737  41.9811287   6.3638391  23.2033863  41.8277283
   8.3543873  21.2225075  42.2966614   8.6941490  22.2383366  42.0947914
   8.9719934  20.8068848  43.0928535   8.4997902  20.4864159  41.0136108
   8.0340557  19.5107670  41.1525192   8.1987228  21.0705757  40.1440048
   9.5646763  20.2651329  40.9418373   5.2523675  22.2351246  44.5238533
   4.9301038  23.4444008  44.4447289   4.3913169  21.3017712  44.9673195
   4.6698713  20.3318157  45.0084724   3.0777082  21.7457542  45.4086266
   2.5869200  22.4793396  44.7690315   2.2482247  20.4351978  45.3331299
   2.2713163  20.1173477  44.2907600   2.7346253  19.6595440  45.9246330
   0.8124225  20.5761738  45.8974800   0.2377490  19.6751404  45.6830292
   0.8628199  20.7354965  46.9745979   0.1553689  21.7307758  45.0605927
  -0.3020042  21.4522343  43.9156647  -0.0602496  22.8261909  45.5928497
   3.1347601  22.4321308  46.7615585   2.3914707  23.3793755  47.0387344
   3.9877937  21.9787064  47.6242218   4.4840789  21.1549568  47.3156128
   4.0493603  22.3734741  49.0330124   3.0328016  22.3967133  49.4256554
   4.8213377  21.3089619  49.8106689   4.3258610  20.3724537  49.5546303
   5.8518729  21.2900257  49.4560699   4.8252549  21.5516491  51.3133698
   5.4543753  20.7029591  51.5817642   5.3354096  22.4865627  51.5452766
   3.4307206  21.4014969  51.9747963   2.3719532  21.3093739  51.2750816
   3.2923045  21.4027100  53.2294350   4.5841174  23.8077774  49.3100777
   4.1132898  24.4841537  50.2477875   5.6363750  24.1147175  48.5180206
   5.9746714  23.3843689  47.9079018   6.4748273  25.3467579  48.6518364
   6.2603889  25.8420467  49.5988350   7.9473062  25.0240269  48.5394325
   8.1638565  24.4657459  47.6286469   8.4971848  25.9649696  48.5584450
   8.5330029  24.1704140  49.6630974   8.8578634  24.7103882  50.7270279
   8.4473858  22.8403549  49.5112801   8.6181374  22.3088551  50.3529816
   7.9133291  22.4792671  48.7337875   6.1062593  26.3712902  47.5235672
   6.6390066  27.4849987  47.4298325   5.1920109  25.8994541  46.5968170
   5.0149951  24.9103298  46.4948387   4.6743016  26.6724434  45.4697113
   4.0391660  25.9436798  44.9661140   3.7782376  27.8460846  45.9755402
   4.4260831  28.7052250  46.1495361   3.1416895  28.0651588  45.1182709
   3.0245888  27.5449715  47.2131653   2.1304717  26.5059357  47.3595734
   1.9329239  25.7719021  46.6945381   1.5364934  26.6177883  48.5109482
   0.7941841  25.9413204  48.9081497   2.1331344  27.6005096  49.1751060
   1.8441390  28.0094700  50.0522194   3.1253746  28.1723328  48.3913345
   3.8091397  28.9516068  48.6939850   5.6672273  27.1456566  44.4315605
   5.3813610  27.9873505  43.5670853   6.9167738  26.6662254  44.4331131
   7.1858792  26.0781040  45.2088737   7.9843144  26.9959412  43.5099525
   8.2605152  28.0423794  43.6394920   9.2281513  26.1234875  43.8556366
  10.0475531  26.3375034  43.1694298   9.7827835  26.4906120  45.2794189
  10.6014280  25.8116798  45.5181198  10.2639179  27.4669380  45.2211304
   9.0368261  26.3534431  46.0622559   8.8908358  24.7505665  43.8638687
   8.5507174  24.6228809  42.9752655   7.5843921  26.7973270  42.0655403
   6.9173489  25.8385468  41.6834030   8.0823612  27.6982231  41.1655998
   8.5973015  28.5037441  41.4912872   7.7450089  27.7184334  39.6949234
   7.0622425  26.8940144  39.4893417   7.0687337  29.0950451  39.4131317
   7.6462975  29.9797878  39.6809959   6.9823470  29.1064091  38.3266144
   5.6225572  28.9794559  39.8825302   5.1953349  28.2387619  39.2065430
   5.6506624  28.7593098  40.9496994   4.8761177  30.2718391  39.5606842
   3.8960350  30.2896881  40.0373573   5.5344400  31.0696869  39.9044113
   4.6082158  30.4650211  38.0302315   5.5596943  30.4279404  37.4997482
   4.0201235  29.6204567  37.6711197   3.7750177  31.6951084  37.7614212
   4.3002090  32.5222244  38.0066795   3.4995985  31.9174976  36.8154907
   2.9552000  31.5820408  38.3404007   8.9379892  27.6010265  38.7946892
   9.9859114  28.1807194  39.1193047   8.9448557  26.9662476  37.5924034
   7.8761783  26.2288570  37.0003090   6.9448686  26.7949047  37.0190773
   7.5762453  25.4034061  37.6458893   8.2152281  25.6518211  35.6349144
   7.7602773  26.2267990  34.8283653   7.8478661  24.6264057  35.5940781
   9.7150335  25.7559071  35.5781746  10.0117998  26.3920135  34.7442703
  10.2351599  24.7980862  35.5903397  10.1758604  26.6179867  36.8593521
  10.8251781  26.0677204  37.5403023  11.1000013  27.7879505  36.4647789
  12.3387899  27.7204952  36.6361885  10.5420504  28.9009647  36.1566391
   9.5383434  29.0082073  36.1908646  11.2873545  30.0721416  35.6557045
  11.8819313  29.7477989  34.8016701  10.2590790  31.1336346  35.2688522
   9.5782280  31.3579483  36.0899582  10.6853046  32.0401535  34.8391342
   9.3660231  30.6976013  34.1409912   9.0071669  31.6094627  33.6636734
   9.8870554  29.9605579  33.5299339   8.0920944  29.8832741  34.6314468
   7.3967123  29.3793678  33.7335091   7.8240771  29.7926674  35.7959785
  12.3234663  30.6503525  36.7306557  13.4400835  31.0966454  36.5024529
  11.8922958  30.5759964  38.0130768  11.1358032  29.9353008  38.2062874
  12.6475220  31.0879517  39.1713142  13.0361652  32.0735283  38.9149933
  11.6411657  31.3495312  40.3604507  11.1478252  30.4182205  40.6386070
  12.2012644  31.4865360  41.2854500  10.7252502  32.5444527  40.1990509
   9.5735035  32.5849953  40.8412399  11.0708456  33.4537811  39.3994865
  13.7308979  30.1381016  39.6451492  14.4993677  30.5392780  40.5841141
  13.8627834  28.9694080  39.0066490  13.2427568  28.8299141  38.2216606
  14.8457193  27.9445744  39.3101349  15.2089272  27.9373341  40.3378143
  14.1512613  26.5707436  39.2188492  13.8034725  26.4623814  38.1915207
  15.2042770  25.5045986  39.6255302  16.0021267  25.5032597  38.8828735
  15.6496973  25.5980816  40.6159668  14.6778078  24.5508747  39.5889359
  12.9917831  26.3637390  40.1995773  12.2728462  27.1808434  40.1397972
  12.4867010  25.4366093  39.9286079  13.3481693  26.0900612  41.1926498
  16.1456223  28.1445637  38.5125656  16.1755695  27.9183674  37.2793236
  17.1960373  28.5951157  39.2024536  17.0204754  28.7705021  40.1814919
  18.5977364  28.7391167  38.8652420  18.6917706  29.5208073  38.1114426
  19.3042259  29.2641659  40.1483803  19.3800106  28.5062714  40.9280968
  20.6976013  29.5821705  39.6656189  21.2453098  28.7350330  39.2527351
  20.5632420  30.2214928  38.7930832  21.1979446  30.1244450  40.4679222
  18.7051868  30.5783749  40.7026863  19.3962364  30.9521732  41.4582100
  18.5906448  31.3372936  39.9287186  17.7600498  30.3576450  41.1987648
  19.3002090  27.4794769  38.2564659  19.8698330  27.5211754  37.2144814
  19.3810959  26.4605236  39.0482750  18.8916473  26.4608650  39.9317589
  19.8630352  25.1191769  38.7085876  19.5272751  24.8192177  37.7159195
  21.3768063  24.9311161  38.8192749  21.6422825  24.0040512  38.3111687
  21.8930492  25.7132454  38.2626152  21.9561310  24.8488541  40.2792397
  21.8043861  25.8331070  40.7223244  21.5401669  24.0200691  40.8521194
  23.4521618  24.6551151  40.2562332  24.0865326  25.1930618  41.1454239
  24.0444660  23.8703976  39.3815575  25.0514050  23.8301735  39.4490395
  23.5223827  23.3155251  38.7184944  19.1136990  24.0507565  39.5527115
  18.4186687  24.3654881  40.5402145  19.1822910  22.7835407  39.0993271
  19.7020226  22.5980644  38.2534103  18.6174126  21.6306705  39.8044891
  18.4212170  21.8908672  40.8446388  17.3100834  21.1521111  39.0600433
  16.6194668  21.9900723  38.9653282  17.5072060  20.8843765  38.0219879
  16.7443886  19.8528137  39.6311722  17.5008430  19.1058483  39.3905144
  16.5964069  19.8166580  40.7104759  15.3530922  19.2328358  38.7254448
  14.0579548  20.3442078  39.3515930  13.2163916  20.3200226  38.6592903
  13.8287659  20.0154247  40.3652382  14.2919455  21.4048996  39.2605743
  19.6571770  20.5050220  39.8896599  20.2819004  20.3006115  38.8279343
  19.9844379  19.8253174  40.9865227  19.4489613  20.0592270  41.8103256
  21.0794659  18.8243637  41.1281662  21.4576263  18.6485023  40.1211014
  22.1608772  19.4961967  41.9763222  21.7633095  19.6795254  42.9745369
  23.0010262  18.8219967  42.1427727  22.7519588  20.7249317  41.3514786
  21.9207535  21.3746777  41.0775681  23.3923035  21.5973186  42.3564911
  22.6608887  22.2063904  42.8876801  23.8099861  20.9698601  43.1438522
  24.1682377  22.2021427  41.8872299  23.6242542  20.3559589  40.1498871
  24.3400097  19.5764580  40.4109726  22.9090424  20.0263100  39.3962936
  24.2875214  21.1579647  39.8259010  20.4883404  17.4999409  41.6472664
  19.8647728  17.5292454  42.7087135  20.6692352  16.3868847  40.8936729
  21.1866112  16.4133816  40.0266571  20.2400665  15.0434828  41.2952881
  19.5775108  15.0898056  42.1595650  19.4575977  14.2489614  40.1915474
  19.9533119  14.4847279  39.2498589  19.5562496  13.1673479  40.2836342
  17.9399796  14.4709625  39.9830475  17.5854301  13.9219656  39.1106949
  17.1722279  14.0943546  41.2595558  17.4425869  13.1294193  41.6884079
  17.2472935  14.8958759  41.9944229  16.1338158  14.1012154  40.9282684
  17.5373745  15.9173594  39.5933189  17.9565277  16.1972313  38.6268349
  16.4560108  16.0481548  39.5527534  17.9277725  16.5977364  40.3501396
  21.4093895  14.2862864  41.8478394  22.5703278  14.5610075  41.5513725
  21.1152515  13.2169418  42.6003227  20.1795063  13.0255499  42.9287262
  22.1550121  12.3041811  42.9417419  22.9343777  12.3038101  42.1797142
  22.8264465  12.7078075  44.2727928  23.4471893  13.5966110  44.1596107
  22.1909943  12.9788399  45.1159058  23.9095325  11.8084440  44.6278267
  23.5921116  11.0010681  45.0389061  21.6440086  10.8808222  43.0705566
  20.4278049  10.6680088  43.2858772  22.5612984   9.8744040  42.8121414
  23.5440426  10.0152082  42.6264267  22.1569366   8.4794607  42.7158241
  21.1958771   8.3489542  43.2132492  21.9644184   8.0124302  41.2836456
  21.4868870   7.0327930  41.3029633  21.3550835   8.7416477  40.7497444
  22.9507942   7.8726044  40.8413658  23.2685184   7.6198854  43.4496689
  24.4325142   7.8726187  43.2485809  22.8593597   6.6431947  44.2762527
  21.8523216   6.5787864  44.3189964  23.7697697   5.6512327  44.9145050
  24.5201378   6.1427226  45.5337715  22.9758759   4.8287764  45.9035873
  23.6999359   4.0577836  46.1670380  22.6592007   5.7212763  47.2043190
  22.5746231   6.7871156  46.9923515  21.7672844   5.4479518  47.7681313
  23.5162010   5.5862837  47.8641891  21.7829990   4.2064729  45.4687881
  22.1084499   3.3309944  45.2469330  24.5660839   4.8228965  43.8636513
  24.0577030   4.4492497  42.7769737  25.8091030   4.4125609  44.1928902
  26.5199928   4.5156121  45.4580765  26.3406544   3.5688245  45.9675179
  26.3513336   5.4107962  46.0566635  27.9014168   4.6767473  44.9979706
  28.5175018   4.3418169  45.8324547  28.1782990   5.6569071  44.6097374
  28.0692558   3.7026370  43.7885056  28.2740612   2.7537723  44.2842979
  28.9133701   3.8774488  43.1214104  26.6969299   3.8293035  43.1409531
  26.8281975   4.5489044  42.3328400  26.1624546   2.5732381  42.3312187
  26.8291073   2.1247051  41.3842239  25.1832066   1.8684651  42.8664017
  24.6349106   2.4292307  43.5028076  24.4494610   0.6714867  42.5259972
  25.1604691  -0.0224600  42.0776558  24.0302982  -0.0629936  43.8217659
  23.3950253  -0.9046744  43.5458984  24.9015446  -0.4677658  44.3367386
  23.2624722   0.7586820  44.9154396  23.0551987   1.9735928  44.8035431
  22.8487854   0.2314394  45.9347572  23.2434387   0.8421783  41.5886230
  22.6425304  -0.1165200  41.1477737  22.8646526   2.0818777  41.1230927
  23.2618675   2.8948407  41.5718803  21.7405987   2.3526568  40.1633110
  21.1651649   1.4435457  39.9886932  20.7658787   3.3773189  40.7970848
  21.2991829   4.3249841  40.8720322  19.9569893   3.5186703  40.0802727
  20.1586628   3.0795612  42.2053947  20.9905624   2.8742673  42.8791122
  19.2631969   4.2268181  42.6365356  18.2655220   4.1775556  42.2002754
  19.1329155   4.1513186  43.7160835  19.8749733   5.0944290  42.3893890
  19.2535076   1.8069900  42.1921921  18.5214481   1.9542212  41.3981438
  19.8977928   0.9536599  41.9804840  18.7261028   1.7561876  43.1447487
  22.4123688   2.7744887  38.8280869  23.1619091   3.7235940  38.7848969
  21.8017712   2.2329879  37.7298889  20.9244099   1.7411960  37.8219681
  22.5225639   2.2942612  36.4505310  23.1130142   3.2000482  36.3125877
  23.5565033   1.2465023  36.3659744  23.0820827   0.2657604  36.3317757
  24.0804977   1.2774591  35.4106865  24.6798248   1.3997542  37.2851181
  25.4042263   2.5061300  37.4244537  25.2106705   3.3766437  36.9502792
  26.4340591   2.2477193  38.2288780  27.3285999   2.8364027  38.3690491
  26.3125896   0.9773633  38.6966438  26.8874226   0.5386187  39.4017487
  25.2141418   0.4008758  38.0461655  24.9676628  -0.6372922  38.2130928
  21.6306267   2.1965923  35.1530190  22.1112442   2.1428468  34.0135689
  20.3312988   2.1134024  35.3310280  20.0429668   2.2250638  36.2925339
  19.2699299   1.8668536  34.3722343  19.5860291   1.1230696  33.6408119
  18.0400734   1.2107787  35.0052185  18.2762604   0.2268149  35.4103584
  17.6749249   1.8426801  35.8148308  17.4082394   0.9159359  34.1673927
  18.9087353   3.1102259  33.5335007  18.7832241   3.0197775  32.3199425
  18.8109245   4.2864752  34.1919556  19.0962372   4.4575543  35.1455956
  18.3250828   5.4809561  33.5429916  18.7151909   5.5112529  32.5256424
  16.7645893   5.4029880  33.5645485  16.3905067   4.5184884  33.0489693
  16.1549454   5.4812818  34.9498024  16.5190010   4.6295996  35.5244331
  16.3736992   6.4091277  35.4783363  15.0670433   5.4268508  34.9097099
  16.1214561   6.5724626  32.7724838  16.6183357   6.6314678  31.8041191
  15.0657940   6.4373250  32.5370750  16.2097759   7.5184755  33.3066711
  18.7993813   6.7279563  34.2344093  19.1533947   6.6610065  35.4241562
  18.7439404   7.8995900  33.5838776  18.4031181   7.8774190  32.6333733
  18.8748817   9.2156620  34.3293953  19.8053436   9.2400084  34.8966255
  18.9563961  10.2589760  33.1818352  17.9917488  10.4042711  32.6955795
  19.1851139  11.2040119  33.6744881  19.9422150   9.9604168  32.0066910
  21.3422012  10.0703869  32.1523857  21.7644482  10.3345575  33.1106834
  22.1892433   9.8113699  31.0069256  23.2505627   9.9527197  31.1484261
  21.6561451   9.3580647  29.8115253  22.3779354   9.2992229  29.0103054
  20.2895889   9.1532717  29.7167931  19.8661461   8.7191238  28.8231430
  19.4166031   9.4585667  30.7826405  18.3561840   9.2721329  30.6980572
  17.6899433   9.5622940  35.2002525  16.6562881   9.8409758  34.6425209
  17.8398323   9.6895742  36.5597534  19.0268707   9.4601231  37.3544388
  19.8496227   9.9347401  36.8197250  19.1261883   8.3822145  37.4823112
  18.8368473  10.1420984  38.6899681  19.1867332  11.1742420  38.7089653
  19.2967186   9.6575890  39.5512848  17.3366871  10.1506720  38.8707619
  16.9648228  10.9577274  39.5020142  17.0349541   9.1723442  39.2448387
  16.7941093  10.1894617  37.4195404  15.9193401   9.5416765  37.4766846
  16.2343273  11.5446463  36.9918213  15.0917435  11.8286972  37.1800499
  17.1098671  12.4564342  36.4651718  18.1135330  12.3571053  36.4114456
  16.6299019  13.7873945  36.0500908  16.1584072  14.1530466  36.9622841
  17.8613377  14.6466246  35.6460609  18.5101395  14.7483749  36.5160027
  18.4129581  14.2611389  34.7886162  17.5254230  15.6272469  35.3089409
  15.5863752  13.8296185  34.9038925  14.7435751  14.7173214  34.7978973
  15.6176262  12.7945442  34.1146889  16.4593296  12.2367601  34.1373100
  14.5882292  12.3689375  33.1105156  14.6037455  13.1604500  32.3612671
  14.9140415  11.0548210  32.4259377  15.9591198  11.0181236  32.1184235
  14.7483807  10.2051630  33.0883102  14.1223173  10.8345461  31.1563015
  13.0548019  10.9621267  31.3358364  14.4325247  11.6854000  30.5497360
  14.5556259   9.4371796  30.6144047  15.6455050   9.4533930  30.6129742
  14.1918783   8.6996393  31.3298225  14.1275654   9.2248688  29.2514172
  13.0482159   9.3767080  29.2584705  14.5184488  10.0390635  28.6411724
  14.3841009   7.8275170  28.8054142  14.1672907   7.6820612  27.8297424
  15.3618698   7.6386647  28.9739418  13.8092480   7.1080136  29.2200947
  13.0915070  12.3296022  33.5784721  12.2089720  12.7559977  32.8276100
  12.7980995  12.3425636  34.8691025  13.4688425  12.0539265  35.5668793
  11.4298372  12.6049137  35.4588432  10.6206541  12.0281792  35.0108490
  11.5020037  12.0818415  36.9008904  10.5783691  12.4557810  37.3426743
  11.4828348  10.9984331  36.7827415  12.4037075  12.4717245  37.3731422
  11.0477381  14.1202002  35.4211960   9.8683109  14.4385509  35.4970131
  11.9991159  15.0787001  35.2748566  12.9597769  14.8124971  35.1124802
  11.6300268  16.4490414  35.0870018  11.0147848  16.6924438  35.9532204
  12.8975420  17.3447647  35.1438103  13.5485096  17.2175980  34.2788429
  12.5663900  18.8128490  35.2848816  12.1523666  18.9969330  36.2762413
  13.4614525  19.4104233  35.1120529  11.8917761  19.2070713  34.5248909
  13.8749943  17.0538158  36.3120804  13.8419037  17.8145161  37.0920410
  13.6413851  16.0958958  36.7767487  14.8751040  16.9546108  35.8901329
  10.7609978  16.8610878  33.8711739   9.9829378  17.8111000  33.9142723
  10.7987919  16.0863781  32.7980766  11.4964485  15.3577232  32.8474617
  10.0342426  16.2386856  31.5276604  10.1486683  17.2280769  31.0848141
  10.5817261  15.2592640  30.5141087  10.4890661  14.1979246  30.7444859
  10.0762701  15.3449736  29.5521984  12.0753298  15.3542395  30.2821140
  12.2741423  16.2879791  29.7560844  12.5293560  15.3656902  31.2729855
  12.6642056  14.2078915  29.5593548  12.5883808  13.3448105  30.2207508
  12.0678816  14.0521069  28.6603413  14.0452929  14.4903879  29.2439461
  14.4452324  15.3251953  29.6479816  14.7591143  13.8908882  28.2730904
  14.3594456  12.8451090  27.6640205  13.4169073  12.5354090  27.8532467
  15.0837021  12.2678833  27.2610779  15.9416933  14.3285341  28.0198040
  16.5269489  13.9363756  27.2960701  16.3809376  14.9937201  28.6400394
   8.5153360  15.9036312  31.6603127   7.7026095  16.3399010  30.8984852
   8.1632605  15.2207479  32.7124443   8.9066620  14.9187288  33.3258286
   6.7402263  14.8484049  33.0483475   6.2670608  14.5793438  32.1039848
   6.7454524  13.6083231  33.9191246   7.0573268  13.8494263  34.9353485
   5.8181434  13.0371542  33.9634438   7.6691699  12.4885693  33.4273071
   8.6326847  12.8594122  33.0777130   7.7785020  11.7795906  34.2479744
   6.9580331  11.7519112  32.2607384   6.1285448  10.8357458  32.4708862
   7.0349131  12.1582355  31.0832386   5.9751916  15.9699526  33.6795883
   4.7410235  15.7360277  33.7622032   6.5100517  17.1142426  33.9017677
   7.5052886  17.1782665  33.7420654   5.8218703  18.3171864  34.4017792
   4.7582641  18.0938988  34.3181648   6.2589226  18.6192036  35.8292770
   7.2788577  19.0024567  35.8600769   5.6831789  19.4552460  36.2263374
   6.1421938  17.3813095  36.7374268   6.3564591  16.5298634  36.0914917
   7.1267633  17.5958939  37.8523026   7.1463046  16.7551613  38.5457611
   8.1682682  17.7258205  37.5582123   6.7739091  18.5314484  38.2862816
   4.8327718  17.2401009  37.3536339   4.6236167  18.2135105  37.7972984
   4.1899371  16.9473553  36.5234756   4.9861331  16.4285908  38.0649910
   5.9543185  19.5240459  33.4716492   7.0264726  19.8454056  32.9095230
   4.9129400  20.4101181  33.4268036   4.2063394  20.2667999  34.1341057
   4.8117723  21.5025406  32.4484215   4.9470334  21.1417751  31.4287872
   3.3868759  22.0383797  32.4747162   2.7057033  21.1903973  32.5456619
   3.2347310  22.7953815  33.2440681   3.2279477  22.7518082  31.2430725
   3.0740299  22.0717335  30.5832195   5.8356166  22.6182251  32.7239914
   6.0663390  23.0515671  33.8853226   6.5321617  23.1056652  31.7061024
   6.2483749  22.8437996  30.7728329   7.5585427  24.1531372  31.7365379
   7.7485018  24.4657001  30.7097378   7.2139215  25.0348587  32.2768211
   8.8746386  23.6637859  32.3194618   9.9360256  24.2555733  31.9135380
   8.9094553  22.5520897  33.1336098   8.0189657  22.1151237  33.3238411
  10.1306820  22.1556721  33.9373970  10.5897427  23.0370140  34.3852844
   9.7102003  21.1635208  35.0542908   9.0437241  20.4479465  34.5727654
  10.6086111  20.6534996  35.4019051   8.9662418  21.6920948  36.2258148
   7.6736670  21.9002609  36.3009453   6.9616179  21.8073788  35.4942436
   7.3859363  22.6238403  37.4648972   6.4556623  22.8918285  37.7527733
   8.5509701  22.8411198  38.1900406   8.8333597  23.5849380  39.3925858
   8.0412197  23.9476109  40.0308495  10.1576109  23.8105736  39.8324585
  10.4273138  24.3847904  40.7064934  11.1596909  23.1023350  39.0671501
  12.2080994  23.2907963  39.2452583  10.8916283  22.4166031  37.8903351
  11.7581596  22.0142975  37.3866768   9.5779791  22.2257118  37.4729347
  11.1971798  21.6024151  33.0172729  12.3891544  21.5850048  33.3061562
  10.9369631  21.2883606  31.7385426   9.9572563  21.3165321  31.4946327
  11.9149675  20.8406143  30.7429504  12.3014336  19.9212208  31.1827946
  11.2240801  20.3735542  29.4639282  11.9552660  19.9619350  28.7681980
  10.4954042  19.5863075  29.6572590  10.4289083  21.4469643  28.7380180
   9.8560247  22.0012703  29.4814224  11.2148933  22.0821171  28.3294659
   9.4043608  20.9464893  27.6998062   8.7421875  19.8995342  27.8662930
   9.3627014  21.6312561  26.5526028   9.9959869  22.3949280  26.3632526
   8.8111668  21.2541199  25.7951870  12.9921675  21.8193474  30.3586636
  14.0206203  21.4420338  29.8105125  12.7754679  23.1900787  30.5854607
  11.9026918  23.4447880  31.0253315  13.7260847  24.3006687  30.2991314
  14.4028702  23.9449253  29.5222740  12.9789505  25.5121212  29.7593937
  12.2549286  25.9669571  30.4354248  13.7592649  26.2132225  29.4633007
  12.2470713  25.2901497  28.4893208  12.8884602  25.2809200  27.2636108
  13.9614296  25.3712254  27.1800575  12.1023588  25.1586399  26.0735779
  12.6147823  25.1641750  25.1228962  10.6890459  25.0060177  26.1572514
   9.9494133  24.7298031  25.0090733  10.4907131  25.1042004  24.3102016
   9.9947214  25.1023407  27.4580479   8.9258251  25.0365849  27.5978222
  10.8541527  25.2878647  28.5929432  10.3531981  25.2858658  29.5497303
  14.5892773  24.6847553  31.4940205  15.4581289  25.5545425  31.3345451
  14.4149427  24.0930538  32.6686058  13.5340490  23.5991249  32.6559906
  15.2570286  24.1666279  33.8626213  15.2730951  25.2071934  34.1867561
  14.5846548  23.5938396  35.1038361  14.3709631  22.5365658  34.9469566
  15.3897915  23.5065460  36.3782120  14.8696566  23.0893116  37.2404633
  16.1948433  22.8022633  36.1685066  15.8446903  24.4737053  36.5921516
  13.2745733  24.1865177  35.5679893  13.3822508  25.2694092  35.6300354
  12.5744419  23.9715214  34.7607117  12.8982344  23.8801174  36.5439949
  16.6879387  23.5207577  33.7462311  16.7605686  22.3213387  33.3649063
  17.7585926  24.1888008  34.1769638  17.7171268  25.6169853  34.4207077
  17.8197403  25.7987556  35.4905357  16.9147167  26.1653767  33.9272461
  19.0318928  26.0679951  33.7773552  19.3383026  27.0227871  34.2046547
  19.0204659  26.0060139  32.6891785  20.0176487  25.0294495  34.1129646
  20.4910946  25.1354370  35.0890388  20.8239937  25.0237198  33.3795586
  19.1553059  23.7459431  34.0043945  19.3447304  23.3640232  33.0012207
  19.5428829  22.5996418  35.0796089  19.7374706  22.8721485  36.2414627
  19.6678581  21.3337727  34.6879425  19.5768833  21.1425362  33.7003937
  19.6418571  20.0645885  35.4469795  19.7303963  20.3712692  36.4891930
  18.2648811  19.4535542  35.3380356  17.5059090  20.0775795  35.8099022
  17.8389912  19.0620461  33.9195290  18.3716717  18.1966496  33.5252724
  16.7865391  18.7849979  33.9802704  17.9745502  19.8774204  33.2089653
  18.1069946  18.1902218  36.2124100  18.3037109  18.5000191  37.2387733
  17.1253643  17.7335911  36.0859108  18.8231735  17.4040909  35.9732704
  20.8045063  19.0952415  35.2009010  21.0529118  18.7626724  34.0611038
  21.3934994  18.5432034  36.2641487  21.2968559  18.9411297  37.1874123
  22.3658142  17.4389305  36.2045326  21.9857368  16.7598171  35.4413490
  23.7477417  17.8716183  35.6907921  23.4740295  18.5546722  34.8866615
  24.6331463  18.6287556  36.7296677  25.5997677  18.9913540  36.3800125
  24.0783768  19.4257507  37.2247734  24.6955223  17.8376732  37.4769249
  24.5008373  16.7939777  35.1171150  25.2239170  17.1031647  34.5665169
  22.5345421  16.6172199  37.4717178  22.2952137  17.0422688  38.5987587
  22.8486843  15.3189497  37.3107224  23.3273468  14.9715147  36.4920197
  23.0426407  14.4483385  38.4238281  22.4448547  14.7837276  39.2713356
  22.4189968  13.1047974  38.0294266  21.5272942  13.1377420  37.4034195
  23.1092663  12.6595573  37.3129158  21.9518299  11.9413891  39.4539871
  23.1043930  11.2722540  39.5475922  24.5620842  14.1737356  38.6543503
  25.3395901  14.5237007  37.7839661  24.9430771  13.5681782  39.7932968
  24.1971188  13.4220514  40.4583473  26.2849731  13.1245403  40.1144409
  26.8637257  12.9758644  39.2028236  27.1158180  14.2707157  40.8536873
  28.1090908  13.8340454  40.9577484  27.1756210  15.1297979  40.1854782
  26.4923248  14.8192415  42.1569252  25.4190369  14.6409130  42.0909729
  27.0001755  14.2292891  42.9199066  26.7453671  16.6032391  42.4146805
  25.8291931  17.2900944  41.0882759  25.8745995  18.3791256  41.0810814
  26.1867313  16.9566765  40.1140556  24.7705421  17.0524044  41.1924973
  26.1772079  11.8166065  40.9198418  25.1601887  11.5733099  41.5456314
  27.2589226  11.0018883  40.9554863  28.1167831  11.3243361  40.5309830
  27.3284569   9.8766756  41.8705292  26.4134445   9.2858963  41.8277092
  28.3825245   8.8253727  41.3668480  27.9800301   8.4718351  40.4175797
  29.2959805   9.2821150  40.9859467  28.6794338   7.5401945  42.2454643
  29.1100082   7.9007230  43.1796646  27.7904930   6.9612255  42.4958382
  29.6090870   6.5764499  41.5023766  29.6215744   6.5058784  40.2774963
  30.3754692   5.8383832  42.1504593  30.8936882   5.1517067  41.6212845
  30.4021034   5.9212246  43.1567039  27.5816803  10.3175621  43.3318214
  28.3333130  11.2372952  43.6643333  27.0257893   9.5182085  44.2361145
  26.4084930   8.7998486  43.8853874  27.1545448   9.6110315  45.7009850
  26.8817654  10.5658503  46.1504440  26.1353512   8.5968504  46.1580925
  25.1512604   8.7780409  45.7258492  26.4751606   7.6189971  45.8168640
  25.8913746   8.4700222  47.6862755  25.4397297   7.4899635  47.8399086
  26.8572922   8.5504713  48.1849060  24.9047775   9.5002213  48.0400085
  25.3320541  10.6674604  48.3322105  23.6952801   9.1961727  48.1359177
  28.6172333   9.2186975  46.1384583  29.1504440   8.2115774  45.5863876
  29.1748695   9.8239861  47.2356644  28.6877441  10.6116877  47.6385727
  30.3507614   9.3510952  48.0630493  31.2356777   9.3790207  47.4272423
  30.5676250  10.2363396  49.3016891  30.7846069  11.2368116  48.9274216
  29.6289921  10.2980261  49.8523903  31.7078056   9.7377167  50.1951141
  31.5496387   8.7252874  50.5666924  32.5995712   9.6018963  49.5832291
  32.1787834  10.7468929  51.6099739  33.6002464   9.8573055  52.3588905
  34.5488281   9.9488478  51.8298264  33.7858315  10.4108782  53.2793388
  33.2224236   8.8542242  52.5568275  30.1975079   7.8921432  48.4860725
  29.1616364   7.5205951  49.0007858  31.3141994   7.1490045  48.4558640
  32.1907425   7.5664139  48.1773949  31.4451752   5.7005806  48.7035942
  30.5383816   5.2200046  48.3363380  32.7014618   5.0964384  47.8994942
  32.8458900   5.5737119  46.9302406  33.6412315   5.3910346  48.3665543
  32.7761421   3.5943093  47.6294365  33.9000206   3.0249534  47.6268463
  31.7158089   2.9846513  47.4170914  31.5215054   5.4167094  50.1972046
  32.5001945   4.8420506  50.6487808  30.5093460   5.8454180  50.9825058
  29.7820606   6.3289323  50.4751892  30.2299290   5.5831919  52.4066658
  31.1767979   5.7528162  52.9192734  29.3204498   6.6977201  52.9790001
  28.3610191   6.6143279  52.4684715  29.0802956   6.5147901  54.4701195
  30.0177803   6.1775198  54.9122505  28.9231052   7.5042887  54.8994026
  28.3678112   5.7304854  54.7257156  29.9557953   8.0754452  52.7436295
  30.9375076   8.1736975  53.2069702  29.9039211   8.2934217  51.6769066
  29.3701630   8.8500919  53.2386589  29.7152557   4.2362761  52.6398430
  28.7389145   3.7846580  51.9974251  30.2798252   3.4793527  53.5675468
  31.0920715   3.7859099  54.0836678  29.8386555   2.1488895  53.9282074
  29.8107662   1.5452516  53.0210457  30.8661480   1.5095278  54.7352180
  31.0534821   2.1674292  55.5838470  30.6135578   0.0614929  55.2617645
  29.6037769  -0.0163789  55.6647224  30.6895390  -0.6981974  54.4838181
  31.3158684  -0.1503872  56.0679703  32.0646667   1.3632338  53.9961319
  32.7543411   1.4507785  54.6581612  28.5259094   2.0613418  54.6816597
  27.6398354   1.3552591  54.3109398  28.2715511   2.9100425  55.7047234
  29.0334244   3.5582042  55.8444901  27.0538769   3.0929549  56.5225258
  26.7181778   2.1299577  56.9072914  27.4451027   3.6951394  57.3425331
  25.8730793   3.8250425  55.7756920  24.9721184   4.3550744  56.4512825
  25.8828850   3.9013047  54.4409370  26.6257648   3.5075681  53.8812943
  24.8192692   4.7530146  53.7820473  24.6708279   5.6522007  54.3799820
  25.3185654   5.0223455  52.8513107  23.4634418   3.9608722  53.5057182
  23.2749462   2.7851791  53.8213501  22.4454498   4.6782002  53.1065979
  22.6594524   5.6521835  52.9464073  21.1356621   4.1961679  52.7197800
  20.9118690   3.2683475  53.2462425  20.1285686   5.3421264  53.0528336
  20.0621471   5.6371942  54.1000290  20.4581757   6.2261906  52.5070419
  18.7045689   5.1776490  52.5091896  18.8294621   5.3022614  51.4335632
  18.0689468   3.8754528  52.9728279  18.0897236   3.7594042  54.0564308
  17.0685062   3.8113639  52.5449104  18.7315292   3.0529823  52.7033348
  17.7607994   6.3230677  52.8691216  16.8880177   6.3292041  52.2161903
  17.5907135   6.4035134  53.9427605  18.3980713   7.1801701  52.6514778
  21.2681026   3.8315258  51.2298355  21.4429913   4.7564216  50.4901047
  21.3174744   2.5375936  50.8988342  21.2155399   1.8648059  51.6452026
  21.6428261   2.0389438  49.5839920  22.4767818   2.6372728  49.2170868
  22.0498943   0.5147938  49.6626892  21.1700478  -0.0782382  49.9122543
  22.2887688   0.2419176  48.6347885  23.1863174   0.2468006  50.6196709
  23.6996326   1.1942925  50.7835808  22.6791515  -0.1559647  51.4964027
  24.0654526  -0.8420842  50.0629997  23.4408226  -1.7238454  50.2059517
  24.2842751  -0.7374486  49.0003281  25.2825966  -1.1099117  50.9324989
  25.1132050  -1.4006772  51.9692535  25.7796307  -1.9484932  50.4448128
  26.2495346   0.0236149  50.8675270  26.0099277   0.8974187  51.3137970
  27.1950855  -0.2503764  51.0932808  26.2619095   0.2754825  49.8895149
  20.3928967   2.3341310  48.6917725  19.2607288   2.6598566  49.1412315
  20.5903053   2.1320074  47.3561325  21.5263710   1.9083060  47.0497971
  19.4878559   2.3066120  46.4066124  19.9338303   2.3374796  45.4125023
  18.6177330   0.9543617  46.3187408  18.0392532   0.7361960  47.2164345
  17.8720589   1.1582046  45.5502853  19.4292984  -0.3238685  46.0072021
  20.1066837  -0.2175980  45.1598778  19.9633389  -0.4682486  46.9463806
  18.3414745  -1.4617867  45.8090591  17.5883923  -1.6142727  46.5821800
  17.7623081  -1.3251271  44.8958244  19.0802422  -2.7776744  45.5209389
  19.4495220  -2.7306790  44.4964752  19.8367386  -2.9820194  46.2786026
  18.1412296  -3.9378493  45.4321404  18.6800900  -4.7917609  45.4560509
  17.5247288  -3.9186037  46.2319260  17.4988823  -3.8877356  44.6543350
  18.6119671   3.5288272  46.4727821  17.3330498   3.4189582  46.4777565
  19.2660580   4.6921434  46.7748451  20.2680283   4.5659642  46.7900963
  18.6984596   6.0377007  47.1361542  17.6292439   5.8268733  47.1154594
  19.0444069   6.4374084  48.5657005  18.7526951   5.7305822  49.3424873
  20.1051769   6.6269541  48.7298241  18.2475872   7.9181657  49.2143059
  17.0197926   7.4298129  49.0169792  18.9630051   7.0979748  46.0134811
  20.0023041   7.0668244  45.3045235  17.9333286   7.9042654  45.7212410
  17.0711327   7.7631040  46.2279892  17.8494740   9.0710115  44.8281822
  18.8363857   9.2410374  44.3978424  16.7905960   8.9176369  43.7004852
  15.8085928   8.7262735  44.1330948  16.6169376  10.2850866  43.0410843
  16.1720638  11.0621672  43.6626396  17.6383247  10.6204634  42.8611107
  16.0856094  10.2109375  42.0922470  17.0871944   7.7300301  42.7859039
  16.9054985   6.8292885  43.3722115  16.3669376   7.7669415  41.9686127
  18.4286270   7.7097054  42.1039276  18.5133381   6.9513192  41.3256149
  18.6532516   8.7335587  41.8049812  19.1443024   7.3919678  42.8621864
  17.5592937  10.3102007  45.6920166  16.5434036  10.3527136  46.4292221
  18.4405308  11.3413572  45.5925179  19.2343559  11.3168230  44.9685440
  18.2166729  12.6648951  46.1886978  17.2678604  12.6862011  46.7247925
  19.3886051  13.0500917  47.1382408  20.2733593  13.4300842  46.6274414
  19.0167732  13.9103098  47.6948967  19.8322449  11.9535913  48.0555534
  19.0132904  11.5922384  48.6775131  20.2204723  11.0868597  47.5206108
  21.0000057  12.3207273  48.9477692  21.6931629  12.9621363  48.4034996
  20.7068348  12.8538685  49.8521538  21.7884579  11.1516323  49.3401451
  22.4727917  10.7618732  48.7077904  21.7493305  10.5458460  50.4933090
  21.0543919  10.8394156  51.5793571  21.2125969  10.3390646  52.4423294
  20.7885284  11.8053226  51.7075768  22.5257149   9.5541754  50.6936073
  22.6918411   9.1434498  51.6012459  22.9397640   9.0809202  49.9032288
  18.0757999  13.7492170  45.0296173  18.7212696  13.6143847  44.0431099
  17.3333435  14.8243675  45.2856483  16.9415417  14.7684679  46.2148781
  17.2281036  16.0748577  44.5112915  17.8687401  16.0523930  43.6297112
  15.7483339  16.3697357  43.9959183  15.3962669  15.4287910  43.5731010
  14.7217312  16.6835423  45.0891647  14.7562237  15.9744263  45.9162445
  14.8179607  17.6400299  45.6029472  13.6942244  16.7174511  44.7269745
  15.6987133  17.4346848  42.9001083  16.3528976  17.2016907  42.0599518
  14.6480265  17.4318314  42.6100235  15.8808193  18.4542389  43.2398872
  17.6498146  17.2296124  45.3947258  17.4018116  17.2395477  46.5837479
  18.1922569  18.2458305  44.7687683  18.4262638  18.1621838  43.7898178
  18.2187080  19.6805611  45.2837486  17.4247665  19.7435570  46.0279198
  19.5412025  20.0898819  45.8240318  19.9183216  19.3415680  46.5211029
  20.3069210  20.1656723  45.0520020  19.4908981  21.4140320  46.6169243
  19.3276024  22.3026066  46.0071144  18.6373005  21.3519115  47.2919159
  20.7653027  21.8368816  47.8175888  22.2467308  22.1325264  46.6926422
  21.9823265  22.9195824  45.9864311  23.1839619  22.2665386  47.2327690
  22.4115429  21.3125610  45.9936409  17.7820759  20.6456966  44.1746216
  18.2139931  20.5820847  43.0395432  17.0657940  21.7742882  44.4318199
  16.4937592  21.7836113  45.2641602  16.7299767  22.9046841  43.5954437
  17.0744591  22.7302990  42.5761147  15.2622232  23.0783253  43.4314613
  14.7814627  22.9888744  44.4056129  15.0661297  24.0430107  42.9634476
  14.7903605  22.1038704  42.3857384  15.4501286  22.2637482  41.5329514
  14.8425283  21.0795307  42.7546730  12.9922447  22.4105682  42.0369263
  12.1732388  21.5893250  43.4330673  12.5608835  20.5712280  43.4692841
  12.5745440  22.0724335  44.3239479  11.0953779  21.5213795  43.2857628
  17.4069633  24.2023773  44.2022285  17.6243076  24.2118168  45.3680878
  17.5730228  25.2180519  43.3997459  17.5228024  25.0638809  42.4028435
  18.0192738  26.4706631  43.8159523  17.8551922  26.4938660  44.8932838
  19.5304451  26.5598373  43.4682312  19.5624905  26.3839760  42.3929863
  20.1787472  27.7585640  43.9972572  19.8330593  28.6398926  43.4570160
  19.8656960  27.9959602  45.0139885  21.2533207  27.5912743  44.0707779
  20.3150883  25.4307785  43.9190483  20.2997761  25.5733185  44.8682823
  17.3666878  27.5504436  43.0992393  17.2881374  27.6524391  41.8520966
  16.7051430  28.4474812  43.8446159  16.8324795  28.3728676  44.8437767
  15.5107145  29.0926685  43.3687897  15.6127415  29.1994705  42.2888451
  14.2710629  28.0584221  43.3971329  14.3552027  27.2801952  42.6385880
  14.2355785  27.2895432  44.6727982  14.4652586  27.9174976  45.5336227
  13.2652197  26.7962933  44.7294312  14.9598866  26.4753838  44.6976814
  12.7958317  28.7165298  43.3328629  12.3866005  29.1283131  44.2553940
  12.6438723  29.3892384  42.4887810  12.0776796  27.9352703  43.0838623
  15.2880583  30.3515224  44.1634598  15.4960852  30.3914433  45.3932114
  14.8183517  31.4087372  43.4947472  14.5634470  31.2462902  42.5310402
  14.4490461  32.6333122  44.1127625  15.2420120  33.0186806  44.7537003
  14.4337883  33.6476707  42.9740486  15.4544125  33.6877708  42.5934944
  13.8620920  33.2731667  42.1249237  14.0435591  35.1183815  43.1950951
  14.1001596  35.5526199  42.1969299  12.9998579  35.2059326  43.4969635
  14.9676323  35.9910545  44.0840530  15.3984642  35.6768608  45.2056541
  15.4541311  37.0619087  43.5311623  16.2423592  37.4793549  44.0050125
  14.9273643  37.4779053  42.7764702  13.1632719  32.6520004  44.9000702
  12.1670132  32.0802269  44.5060577  13.2243767  33.1228485  46.1286392
  14.0707703  33.6153259  46.3759880  12.1066322  33.0041237  47.1469383
  11.1591930  33.1788826  46.6371155  12.0172825  31.5463486  47.6688919
  11.8134365  30.9046555  46.8116989  13.2846880  31.0781097  48.4533272
  13.1021338  30.0244598  48.6645050  14.1196547  31.2427998  47.7722893
  13.6035061  31.5299168  49.3926468  10.9339952  31.3451462  48.5235176
  10.1357765  31.5034389  48.0142136  12.1404772  34.0108871  48.3493423
  13.2341862  34.4085960  48.8161316  10.9750433  34.5364380  48.6916351
  10.0907450  34.2095413  48.3293457  10.7293596  35.4210052  49.8452950
  11.4587727  36.2233429  49.9562645   9.5130205  36.2403870  49.4711571
   9.5087900  36.5178185  48.4170647   8.6776533  35.5872879  49.7235870
   9.4757881  37.5696487  50.2377472  10.5452833  38.2838821  50.2177773
   8.3920822  38.0231628  50.7555389  10.5830250  34.6956177  51.1846809
  10.4403677  35.3340187  52.2526436  10.6574936  33.3981781  51.1977310
  10.9626017  33.0100136  50.3166313  10.3889313  32.5237694  52.3144608
   9.5420380  32.9003334  52.8881073   9.8919573  31.1599274  51.6979218
  10.7329884  30.8252964  51.0906410   9.6563225  30.2134781  52.8229027
   9.0826893  30.6399441  53.6458054   9.2346935  29.2512989  52.5321426
  10.6005001  29.9158936  53.2790527   8.5834808  31.2185059  50.8020668
   7.6588335  31.4153366  51.3446312   8.6553936  32.1063385  50.1738319
   8.6728735  30.3005447  50.2211609  11.6777630  32.3766098  53.0972443
  12.7457018  32.1073227  52.4884224  11.5901957  32.4420280  54.4409561
  10.4901514  33.0233612  55.1658096   9.8051443  32.2092972  55.4028091
   9.9920559  33.8261528  54.6221886  11.0341892  33.5464134  56.5088615
  10.2890835  33.4130173  57.2931557  11.2442570  34.6124344  56.4217720
  12.2636852  32.6886177  56.7552452  11.9286747  31.7929382  57.2783432
  13.0709696  33.2469521  57.2292328  12.7368803  32.2823029  55.3564186
  13.4477406  33.0179062  54.9800339  13.3953991  30.9043674  55.4167480
  12.7609959  29.8959961  55.1467781  14.6608391  30.8890610  55.7696648
  15.1363297  31.7790775  55.8130188  15.4369583  29.6071529  55.9462471
  15.4121943  29.1823006  54.9427605  16.8908253  29.9344330  56.3351936
  17.2113457  30.6547031  55.5824814  16.8470173  30.5304165  57.2467804
  17.8181381  28.7120934  56.4146080  17.5146580  27.9837894  57.1666565
  17.9986076  28.2570534  55.4407158  19.1393032  29.2446194  56.8624001
  19.4955807  29.4393291  58.0229530  19.9944820  29.5470982  55.9032135
  20.9243355  29.8380604  56.1693306  19.8123760  29.3902836  54.9222221
  14.8178635  28.4899597  56.8107452  14.8093443  27.2689018  56.4653778
  14.1480761  28.8995781  57.9090385  14.1524773  29.8891430  58.1111412
  13.3913069  28.0376053  58.8209457  14.0901957  27.2220592  59.0067940
  13.3311081  28.6396523  60.1868210  12.7295637  27.9893036  60.8218727
  14.3342562  28.6947880  60.6096115  12.5973139  29.9807816  60.1076965
  13.0540419  30.8592033  59.3077126  11.5405788  30.0920544  60.7626381
  11.9905024  27.6116753  58.2956581  11.3931227  26.6332111  58.7336693
  11.5065413  28.3526993  57.2651825  12.0947037  29.0582771  56.8452721
  10.1561108  28.2418499  56.7135429   9.4753313  27.7731113  57.4241257
   9.5331078  29.5440788  56.4884262  10.2207603  30.1165371  55.8659096
   8.5720844  29.3963776  55.9957619   9.3456593  30.3338528  57.7932472
  10.3444786  30.3319836  58.2296638   9.0059195  31.3366070  57.5340843
   8.3994360  29.7518673  58.7776642   7.3135767  29.2196999  58.5028305
   8.7108097  29.8584595  60.0965767   9.6446838  30.1040096  60.3926926
   8.0163507  29.5167694  60.7454796  10.1208305  27.4001789  55.3708725
   9.0620193  26.9014740  54.9719810  11.3421116  27.0919456  54.8069115
  12.1531086  27.5641022  55.1803436  11.4657469  26.0958862  53.7410545
  10.6491213  26.2799282  53.0429420  12.8738604  26.0767136  53.0481644
  13.6702280  26.0218983  53.7903900  13.0275536  24.9216976  52.0872688
  13.0355835  23.9682255  52.6154060  12.3537636  24.9603043  51.2313385
  14.0150652  24.9980145  51.6321907  13.2475882  27.4419956  52.4436493
  13.2784719  28.2565708  53.1672630  14.2408609  27.3749809  51.9997826
  12.3293447  27.9333649  51.3113327  12.5314894  28.9757061  51.0648460
  12.4232979  27.3218861  50.4139137  11.2886877  28.0377541  51.6183128
  11.0047483  24.6985493  54.1598282  11.3562813  24.3214073  55.2901535
  10.2855873  23.9190102  53.3262100  10.0306311  24.2776031  52.4170837
   9.9677105  22.4855614  53.5740395  10.3160038  22.2746983  54.5851440
   8.4665499  22.2398148  53.4711723   8.1983461  22.3681622  52.4225121
   8.2032795  21.2088852  53.7077560   7.7419515  23.2784004  54.4284782
   7.9657001  24.3191872  54.1943779   6.6574769  23.2359390  54.3274155
   8.1312456  22.9935570  55.8761406   9.1281166  23.2631283  56.2249680
   7.4830556  23.5945587  56.5139084   7.9013791  21.6179066  56.3112221
   7.4364743  21.0266533  55.6371384   8.3182964  21.0694904  57.4536362
   8.7388277  21.7586613  58.4662132   9.3267412  21.3199272  59.1604576
   8.8719721  22.7576218  58.3995056   8.3543739  19.7775116  57.5914917
   8.7544832  19.4562073  58.4614182   8.1339407  19.1018791  56.8738327
  10.7105961  21.4716721  52.6479912  10.3866062  21.3438396  51.4557571
  11.7321949  20.7717152  53.1993027  11.9383078  20.9848022  54.1648140
  12.4777193  19.7120476  52.5148735  12.6606607  19.8784714  51.4533043
  13.9762049  19.6427116  53.0507393  14.1090984  19.3276882  54.0857277
  14.4910049  18.9596844  52.3750534  14.6109381  21.0704460  53.0366440
  15.3974228  21.6258831  52.0041466  15.9178963  22.7692795  52.3842926
  16.4469090  23.5278931  51.8265762  15.5633459  22.9277401  53.6537628
  15.8278790  23.7176476  54.2248764  14.7264309  21.9625950  54.0845490
  14.2948017  21.9245892  55.0738182  11.8536673  18.3708992  52.6886292
  11.7383881  17.8638783  53.8188705  11.4718447  17.6616955  51.6158638
  11.7093201  18.0232735  50.7031937  10.4738455  16.5275249  51.6203423
   9.8769836  16.3665199  52.5180855   9.4289322  16.6218815  50.5513496
   9.7666597  16.6912994  49.5173187   8.4385967  15.4800873  50.4055710
   7.8450971  15.4080381  51.3169785   7.7919645  15.7528238  49.5715523
   8.9636517  14.5876570  50.0650024   8.7035503  17.9836483  50.7955246
   9.3790941  18.7577133  51.1596031   8.1928806  18.3140011  49.8909874
   7.9443250  17.9046612  51.5736237  11.2131090  15.2476740  51.4204292
  11.9703827  15.2224665  50.4206085  10.9838295  14.1715021  52.2403793
  10.4821835  14.3405924  53.1005363  11.6166162  12.9720917  52.0405807
  12.0112123  12.9956474  51.0247879  12.7748547  12.8081360  53.0797005
  12.2421780  12.8691282  54.0287170  13.0903749  11.7671957  53.0090714
  13.9975281  13.6854658  52.9899635  13.9423666  15.1024742  53.1019211
  13.0234289  15.6695938  53.1202660  15.1061563  15.9017849  52.9669228
  15.1391525  16.9746189  53.0867043  16.4165134  15.3389387  52.8001137
  17.5089760  16.1251774  52.7440453  18.2837334  15.5600595  52.7886429
  16.4181461  13.9778938  52.6490669  17.3873482  13.5067720  52.5777245
  15.2538996  13.1526451  52.7474480  15.3845530  12.0862656  52.6371574
  10.5691614  11.8297777  52.1365623   9.6218023  11.8565540  52.8886452
  10.7032614  10.7888737  51.2725525  11.5121136  10.7993546  50.6677780
   9.6416178   9.7959871  50.8842392   8.8532753   9.7650070  51.6363411
   9.1153908  10.2209339  49.4460945   9.8802757  10.2254877  48.6695404
   8.4443550   9.3950195  49.2101212   8.2581377  11.4876900  49.4094734
   8.7136946  12.2656345  50.0221481   8.0786114  12.1543798  48.0222282
   7.4400539  11.6447983  47.3006592   7.8072648  13.2077684  48.0918312
   9.0054073  12.0669861  47.4552078   6.7425647  11.2506447  49.9065208
   6.7338295  10.7994251  50.8987045   6.2549257  12.2241268  49.9579239
   6.1273813  10.6240892  49.2607040  10.2487478   8.4271593  50.7340164
  11.4931211   8.2861853  50.7692833   9.4733973   7.3452802  50.6532669
   8.4802742   7.4954038  50.7594223   9.7291336   5.9030952  50.8695335
   8.8177786   5.3558912  51.1105728  10.0412703   5.2264519  49.5241661
  10.9583607   5.6424193  49.1070137  10.1801796   4.1487126  49.6095428
   8.9135103   5.3830004  48.5062332   8.9150400   6.4522033  48.2943268
   9.2856083   4.8773808  47.6151695   7.5004754   4.8352833  48.8565559
   6.6346335   5.6903081  49.1766014   7.3782730   3.5932925  48.8658752
  10.6505127   5.6948657  52.0750084  10.3909473   6.2758031  53.1026230
  11.6726980   4.8625655  51.9266815  11.6550922   4.3140535  51.0787888
  12.6706734   4.5330219  52.9236526  12.0627451   4.4815426  53.8269157
  13.4115515   3.1623290  52.7372284  14.1084757   3.3286519  51.9158058
  13.9436245   2.9410040  53.6624374  12.4235125   2.0708416  52.4165001
  11.7362843   1.9746317  53.2570686  11.9008017   2.3542128  51.5029488
  12.9714537   0.7045698  52.2127495  13.5296879   0.7539542  51.2778511
  13.7073126   0.4863047  52.9866867  11.9221649  -0.3811333  52.1753235
  11.4226904  -0.5232595  53.1336670  11.1735725   0.0273423  51.4964561
  12.4316826  -1.6401553  51.6480980  13.3258085  -1.7770689  52.0974236
  11.7939596  -2.3797078  51.9059181  12.6067038  -1.5024413  50.6629562
  13.6180916   5.6666694  53.2712440  14.3505926   5.5601864  54.2390823
  13.6174707   6.7513351  52.5548172  12.9769802   6.7963271  51.7751656
  14.4070635   7.9685135  52.8239822  15.3948069   7.6662545  53.1719780
  14.6580706   8.7216492  51.5281258  15.2915955   9.5825863  51.7415123
  15.1641483   8.0120802  50.8735275  13.6809416   8.9961014  51.1306419
  13.6902218   8.9934883  53.7670479  14.2490969   9.9147139  54.2787895
  12.4498348   8.6814556  54.1940308  12.0119276   7.8866587  53.7505951
  11.7472286   9.6997166  54.9659576  11.8476620  10.6691132  54.4778137
  10.2604418   9.3035507  55.1392860   9.9858627   9.0999470  54.1042671
  10.1112833   7.9689412  55.9318085  10.6347275   8.1173582  56.8763084
   9.0801125   7.6286602  56.0266571  10.5999250   7.2446470  55.2800980
   9.3557196  10.4489031  55.5647278   9.0596075  10.4373894  56.6136780
   9.8203487  11.4255323  55.4290199   8.4002981  10.4657755  55.0403366
  12.2604046   9.8983898  56.3764915  12.0775681  10.9709654  56.9696770
  12.9899025   8.9584303  56.9859543  13.0735264   8.0592299  56.5336876
  13.7851772   9.1218214  58.2354736  13.1449776   9.3645582  59.0836029
  14.4259634   7.7737017  58.6020889  14.8978167   7.9715810  59.5645370
  13.4657831   6.5849285  58.8368950  12.9449596   6.4960012  57.8835144
  14.0018110   5.6522899  59.0128441  12.8038397   6.9065285  59.6409492
  15.5324879   7.3332410  57.6937981  16.4229584   7.9397883  57.8588943
  15.7162886   6.2638454  57.7972908  15.2270002   7.4713216  56.6566353
  14.8603964  10.2183590  58.1827545  15.3763704  10.6059370  59.2895126
  15.2696247  10.7296381  57.0215187  14.8267021  10.3447428  56.1994629
  16.2750206  11.7965164  56.8527756  16.9430943  11.8059206  57.7139893
  17.2005844  11.5212631  55.6322479  16.4345760  11.3811398  54.8695526
  17.9418812  12.3032913  55.4678917  17.9706554  10.2030296  55.7640495
  17.3015919   9.3776293  56.0072937  18.5178909  10.1042757  54.3340836
  19.2273197  10.9015131  54.1122131  19.0927124   9.1786947  54.3027840
  17.7074566  10.1726379  53.6083946  19.1600018  10.2773438  56.7222404
  19.4253750  11.2397547  57.1597786  19.0406227   9.4795074  57.4552536
  20.0336533   9.9515648  56.1577034  15.6627798  13.2133560  56.7704849
  16.4266453  14.1288977  56.5556526  14.2989674  13.4116545  56.8781967
  13.6747780  12.6546764  57.1179276  13.5898552  14.6740799  56.8384590
  13.8167143  15.1655350  55.8923607  12.0105114  14.4983521  56.7854538
  11.5955639  15.5052338  56.8313904  11.7126760  13.8290691  55.9783249
  11.5059462  13.8841515  58.0932007  12.1492939  13.1067028  58.5052414
  11.4793224  14.7450876  58.7611694  10.0891047  13.3695450  57.7659264
   9.4307928  14.0277119  57.1988754  10.3121004  12.4716759  57.1895561
   9.2406387  12.9276428  58.9282913   8.6165819  13.6355743  59.2881317
   9.3513079  11.8213091  59.6088142  10.1124010  10.7610292  59.2019920
  10.6287642  10.9647217  58.3582001  10.1627893   9.8312349  59.5932007
   8.7806540  11.6751614  60.7350006   8.9873304  10.9060535  61.3561783
   8.1845255  12.4483843  60.9935684  14.0279398  15.5504885  58.0476799
  13.8751459  15.1745129  59.2050133  14.5984602  16.7542820  57.7840118
  15.0351686  17.3611240  56.4668121  14.2167530  17.6677971  55.8154678
  15.7663727  16.7037354  55.9964066  15.8470583  18.5864449  56.7956429
  15.7573233  19.4072895  56.0841217  16.9207039  18.3992367  56.7771683
  15.3846922  19.0429382  58.1866531  14.4607544  19.6054001  58.0522079
  16.1904411  19.6140385  58.6478653  15.1431026  17.6480865  58.8631516
  16.1193848  17.3296871  59.2286606  14.4013300  17.9918060  60.2049637
  14.9807882  18.0872936  61.3065147  13.0742950  18.0458984  60.1648560
  12.6196518  18.0314064  59.2630806  12.3157206  17.9943600  61.4581490
  12.6322336  18.8625793  62.0361786  10.7884197  18.1166649  61.2375793
  10.3942270  17.1953506  60.8087502  10.3653069  18.1735306  62.2404976
  10.2373495  19.3101482  60.5469513   9.0330572  19.4264488  60.2898026
  11.0538445  20.2306061  60.2697029  12.6223679  16.8116035  62.4265175
  12.6830034  16.9886303  63.6150208  12.6476126  15.5819120  61.8722687
  12.5349388  15.4913082  60.8726692  12.9977255  14.4311609  62.6505127
  12.2995167  14.4562445  63.4871674  12.6611061  13.1717205  61.8440895
  11.6183348  13.1815233  61.5268631  13.3404531  13.2247772  60.9933395
  12.9759588  11.8516197  62.6109047  14.0281916  11.7519321  62.8773003
  12.1273851  11.7008057  63.7499924  12.5781908  12.2679844  64.5643463
  11.1003132  11.9320126  63.4675636  12.1734324  10.6565561  64.0590591
  12.6793785  10.6833668  61.6024399  13.2760067  10.6808691  60.6902275
  12.8442078   9.6925879  62.0258636  11.6387577  10.6276026  61.2829094
  14.3217459  14.5602074  63.3249626  14.4936581  14.3067007  64.5301895
  15.3599796  14.8615847  62.5114632  15.1424828  14.9210949  61.5269547
  16.7793274  15.2230177  62.9152336  17.2722855  14.2942839  63.2025414
  17.5855808  15.8642397  61.7982635  17.2145138  16.8681889  61.5921211
  18.6377296  15.9639893  62.0649757  17.5200806  15.1220684  60.6433334
  18.0347824  14.3121300  60.6171837  16.7846203  16.2272511  64.0409317
  17.5075455  16.1526947  64.9702835  16.1079006  17.3421211  63.8153458
  15.5814247  17.5207348  62.9721260  15.8732662  18.3861713  64.8503571
  16.8104706  18.8597717  65.1426773  15.1043978  19.5355530  64.1296158
  15.6356678  19.7755547  63.2086105  14.1042490  19.1903210  63.8676682
  15.2242880  20.7417946  65.0845261  14.7937365  20.6019154  66.0760651
  16.5447521  21.4654140  65.2729645  16.3397217  22.3219662  65.9151382
  17.1767654  20.7124062  65.7437515  16.8702831  21.8131332  64.2925491
  14.3137455  21.8748684  64.5276871  14.2350245  22.7694511  65.1454391
  14.6433973  22.0958824  63.5125084  13.2814579  21.5290031  64.5811768
  15.1799412  17.8950768  66.0925522  15.7337503  18.1368446  67.1874161
  14.0428944  17.1153164  65.9973450  13.6387424  16.9930496  65.0798416
  13.4281349  16.4110260  67.1502914  13.0702438  17.1824780  67.8321152
  12.2375202  15.5626469  66.7258377  12.4754362  14.6684198  66.1497726
  11.4914865  15.1054792  67.9438171  11.2014484  15.9710464  68.5394440
  10.6495934  14.5080147  67.5940323  12.0520945  14.3676262  68.5177460
  11.3022356  16.3395367  65.9790955  11.7240238  16.7591457  65.2256851
  14.3872547  15.4879532  67.9091110  14.4446955  15.5811281  69.1366425
  15.2021370  14.7229977  67.1756821  15.1781607  14.7508354  66.1663513
  16.1995754  13.7386618  67.7508316  15.6728344  13.2586040  68.5755692
  16.7512569  12.8294878  66.5434418  17.0144043  13.4834185  65.7120361
  17.5973492  12.2121420  66.8452835  15.5739698  11.8531160  66.1488647
  15.3161106  11.3339148  67.0719299  14.6767673  12.3628769  65.7977676
  16.0264587  10.7797976  65.2071152  16.3426552  11.2839050  64.2938843
  16.8749180  10.2886248  65.6835327  14.9940729   9.7308378  64.8008118
  14.6264477   9.2499056  65.7072601  14.0983419  10.2138319  64.4103088
  15.5700502   8.7669754  63.8266563  16.4816189   8.5500212  64.2035828
  15.0909424   7.8943439  63.6561432  15.6574469   9.1860666  62.9118729
  17.2461910  14.4591455  68.4748001  17.5058289  13.9912205  69.5656815
  17.9143867  15.4647579  67.8800354  17.7328281  15.7623129  66.9320984
  18.8980141  16.2595062  68.6529312  19.6208344  15.6178284  69.1567993
  19.7721939  17.1431942  67.7347794  20.3846912  16.6046543  67.0116501
  19.1564560  17.8364830  67.1617889  20.8506279  17.9560909  68.5615387
  20.8515377  19.1731815  68.7189636  21.7075539  17.2203827  69.2150497
  21.8291740  16.2197094  69.1521072  22.4181995  17.7258835  69.7245102
  18.2427044  16.9356728  69.8222656  18.8034344  16.8503418  70.9653931
  17.0579586  17.5285892  69.6359253  16.6087551  17.4059830  68.7396622
  16.6431122  18.5438347  70.6055069  17.5421638  19.0188046  70.9981995
  15.7331810  19.6393490  70.0061188  15.3588095  20.2970619  70.7905655
  16.5816746  20.5125694  68.9556732  16.8609200  19.8893909  68.1061020
  15.9245586  21.2802505  68.5470581  17.4319363  20.9395428  69.4875031
  14.5886621  18.9727764  69.4229965  14.8321352  18.8859634  68.4984512
  15.9363346  17.9219913  71.8846970  15.5482540  18.5968647  72.8639603
  15.8720331  16.6172256  72.0216751  16.1203423  16.0473251  71.2256470
  15.5134192  15.7543583  73.1728821  14.5650415  16.0254230  73.6367874
  15.3959532  14.3662224  72.6018066  14.8881369  14.3634634  71.6373291
  16.3604698  13.8953352  72.4118805  14.6289425  13.4502020  73.5123749
  14.8248863  12.4000874  73.2956619  14.8861866  13.7743406  74.5207672
  13.1145058  13.5470142  73.3661041  12.3551884  13.3559771  74.3739777
  12.5355701  13.6325102  72.2515182  16.5753307  15.8220854  74.2601166
  16.1884727  15.7870321  75.4288101  17.8572769  16.0738754  73.9296112
  18.0673046  16.1784019  72.9472351  19.0161610  16.1803093  74.8083649
  18.9192257  15.4511328  75.6127319  20.3020535  15.9962540  73.9303665
  20.4065819  16.8870735  73.3109970  21.0910549  16.0254803  74.6818466
  20.4588814  14.7595711  72.9992676  19.8033562  14.7888727  72.1289062
  21.8733845  14.7546616  72.5195389  22.0367432  13.7691765  72.0833740
  22.1175785  15.6396284  71.9319153  22.5709152  14.9180908  73.3410339
  20.2056026  13.4574862  73.6895599  20.3203773  12.6924267  72.9216919
  20.9230824  13.1966572  74.4675598  19.2066288  13.4569588  74.1256256
  19.0443058  17.5025806  75.5309906  19.0633125  18.6003399  74.9057388
  19.2853565  17.3665352  76.7606049  23.5684490  13.4214783  28.8256493
  23.6517982  12.5269222  28.2121773  24.4764900  13.7169800  29.3468628
  22.5219154  14.2943249  28.6772900  22.4313622  15.5988417  29.4332714
  21.3968925  16.2601490  29.4254570  23.4205952  16.0921364  29.9221725
  21.4001923  13.8824320  27.9907894  20.6481457  12.7158356  28.4499969
  21.2884579  11.8626194  28.7053623  19.8288460  12.3303909  27.3032284
  20.2892590  12.4751348  26.3282413  18.5452595  11.8685493  27.4129295
  18.0155754  11.7641945  28.7200222  17.1005440  11.2025032  28.8978386
  18.5561657  12.3425407  29.8170204  17.9890919  12.3882589  30.7443123
  19.8307838  13.1490278  29.6960106  19.5970402  14.2156725  29.5919743
  20.6242714  12.8949776  30.9279976  20.7563019  11.9318838  30.8861866
  17.6591454  11.5986319  26.2132187  18.1397686  11.5454750  25.0988255
  16.4231529  11.6731300  26.2618484  42.5649376  21.2935829  42.7992210
  43.1663818  20.5581493  42.2691879  43.0513306  22.2663631  42.8247032
  41.4261055  20.9354839  43.4954300  40.6483154  21.7795811  44.3838425
  41.0081940  22.9127598  44.5073280  39.7956352  21.2632694  45.0752983
  41.0325317  19.5774097  43.3776588  40.4049454  19.0307178  42.2239723
  40.2775803  17.9644985  42.4478989  41.2677345  19.2207031  40.9962425
  42.1919594  18.6489086  40.9473801  41.0662804  20.3430462  40.1954956
  39.9865837  21.2784500  40.5349312  40.0323372  22.2159367  39.9840965
  39.0291519  21.0053520  41.3867111  38.2970963  21.7606621  41.6644325
  39.0057983  19.6896534  42.0582008  38.5250626  19.7651558  43.0412521
  38.2303848  18.7965107  41.2860222  37.5675011  18.4896202  41.9287796
  42.0170326  20.6585445  39.0808449  43.1567497  20.2079468  39.2416725
  41.7665253  21.5507793  38.3065948  20.9722290  13.4146671  55.7486916
  20.2024708  14.1456556  55.9867172  21.4476509  12.9790516  56.6248970
  21.2853985  13.2767162  54.4005165  20.4743137  13.9775324  53.3748283
  19.8034725  14.9729176  53.6752281  20.7912979  13.6722479  52.2287254
  22.3223934  12.5116854  53.9667015  23.5548115  12.1639948  54.7596970
  24.2666645  11.7804861  54.0184898  23.2102680  11.0200472  55.7436981
  22.1972427  10.6253242  55.7049599  23.9305077  10.8861828  56.8982010
  25.0900021  11.7317886  57.1437416  25.7583771  11.5762033  57.9884071
  25.2869167  12.8182297  56.3865585  26.2552280  13.3101063  56.4494667
  24.3496571  13.3345232  55.3531876  23.6699505  14.0440664  55.8407669
  25.0106792  13.9799433  54.2351227  24.2698364  14.2377567  53.6594391
  23.4416504   9.9641361  57.9894905  23.7569027  10.1165409  59.1613770
  22.4591446   9.2684898  57.8227119   1.6112723  53.6025887  20.5462952
  40.5675926  42.2334480  55.1904869  16.3696442  50.8037033  59.1689148
  14.7114630  47.9800758  15.5829372  22.3554840  47.9794350  27.8599491
  72.4950104  20.6413746  79.7396622  28.2484112  12.9191809  76.6903305
  83.6898651  40.0828285  53.1505966  73.2481766  48.8389969  67.9903336
  82.7931824  61.9872971  42.2765617  82.0563812  62.5383568  42.0125847
  83.3541107  62.5677147  42.7910576   6.5436120  45.6831703  28.1177731
   6.8969693  46.5027504  28.4636898   6.0853810  45.9388847  27.3172321
  52.5459785  41.7338066  15.0359888  53.4988441  41.8092308  14.9850779
  52.3920135  40.8343697  15.3250208  78.7204285  54.8601837  37.3573494
  79.3197174  54.1289253  37.2078934  78.9393387  55.4929199  36.6732826
  10.8282928  60.7716103  21.0448818   9.9160776  60.8768120  21.3151188
  10.8003340  60.8060913  20.0887127  35.7493286  53.5868454  64.4830017
  35.4555817  53.0326729  63.7599258  35.5481110  53.0804214  65.2699432
  64.0666504  28.6929359  14.1103716  64.4157867  27.8173618  13.9439316
  64.7746964  29.2852364  13.8572378  16.9114151   4.5718145   9.0965414
  17.4745426   3.8082840   9.2235870  17.2794800   5.2397833   9.6749687
  73.5285797  43.5303841  85.2048340  74.0077820  42.7442932  84.9428101
  73.6160355  43.5577545  86.1576385  77.4875336  21.3580551  75.8637619
  77.1328201  20.8880463  75.1091080  77.2684860  20.8059483  76.6143799
  60.0381927  34.9483032  61.6265488  59.3060608  34.8360519  61.0202408
  59.7567444  35.6490021  62.2148018  47.8813591  31.6800213   2.8743181
  48.1222115  30.8368473   2.4905477  46.9258881  31.7029896   2.8215978
  14.0529032  51.2820244  63.4478340  13.8630829  51.9608345  64.0954590
  13.9214239  50.4587860  63.9181747  45.4688759  64.6880112  38.2499199
  44.9894829  64.4188461  37.4663620  44.8764038  64.4865036  38.9742126
  27.5732536  12.2037706  16.1112041  27.7520771  13.1429720  16.1576195
  27.7551842  11.9700117  15.2009897  59.3362541  66.4762802  32.2634735
  59.8746376  66.8200989  31.5506172  59.4128952  67.1301422  32.9583282
  85.3531036  11.1527319  64.4388657  86.1645966  11.6558456  64.5065842
  84.9325409  11.4822826  63.6446648  35.3212051  67.2742081   7.6890006
  34.9847984  68.1444931   7.4752946  34.5572891  66.7006226   7.6284866
  33.9716187  43.7348976  39.7478600  34.5590248  44.4888268  39.6951828
  34.4197044  43.0472755  39.2552834  77.2711945  68.6537476   8.0721102
  77.4543839  68.5582123   7.1374712  76.8940582  69.5297012   8.1539536
  40.1181717  45.6987572  78.0610352  39.6512299  44.9641457  78.4592133
  39.7500954  45.7673111  77.1800919  14.4392748  45.7848816  11.5557165
  14.8974371  46.5604706  11.2320213  14.6764393  45.0919647  10.9393978
  68.4725952  42.6545143  44.7155190  69.2094269  43.2372589  44.5318642
  68.8797913  41.8285599  44.9767189   9.9504833  36.6627655  22.9213486
  10.8719282  36.4357643  22.7962818   9.8898726  37.5778160  22.6470394
  47.1504173   5.1671491  12.7803783  47.0521126   4.3798552  13.3158560
  47.5145836   5.8197079  13.3785248  28.8768444  59.3800926  86.3776474
  29.1988392  60.2521820  86.6057053  28.1621418  59.2199287  86.9939041
  74.0326920  13.3877258  75.4807968  73.8092499  13.4488020  74.5520477
  74.8619003  13.8594303  75.5591660   3.2275681  19.3997822  55.6103439
   3.9538133  19.9926586  55.4172211   2.5821235  19.5811920  54.9271736
  67.0393829  34.8716393  20.2074032  67.9935074  34.8458443  20.2796631
  66.7701416  35.5464134  20.8306332   9.8760271  54.1920509  88.2761841
   9.5038280  53.6468010  88.9692917  10.0748091  53.5781288  87.5692062
  27.3831921  49.0170403  69.8256378  28.1634445  49.1448021  69.2860870
  26.8570786  48.3822060  69.3394089  78.5449905  29.5126648   3.5850396
  79.0973434  30.2943802   3.5928864  78.2546463  29.4154339   4.4919462
  11.2942123  32.3147888  18.0631771  11.8533239  33.0359573  18.3522091
  11.7309742  31.9705067  17.2841129  86.3856277  13.0487881  42.2336349
  86.9196472  13.7401695  41.8424225  86.1729202  13.3760347  43.1076469
  47.7498093  47.1119919  42.0303345  47.6979942  48.0236359  41.7431831
  47.6442261  46.6016197  41.2274590  46.4767532   3.2713559  31.3844814
  45.7079544   3.5875199  31.8590584  46.3970108   3.6599348  30.5133438
  20.1562366  45.6286850  14.5675659  19.4571457  46.0692940  14.0844841
  20.9210720  46.1918907  14.4490013  47.0288124  37.8014297  21.6698837
  46.9563751  37.7023163  22.6191788  46.2225952  38.2492790  21.4136143
  54.6809349  67.2535629  37.1091843  55.5116119  66.9937897  37.5075836
  54.7834511  68.1881104  36.9293442  28.9198933  58.0728683   0.9353358
  28.5562477  58.4095345   1.7542670  28.6092720  57.1686478   0.8891836
  18.8272419  43.5605354   1.1313335  19.4326439  44.1638985   0.7004340
  18.2925663  43.2087402   0.4195800  17.2213249  42.9076004  49.9218636
  18.1036243  42.5381851  49.9580994  17.1053963  43.3345833  50.7706757
  45.6156387  39.7773514  19.9151592  46.0307274  40.0163689  19.0864220
  45.5989838  40.5914993  20.4182644  63.2159042  60.1420784  77.1504440
  62.3176117  60.2778244  77.4518967  63.3139992  60.7428322  76.4117279
  18.3774223  45.8393745  54.8258057  18.7602348  46.2645226  55.5932274
  18.7187195  46.3356667  54.0818710  47.4296341  56.8796692  48.7264709
  47.8887062  56.5158920  49.4835396  46.5362053  56.5451469  48.8046608
  57.9763908  14.8060932  36.8608856  57.7341652  14.7069788  35.9401588
  57.3301773  14.2837944  37.3361168  73.1837082  14.8978157  19.8327236
  73.3175201  15.5875931  20.4827518  73.7755966  14.1958256  20.1031055
  25.2414036  32.7695312  16.1075935  25.1675892  31.8295097  15.9428558
  25.5894814  32.8301888  16.9971962  68.8324509  39.1668854  21.5592670
  68.0975189  38.8966370  21.0087509  68.9782791  38.4244041  22.1455173
  14.3513689  40.0041275  83.3600998  14.9013462  40.5580940  83.9140625
  14.1754217  40.5390167  82.5860367  42.2170944  33.8191261  54.4156418
  42.6682816  33.2243080  53.8166008  42.4655609  33.5141830  55.2882881
  84.2674866  28.3619862  75.1203079  83.7381592  27.5723095  75.0086899
  84.7356262  28.4557762  74.2906799  26.2619743  52.2885246   3.2094107
  27.1699162  52.2921867   2.9063258  25.9227352  51.4351959   2.9392757
  72.2579117  14.7621946  31.4684334  72.7992477  14.0308323  31.7655907
  71.7340927  14.9989262  32.2338066  77.4177704  70.2184982  85.2199554
  77.2261734  71.0783844  84.8456268  78.0865250  69.8496857  84.6429214
   5.0450187  50.5383377  64.3430252   5.4989996  49.9490623  64.9454269
   4.1222138  50.4655266  64.5866699   3.2115672  61.6734924  36.6895905
   2.3195994  61.7866631  37.0179482   3.4176917  60.7558517  36.8675842
  73.7033005  29.9321384  48.9412651  73.0646820  29.4140759  48.4513664
  73.7156525  30.7797813  48.4967651  74.4541626  40.9233360  60.0935440
  75.0476837  41.2387886  59.4120369  74.4037018  39.9785118  59.9486656
  38.6905022  40.0164948  28.1093292  39.2857666  39.6903610  28.7842560
  38.9499016  39.5493660  27.3151417  81.5340195  27.0031662  27.9660187
  81.0639954  27.8066101  28.1891365  80.9484940  26.5420780  27.3653622
  40.2639885  67.1612396   3.0442169  39.5060120  66.8002472   2.5844388
  41.0194702  66.8147278   2.5694456  67.0765152  48.2825966  52.7105789
  67.5578766  47.8572197  53.4202080  67.3481903  49.1994591  52.7528229
   7.5198784  51.4121323  13.6567831   7.3054996  52.2364883  14.0934839
   7.1428165  51.4997253  12.7813492  81.2903061  47.0006714  73.7325516
  81.5709305  46.4277916  74.4462051  80.4382401  47.3339462  74.0138931
  21.2393112   5.0639753  71.5629349  22.0870590   4.8038206  71.9233170
  20.8185558   4.2389593  71.3209763  48.4986420   6.6010785  18.9644527
  48.4863930   7.4611931  18.5445900  48.5626259   5.9809003  18.2381496
  46.9233093  22.8862629  37.9290771  47.8120804  22.5947094  37.7258224
  46.6040535  23.2690792  37.1119118  61.2243500  68.2149200   2.0076089
  60.8244667  68.9058075   1.4794062  61.1492805  67.4275055   1.4685524
  55.0336647  68.2795639  32.8663406  54.3544312  68.4387970  32.2109642
  55.6482964  67.6859741  32.4349251  29.0618267  54.3417816  21.1761093
  28.9986153  55.2880974  21.3054409  28.3728104  53.9775391  21.7318211
  67.2192230  64.3605957  14.9045277  67.9689331  64.1342621  15.4549303
  67.3288879  63.8254013  14.1185427  22.8140583  24.6527824   3.8646045
  21.9368763  24.4718246   4.2023034  22.7407951  24.5129890   2.9205060
  72.9741364  69.6426468  86.9187927  72.4282227  68.9831543  86.4906921
  73.7649231  69.1686478  87.1761169  63.0695076  26.0834217  61.0476837
  62.9703484  25.1419754  60.9059944  63.6017914  26.3818684  60.3102341
  68.0788651  25.1815567  54.5332375  68.8744125  24.8990040  54.0821266
  68.1889954  24.8691883  55.4313087   9.3725948  36.5888786  78.6157532
   8.9428110  36.3077507  79.4235153   8.7673302  36.3314934  77.9203110
  10.3138771  29.2335510  22.0749149  10.1175623  29.1797085  23.0102177
  10.4330378  28.3237228  21.8024311  67.0223846  55.5451469   6.9073467
  67.5513687  56.3418388   6.9485426  67.6343460  54.8656883   6.6243768
  43.8799324  51.0605354  18.8653336  43.6996880  50.2410851  18.4046364
  44.8130493  51.0175705  19.0743179   8.1403284  55.2848549  51.2818642
   7.3971343  55.4193344  51.8699226   8.8574800  55.7726631  51.6867981
  73.3252563  33.0266914   3.3399358  73.4111023  32.1324692   3.0094299
  72.3918915  33.1236725   3.5287721  37.9926758  45.7255058  56.4933739
  38.7836876  45.5614433  55.9799385  37.2980232  45.2739868  56.0139732
  28.5577679  57.7028999  57.8266029  29.2396870  57.1426888  58.1972580
  28.3394451  57.2927055  56.9897614  37.7800980  41.3413124  10.9263754
  37.5579071  40.4339066  10.7178602  37.8380013  41.3602791  11.8816338
  46.2364388  29.8896561  23.0868111  45.5116158  29.7713757  22.4729118
  45.8210106  29.8981304  23.9491215  68.9875107  24.5878830  71.7896271
  69.3930283  25.3908997  71.4626007  69.5606613  24.3027611  72.5012741
  66.5074234  58.2271118   6.6996450  65.6130676  57.9146729   6.5627465
  66.4363022  59.1809273   6.6620684   7.5567245  47.4316292  12.3435831
   7.8895707  46.9006386  11.6200552   6.9521265  48.0478363  11.9300833
  80.3023224  26.2677879  51.6559601  80.7630768  27.0756836  51.8823166
  79.5610962  26.5559978  51.1232758   7.8052888  42.4774094  60.4316025
   8.5517178  41.8946381  60.5710678   7.0879350  41.8932152  60.1859398
  34.4898224  52.4179192  59.8334770  34.6000824  51.4820404  59.6655426
  34.9889450  52.5779724  60.6344070  44.1001701  38.2110481   7.1795635
  44.9603348  38.5155754   7.4687147  44.1116600  37.2683792   7.3453116
  39.1505814  43.7289581  61.5351906  38.7223282  42.8833275  61.6683693
  38.8071518  44.0422134  60.6984329  20.1989155  30.5982075   3.3615463
  19.7603741  31.3559017   2.9744895  20.1420765  30.7450447   4.3057075
  13.6719122  40.0518456   9.2922173  13.6002769  40.3816528  10.1879454
  14.6128006  39.9491730   9.1493196  11.7015247  30.4935799   6.4834914
  12.1463404  29.6803856   6.2445664  11.2058992  30.2727165   7.2720385
  39.1948586  63.6233444  16.8777084  38.3469582  63.7690544  16.4581032
  39.8310089  63.9988937  16.2690182  55.9349899   4.0960650  68.5118179
  55.2534523   3.4959419  68.2091827  56.2385025   3.7173398  69.3368530
  63.1531982  68.8131561  33.3864517  62.4278450  69.2888260  33.7912178
  63.2371292  68.0151138  33.9082870  55.4099388  36.9412193  59.4679451
  54.6446266  37.4522781  59.7312851  55.0658035  36.2950172  58.8513184
  36.4339981  59.4971924  83.9432907  35.7508049  60.0870514  84.2619553
  36.9263802  60.0204697  83.3108597  74.1242447  15.4083309  44.7927704
  73.2902222  15.7207336  45.1435394  73.8965912  15.0098820  43.9527435
  70.2334137  59.3486824  75.6126328  70.5228653  60.2184830  75.8881226
  69.7745514  59.4995461  74.7862396  60.2621994  47.9246979  43.5764389
  60.9699364  47.3613205  43.2634811  59.5921593  47.8683357  42.8951874
  55.4365883  34.6656685  44.8078995  56.0473900  35.0040703  44.1531944
  55.9046593  34.7503777  45.6385384  41.8615074  50.6067581  67.3455124
  41.7108231  51.3065338  67.9809952  42.7263947  50.7958641  66.9815903
  51.8570786  70.0397720  74.8756485  52.3887444  69.4399567  74.3524017
  51.0018005  70.0388336  74.4458466  50.9682999  17.7996254  68.1859207
  51.1973419  16.9686909  68.6022339  51.7272949  18.3620682  68.3402481
  42.4198380  43.8911705  -0.1716612  42.1879349  43.3739319   0.5996487
  42.6588287  44.7493782   0.1784694  23.6112747  20.1241226   7.5303545
  22.7442894  19.8289490   7.8086319  23.9789848  20.5505428   8.3044262
  19.5124054  66.3980103   0.8304922  19.1231861  66.9332581   0.1389333
  19.5079556  66.9639053   1.6024897  68.9738541  36.7814827  61.5035324
  68.5896301  36.8560524  60.6300087  68.8115082  35.8736572  61.7599030
  82.7664719  49.7393150  55.5607491  81.9585724  50.1886864  55.8089142
  82.8811111  49.0652771  56.2306442  40.2107849  33.8610039  43.7396927
  39.6907272  34.1743469  44.4796829  41.1181755  33.9406967  44.0338364
  47.2003441  23.8078136  31.3315430  47.7186432  23.7321777  30.5303707
  46.8222122  24.6861839  31.2901516  15.5643635  64.8265839  38.5658455
  16.1389313  64.7275238  39.3249855  16.0464802  65.4044571  37.9743538
   8.9533939  38.5559311  10.4792461   9.1815186  37.6289711  10.5495338
   8.7186575  38.8130951  11.3708715  79.2000427  60.1489830  88.3382111
  78.3836136  59.7121925  88.5808945  79.8601990  59.7578506  88.9104309
  22.4496937  15.5968571  11.2840042  22.7279205  16.4172897  10.8769274
  23.2495155  15.2359295  11.6664276  51.4705238  69.9299698  19.7645016
  51.3160210  70.6270370  19.1269588  52.3880692  70.0347061  20.0162506
  42.4017105  41.5585861  16.6011887  42.7318230  40.7533112  16.9996681
  42.4791451  41.4087830  15.6589603  45.6845703  20.7591400  63.5457687
  46.0667305  21.2406807  64.2794647  46.4369316  20.3870220  63.0856438
  76.9763336  48.4852295  47.5305862  77.3255692  49.0469856  48.2224655
  76.2256546  48.0483246  47.9328728  43.1383362  46.3112411  19.2635899
  42.7953110  45.5720978  18.7613564  42.9182549  46.1061096  20.1722794
  73.6267395  37.4288826  75.3918381  73.2350769  37.3483238  76.2615128
  73.6252136  38.3695450  75.2146683  15.4023390  21.2271194  10.4911165
  14.6222353  21.2444515  11.0455265  15.0615425  21.2568722   9.5971336
  59.6806755  66.9142838  25.4497528  59.6963387  67.8352509  25.1893578
  60.3725739  66.8394012  26.1069450  60.4107018  58.9210587  10.2314024
  59.8236122  58.4520798   9.6384287  60.4581642  58.3661575  11.0099039
  72.8272018  16.9372082  52.4106445  71.9950180  16.4831638  52.2781944
  72.5778198  17.8141727  52.7021484  72.5000229  13.3459721   3.8133893
  71.7309418  13.8412466   3.5315325  73.2064667  13.9915419   3.8335412
  33.5744362  59.3492851  34.0333519  34.2551270  58.9499016  34.5750046
  33.2433548  58.6298752  33.4957047  71.1846619   4.6596928  12.4193411
  71.9129333   5.1386886  12.8148289  70.4285202   4.8823166  12.9624138
   4.7887473  16.1280804  59.9618683   4.4545965  15.9177856  60.8338509
   5.3471346  16.8936043  60.0975494  65.6938934  24.3918152  69.4741135
  66.1543121  25.1027184  69.0281754  66.3857803  23.7821178  69.7306213
  85.5086288  59.3153305  32.8831787  86.4415817  59.2510757  32.6789627
  85.4277649  60.1293221  33.3802795   7.1818967  35.4653854  39.6180077
   7.5024462  35.5648499  38.7215767   7.1831584  36.3543816  39.9728470
   7.0273542   9.8177023   5.4176407   6.1872525  10.0192757   5.8297434
   7.4868450  10.6568651   5.3875637  66.3277283  21.5005703  15.0800791
  65.5711746  21.0408859  14.7160120  66.1732330  21.5054379  16.0247154
  69.0352173  39.6229973   0.8789954  69.5170898  40.2360115   1.4341935
  69.3263245  39.8254242  -0.0101104  74.3354263  61.6454315   6.5339274
  74.9360962  62.3045425   6.8817792  73.4691162  61.9373207   6.8177190
  63.1363678  12.2132759   6.7316790  63.1215363  13.1703558   6.7287478
  63.6415329  11.9791775   5.9530673  65.2564468   9.8242674  63.5864525
  66.0570526   9.9152222  63.0697403  65.5295868  10.0068903  64.4854965
  77.9161911  40.5431786  46.5952950  78.5957642  40.4492874  45.9277573
  78.3123016  41.1027603  47.2632751  65.9143448  18.4874592  46.7630272
  65.8952026  18.1964226  47.6747055  66.6940918  18.0716248  46.3951797
  83.5766602  55.8633881  22.7733593  84.0103378  55.2063408  23.3178349
  84.2880173  56.2756653  22.2832203  70.6854630  33.4048004  56.1669006
  70.1573257  33.1935654  55.3970451  70.1710205  33.0812073  56.9064064
   8.5254898  44.5694389  44.5530281   7.8523335  44.1070824  45.0523453
   8.5638304  45.4391747  44.9509239  64.2653046  58.4043007  46.8033257
  64.8415909  58.9764595  47.3100395  63.4907837  58.9387932  46.6282158
  67.7056427  55.0432396  75.1693573  68.5797653  55.4303474  75.1215439
  67.6802444  54.6139793  76.0245361  33.4263878  10.2387323  36.6098518
  34.3810005  10.2004938  36.6688957  33.2551155  10.6514568  35.7633553
  40.0983162  63.4796181  82.6302261  40.4890137  63.9333992  83.3769989
  39.1570320  63.5008965  82.8027573   0.9485128   2.8545392  76.0817184
   0.2185555   2.2470846  75.9617462   1.6187459   2.3381510  76.5293350
   3.2126174  14.0992785  74.4971695   2.3977718  13.9014158  74.0355301
   3.4629173  14.9670439  74.1800537  10.9953032   3.4943192  30.6296654
  10.3451042   3.5090806  29.9273434  11.6146364   2.8128493  30.3684063
  76.1852875  52.4308701  60.9334259  77.0295105  52.5777359  61.3599815
  75.6422043  53.1660500  61.2176819  36.7354240  46.1343651  46.2473679
  36.4267311  45.8545685  45.3855934  35.9459419  46.4316177  46.6996880
  81.6954651  13.9684229  18.9164352  81.3271255  14.6604996  18.3672638
  80.9990158  13.3145647  18.9770107  33.6793289  71.2348022  58.3553162
  33.3865852  70.4868469  58.8759880  34.6139526  71.0801163  58.2182732
  50.0254936   5.8212881  72.0820160  49.9707680   6.7310233  72.3746262
  50.2248077   5.3257785  72.8763580  33.3868599  40.1374092  83.8863831
  34.1940079  40.6519051  83.8798218  33.6179810  39.3351974  84.3546448
  41.9816360  59.2703056  24.3926487  42.9129333  59.1305008  24.2212830
  41.7431412  58.5728951  25.0033607  72.6864166  21.3132839  89.0561752
  72.2402802  21.3894272  88.2127304  72.4989014  22.1394348  89.5017624
   3.6095769  63.1557426  30.4643307   3.7325377  63.6785393  29.6719952
   2.9661350  63.6452293  30.9767933  68.5169678  67.7827301  41.3148270
  68.0968246  67.0775146  40.8224983  69.4547882  67.6279297  41.2019157
   3.1711330  67.0129242  36.5559883   3.5003793  67.4413910  37.3460770
   3.1410437  66.0833817  36.7824440  -0.2341018  56.5677986  50.0656853
   0.4063691  55.8807678  49.8812447  -0.0822945  57.2252731  49.3867798
  48.2736320  17.0957355  33.1025200  49.0924644  17.5845890  33.1847725
  48.4196854  16.5066643  32.3623199  85.7924805  44.1254501  34.8232079
  85.3370056  43.8253899  34.0366096  85.5723114  43.4751701  35.4902115
  76.1345291  17.2844181  49.3167496  76.9959946  17.0358772  49.6519241
  76.0254898  16.7595196  48.5237656  48.5311775  49.2537613  44.3870316
  47.6493301  49.0864220  44.0545006  48.8951378  48.3834457  44.5492477
   7.8379040  66.1598663  55.4063835   7.9682164  66.8527756  54.7589874
   7.5591226  66.6207275  56.1976624  55.1454201  40.6832314  74.3057556
  55.9449921  40.6204185  73.7832870  54.7982597  39.7913246  74.3204956
  10.9751358  38.3059731  40.2418556  11.0371113  37.5776291  40.8598404
  11.1573744  37.9122887  39.3886070  85.9461288  44.3742104  29.1571674
  85.0494690  44.4914169  29.4710064  86.4227753  44.0354729  29.9149895
  62.7847519  28.5845966  43.7020454  62.2841759  29.3776207  43.5102959
  62.9218330  28.6110001  44.6490097   8.4387388   7.2625299   0.6576384
   7.6384230   6.7374649   0.6518190   8.6393080   7.4037051  -0.2676038
   0.9556242  20.3110199  14.6132345   1.3635075  20.9503784  15.1972580
   0.3511407  19.8253994  15.1744862  27.1030102  63.7804031  77.1034546
  26.7084599  64.6512527  77.0567093  27.5805607  63.6892471  76.2789078
  69.5372314   2.8487351  71.8356857  68.8032074   3.4408913  71.9993668
  69.8944855   3.1366253  70.9956131  32.2286491  53.1710625  24.1018543
  32.2486839  53.6716919  24.9174519  32.5944786  52.3179283  24.3354416
  71.5871429  34.4889374  26.3653717  72.2688065  35.0389061  26.7515030
  71.2093506  34.0185776  27.1085167  54.2869110  49.7238693  29.6254787
  53.7710075  50.1033783  28.9141102  54.2102547  48.7781830  29.4988365
  77.3169403  10.4578037  30.4376221  77.2761765  10.6757612  31.3687840
  76.7687912   9.6780109  30.3499393  17.1644135   1.6065277  20.3608856
  17.9789448   1.1203029  20.2329960  16.5531807   0.9608354  20.7154388
  73.9733582   9.0668993  21.4515400  74.6629410   9.6979761  21.2455082
  74.1807861   8.3018055  20.9150333  85.7085342  29.7361546  79.1755142
  85.8426895  29.1207027  79.8962479  85.7024994  30.5971260  79.5937500
  51.3551254   1.1891830   2.1355727  51.5515404   2.1257513   2.1133778
  50.8940582   1.0216110   1.3136429  18.1452408  24.4792728  21.7128696
  18.4344749  25.2689972  21.2558022  18.2070580  24.7036953  22.6413345
  35.1985588  55.9974060  32.9139442  34.2711792  56.1673813  33.0791817
  35.6584473  56.6719017  33.4137306  56.1933136  31.9709110  73.9231262
  56.0072708  32.7008438  73.3325195  55.7998123  32.2305717  74.7561722
  24.2191315  18.1238632  87.6855621  23.9550552  17.7697430  88.5347366
  23.9851532  19.0509892  87.7294464  49.9853897  25.1461372  76.9482346
  50.4948959  25.9050446  76.6641769  49.7876205  25.3211937  77.8682785
  16.5957851  59.9424591  30.3047104  16.6083870  59.2452774  29.6489582
  15.7292223  60.3392029  30.2158604  39.7024078  24.7399597  73.0009613
  38.9860306  24.5137482  72.4077759  39.7758446  23.9861164  73.5862427
  57.2751427  56.2785416  21.9253311  57.8667412  56.5830879  22.6134415
  56.8397369  57.0725212  21.6150932  68.3590393  19.0899563  49.1339149
  68.2153397  19.5948658  48.3335114  69.3028107  18.9310551  49.1506691
  66.9602966   9.1171865  13.6835823  66.5108795   8.6259689  14.3713026
  66.2973175   9.7205114  13.3479004  82.1733017  39.0618858  87.7838974
  82.9726944  38.5467529  87.8927307  82.4299088  39.7839584  87.2103119
  77.3834686  26.2561970  34.6624413  76.7560501  25.6769485  34.2299614
  77.2337265  26.1161098  35.5974197  17.1460152  48.9298744  51.5750008
  16.9568138  49.6191711  52.2116356  17.2568760  49.3940544  50.7452545
  38.9157600  20.0837612  18.3525105  38.0431709  20.2415314  17.9920502
  38.9199219  20.5559464  19.1851292  84.7462311  15.5605783  55.1067047
  85.0324326  15.5589476  56.0201149  85.3079758  14.9145536  54.6785393
  30.4371300  47.9338684  11.6080990  30.7924156  47.8365364  10.7246227
  31.1836300  48.2158546  12.1367321  19.5029163  44.8486633  81.5442581
  18.8134651  45.0790291  80.9215088  19.1263599  45.0453033  82.4020309
  72.8164139   1.8581408  48.6048355  73.5219498   1.9431602  49.2460938
  72.6989670   2.7430067  48.2592163  78.3706589   5.7807488  67.5251923
  77.8048019   5.7746811  66.7531815  78.3524551   6.6884871  67.8283615
  16.5976772  44.6999435  16.3770123  15.9335918  45.3183823  16.0724487
  17.2329979  44.6594238  15.6621990  67.6479797  68.7071075  80.3561859
  68.1938782  68.7148666  81.1424179  67.6451492  67.7919617  80.0755844
   9.4792967  65.0133133  24.8889503   9.7838221  65.2277832  25.7707081
   8.6800108  65.5285187  24.7796764  19.1059895  39.3764458  19.2270317
  18.9013596  39.9930458  18.5240669  19.2873192  38.5514603  18.7767487
  50.0113831  35.7165565  79.3783798  50.0553131  36.6404190  79.1318359
  50.1555977  35.7140694  80.3246536  61.0003090  63.4424896  14.7207270
  60.8873520  63.5528412  13.7766438  60.2583084  63.9079514  15.1067524
  24.4170399  68.4241562   7.5101461  24.1161270  67.5812225   7.1708121
  25.3674126  68.4019318   7.3981986  82.6579437  30.8235855  85.4391556
  82.2274170  31.5925007  85.0654526  81.9392395  30.2342606  85.6680527
  42.6205559   8.9837008  87.1056519  43.2280846   8.2612066  86.9470901
  42.1076584   9.0465670  86.2999115  33.6517143  17.4216881  12.8588810
  34.2186584  16.6733723  13.0455027  33.8001022  18.0225773  13.5890493
  41.4568329   3.3764381  14.5447063  41.2765694   4.3162479  14.5669088
  40.6379471   2.9687631  14.8265820  68.3070297   0.9870449  73.6311646
  68.7005081   0.7076899  72.8045044  68.6005859   1.8912704  73.7426605
  33.4251595  20.1298332   8.5697031  32.4876251  20.1819439   8.3838377
  33.5240250  19.3253937   9.0789518  22.3139820  64.0936508  29.1473160
  22.8884487  64.5993423  28.5724297  21.4289494  64.3320618  28.8714352
  85.6733627  52.0945587  44.4190292  85.2278290  51.9525490  45.2542343
  84.9680328  52.1186981  43.7723808  77.6705322  52.6786613  58.4641571
  77.1401978  51.9108315  58.2510376  77.5005951  52.8368759  59.3927689
  52.2229347  67.8358078  23.9459991  52.2430000  66.8862534  23.8268795
  52.5038376  67.9696198  24.8512173  64.1015472  14.7511539  43.6609077
  64.8593140  14.3197508  44.0557671  63.8370323  15.4077215  44.3052559
  62.6468124   2.7807448  58.4753036  63.5908813   2.6237159  58.4579239
  62.3691826   2.6722777  57.5656967  70.6561356   2.0211484  45.2710686
  71.1587067   1.3567797  45.7425270  69.7667542   1.9374448  45.6149025
  69.4246750  65.7897949  17.6622429  70.2571640  65.4012451  17.3935223
  68.8816452  65.0426331  17.9134388  23.0064697   2.9972491  68.5721054
  22.4024925   2.3380392  68.9139862  23.4749546   2.5502067  67.8671875
  10.4661951  33.2212601  22.6722546  10.2222452  32.7136612  21.8982620
   9.8381968  33.9433594  22.6928291  46.3104744  43.3581009  29.9247150
  45.6454620  43.2200050  30.5991898  46.6505356  44.2355728  30.0997524
  31.0357494  51.5054512  33.6137466  30.9225426  51.5632362  32.6650200
  30.8210564  52.3814316  33.9343681  36.6038971  56.9409790  18.0779839
  37.5235786  56.7344627  18.2446365  36.3531113  57.5170250  18.8001404
  86.0275726  31.3679657  13.9956398  85.5807648  30.6255417  14.4023418
  85.6899490  32.1341133  14.4595995   2.7093966  15.2485523  35.3648453
   3.4830606  15.3986168  34.8215637   2.6383071  14.2957335  35.4224167
  49.4567413  12.6567030  28.0385666  49.3313141  13.3978138  27.4459000
  49.7458725  13.0534277  28.8602982  53.8780861  22.4577637  28.1512489
  53.6797218  21.7500134  27.5380821  54.8105278  22.6317139  28.0227127
  58.5532265   9.7896709   5.7278614  58.6044807   9.4905205   6.6356683
  59.3127670   9.3926430   5.3016005   1.5576185  46.7245903   2.1180818
   0.7638835  46.7819595   1.5861742   1.2792730  46.2749977   2.9159672
  36.2169151   1.1196784  37.8182411  36.5501442   1.7643670  37.1940880
  35.5770226   0.6118383  37.3193741  78.2794800  69.2587814  11.7089272
  77.3589935  69.4511642  11.5302410  78.4726639  68.4913101  11.1705093
  14.1829653  23.0310097  68.0041351  13.5502014  22.3168621  67.9277573
  13.8311005  23.7236099  67.4449158  16.6253014  68.9354553  75.2411804
  17.4320965  68.7926102  74.7462921  16.3654785  69.8303986  75.0225525
  40.6533089   1.5129930  35.1180267  41.1149902   0.6756649  35.1623230
  40.5537415   1.7802359  36.0317535  13.4714880  24.6386986  13.6124659
  13.1869469  23.9121075  13.0580873  12.9130344  24.5813866  14.3877583
  63.7991486  45.7064629  78.4576263  63.9841347  45.6956024  77.5185318
  63.7461281  46.6358261  78.6805573  38.1990356  68.8041382  47.5110931
  38.2368660  69.1409073  46.6158867  39.1122131  68.7811279  47.7971191
  22.7649746  53.5216446  88.8400803  22.7211380  52.5672417  88.7815781
  23.5854568  53.7509232  88.4036484  53.0848618   3.6793718  21.3371468
  53.5854301   2.8635156  21.3436756  53.4273300   4.1764417  22.0800266
  10.8764410   8.9350548  28.7641182  10.3727722   9.0890484  27.9648457
  10.9301052   7.9818816  28.8334942  77.0088425  61.8235703  39.9782562
  77.3084717  62.5340538  39.4111023  76.7007675  61.1483116  39.3738213
  48.9926414  13.5553341  15.9596968  49.4419098  13.2460537  16.7462940
  48.0781746  13.3055534  16.0923309  27.3152542  30.2763710  68.3449478
  26.7637978  30.4584713  69.1058502  27.0493298  29.4020653  68.0601654
  84.2825012  12.3992023  29.2039852  84.7268372  12.7478085  29.9768181
  83.4363174  12.8464928  29.1920795  64.4316101   3.3273175  43.2491837
  63.8658371   2.5666823  43.3817215  64.4807892   3.7422068  44.1103897
  50.2772903  30.5614128  -0.0490049  49.9510727  31.4462013  -0.2132138
  49.6015625  30.1536846   0.4926406  40.3956146  16.2334251  71.9248276
  41.0059013  16.9573364  72.0653076  40.2273903  16.2413998  70.9825592
  76.1478806  57.2170448  72.6997604  76.8167114  56.9660797  73.3368759
  75.8308334  58.0662537  73.0072632  86.2142181  24.5447636  86.6183319
  85.3632278  24.9186573  86.3897476  86.6089935  24.3157120  85.7769547
  44.0475349  60.7013435  18.8305321  44.5188866  59.9715347  19.2323265
  43.1943321  60.7033157  19.2644367  47.7801704  24.8059769   4.6086917
  48.3272057  24.3392010   3.9769471  47.9099236  25.7311745   4.4003487
   6.0825663   7.1672549  44.2626190   5.3253355   7.4618168  43.7565880
   5.8797722   6.2601123  44.4910889  84.2617722  35.7158775  85.5753250
  84.4501801  34.8070183  85.8092194  84.8341217  35.8947716  84.8292389
  31.8558350  37.9613838  25.3412914  32.2618790  37.9373474  26.2077675
  32.4285011  37.4245872  24.7934494  59.9009628  63.7924805  33.3265076
  60.1462669  64.4243164  32.6506081  58.9972191  63.5565605  33.1171684
  76.2938461  50.0546989  14.6125708  76.0419617  49.4414864  15.3030472
  75.4840164  50.2161331  14.1284800  69.6354752  33.5895920  80.6683121
  70.5669937  33.7998886  80.7336731  69.5735779  32.6815109  80.9646072
  21.3463745  47.5801659  75.6103897  20.8981857  47.4168205  76.4402542
  20.9058228  47.0066566  74.9833069  10.2091150  24.7702255  79.2117004
  10.2365131  25.6380482  78.8087540   9.2992277  24.6635876  79.4891281
  66.2024536  52.7459908   3.9161215  65.5938721  52.2703743   3.3507502
  65.9558105  52.4878883   4.8042541  84.3731155  44.0725212  26.8833942
  84.8471069  43.7037048  26.1380520  84.9592133  43.9411926  27.6286945
  42.8518410  33.7776756  44.0364418  43.1687698  33.5606194  44.9131813
  43.5408363  33.4671326  43.4490051  74.1797867   1.6381134  29.2940102
  73.6968231   2.0160637  30.0289459  74.5363922   2.3941200  28.8276196
  51.9928093  43.3521347  -0.2358041  51.4512482  43.4105721   0.5512964
  52.7904205  43.8325806  -0.0139506  49.0176620  57.8644409  19.6409626
  49.5873871  58.6228638  19.5127430  49.2807274  57.2488747  18.9567776
  27.0404854  36.4614029  31.9423294  27.7884159  37.0298958  32.1257629
  26.4701500  36.5625916  32.7043724   1.8564347  35.0617523  56.1239052
   1.3880274  35.5202103  55.4263077   1.4233491  34.2102318  56.1837349
  34.6056824  16.0748177  76.5255661  34.7703781  16.9583244  76.8549957
  35.4682236  15.7516394  76.2651596  34.2845230  65.3697281  10.9661875
  33.4160995  65.1822662  11.3224678  34.3018456  66.3214874  10.8657217
  48.3886414  19.6235657  22.7817574  48.8229675  20.2724991  22.2281532
  47.5516548  19.4597378  22.3471928   1.3757607  25.9861813  13.0891590
   1.7265311  26.8081226  12.7462254   0.4679664  25.9682369  12.7861414
  68.8706894  23.2313652   2.7773113  69.1856766  22.8436871   1.9607801
  69.6651535  23.5134296   3.2306340  12.8022280  69.8072739  25.6326981
  13.4094067  70.4033279  26.0712032  13.2297640  69.5980911  24.8022232
   3.0126214  10.9994974  63.7134743   2.6820393  10.1013231  63.6983147
   3.6578324  11.0053387  64.4205093  33.8097801  55.2149048  50.7879677
  34.6100578  54.7050095  50.9136581  33.9785004  56.0410233  51.2410583
  44.3100662  71.2632294  28.2241020  44.2672157  71.1233292  29.1700516
  45.0067711  70.6780624  27.9267578  85.2161789  40.9872932  59.4728127
  85.4035110  40.2082405  59.9964638  84.4868393  41.4106026  59.9256973
   5.1003947  40.9333801  50.3899536   4.8866868  41.6113052  49.7488785
   6.0566764  40.9362144  50.4317856  52.2143631  58.8426170  26.8969746
  52.9823189  58.5633850  26.3984699  52.3321037  58.4462624  27.7602673
  44.3428879  46.0520096  86.0318298  44.0172539  46.7552681  86.5936356
  44.4233131  46.4541740  85.1669464  64.9293976   9.2080269  69.7135849
  64.7771378   8.7091331  70.5161743  64.2540894   8.9007378  69.1088028
  44.9045944  30.6806355  63.1663589  45.0448952  31.5907688  62.9052048
  45.6718140  30.4622879  63.6954460  16.9550705  43.8622017  74.2753983
  16.1723557  44.0511856  74.7929611  16.6175919  43.5743828  73.4271622
  40.3316040  22.4345837  80.4964600  41.2004471  22.6772289  80.8165588
  40.3140640  21.4791622  80.5520935   4.2571964  16.8578930  68.9199905
   3.7489228  17.5786552  69.2919998   3.8486466  16.6900063  68.0707932
  43.4658241  29.7436104  40.7539978  44.2862816  29.3887386  40.4117241
  43.7345314  30.3240681  41.4661064  41.3432732  23.8895149   2.8516612
  41.7013588  24.6841507   3.2473359  40.7240105  24.2072544   2.1945558
  55.3059387  41.2426949  58.6409149  55.3741951  42.1384964  58.9712257
  54.7880135  41.3216171  57.8398170  81.8264542   7.4130740  24.6756649
  80.9501419   7.0870557  24.8806534  82.0381088   8.0025244  25.3995323
  14.9009295  62.6587067  36.9904633  15.2100725  63.4122887  37.4932404
  15.6787167  62.3417320  36.5313301  67.7573929  13.5590649  76.1068115
  68.6179123  13.7078362  76.4987335  67.1551361  13.5421448  76.8506088
  62.8508148  46.9393120  13.1757364  63.7047157  47.2101974  12.8385334
  62.6373253  46.1488190  12.6799812   1.1983095  38.3683586  38.6039848
   0.9317982  37.5729141  38.1430321   1.0851007  39.0675888  37.9601746
  64.7382965  39.8515892   9.5317669  63.8646851  40.1461334   9.7892027
  65.3304138  40.5069580   9.9007206  10.7602396  15.7778034  82.9870834
  11.5631351  15.4335461  82.5958328  10.2216320  16.0372028  82.2395248
  17.2473392  23.2706585  10.0805950  17.8825054  23.0421982  10.7592707
  16.4577961  22.7843590  10.3180122  80.9639206  13.2140675  70.1618500
  80.8157272  13.9853344  69.6146545  81.8594284  13.3172836  70.4837799
  43.6858749  37.9419212  62.9814034  43.5323601  37.0307961  62.7313690
  43.7476006  38.4114265  62.1495476  31.5024128  62.2326012   6.7315588
  31.6192455  61.3592186   7.1054401  32.0318184  62.8040428   7.2878132
   7.5599432  38.7456017  45.6192513   6.9778690  38.7476006  46.3791313
   8.2885303  39.3116531  45.8741608   8.8001308  70.9888153  88.2084961
   9.4057674  71.1380234  87.4824295   9.3633451  70.7523499  88.9454498
  22.7032719  62.9530830  46.1957092  22.7605419  62.9581718  45.2402344
  22.6244087  63.8763084  46.4358444  31.0369263   0.9343145  35.3998871
  31.2865696   0.8485373  34.4798050  30.2972431   1.5417969  35.3917313
  81.4809036  24.5705109  29.4847393  82.3647003  24.2416668  29.6490173
  81.6132660  25.3652058  28.9678535  28.4425678   0.4471628  43.0146408
  28.1540699   0.9576671  42.2580795  27.9866943  -0.3899002  42.9266853
  22.2768745  59.6758537  44.5352287  22.2724934  60.5630112  44.1758385
  22.4500542  59.1126862  43.7808533  65.7649078  52.2197380  28.3719940
  65.0451202  51.7586517  28.8027382  65.3383713  52.7660980  27.7118511
  74.2922897   0.2180578  11.6085806  73.9761734   1.0208836  11.1941261
  74.6521606   0.5070939  12.4471407  77.8469162  34.0906487  78.7365799
  76.9435806  33.9506989  78.4526215  77.8345947  34.9489326  79.1601639
  17.2730732  25.2060661  66.2448959  17.7732468  24.4059219  66.4056015
  16.8660870  25.0664501  65.3898544  30.6689625  55.0646400  16.9082413
  31.3858852  54.8855057  17.5166531  30.7541847  55.9961853  16.7052746
  79.4541321  60.7195740  60.2324257  78.5290909  60.9526672  60.3111267
  79.8936615  61.2581635  60.8904266  69.6835175  30.4730091   1.2302909
  69.0016937  31.1443386   1.2560321  69.2092743  29.6464062   1.3200200
  63.4393883  18.6725140  81.3217010  62.7025185  18.9690971  81.8558350
  63.0842743  17.9501801  80.8036652  16.5462742  49.6843491  22.8628845
  16.1231441  49.5975876  23.7170887  17.4763031  49.7855453  23.0654621
   5.4618063  45.5713730  87.0109482   5.2152033  44.6644821  86.8293839
   4.6696677  45.9667053  87.3749008  40.6921959   3.4598136  61.3572960
  40.0471535   3.3859446  62.0606422  41.5320435   3.5381362  61.8097954
  76.4972534   5.8559685  10.3206053  76.9176331   4.9996090  10.3991108
  76.3316650   6.1252227  11.2241058  33.0586090  42.1164742  26.1160965
  33.3402939  43.0267105  26.2074947  33.5979576  41.7690239  25.4057350
  83.3616867  37.4544182  49.8604240  83.6329269  36.6556396  49.4080772
  82.7315445  37.1560555  50.5162659  83.9368896   2.6108479  69.2842941
  84.1803741   3.5307012  69.3883057  83.4156265   2.5903344  68.4817429
  16.7696857  57.6937065  57.2415733  15.9287615  58.1162796  57.0669098
  16.9516277  57.8928452  58.1599808  76.5013733  43.7191887  43.2495995
  77.3907700  43.3807983  43.1461868  76.3522873  43.7158890  44.1951103
  56.1810722  46.1823807   4.8848782  56.9958115  45.8239975   4.5327582
  55.5549431  45.4611702   4.8212652  79.9551926  31.3984413  54.2459106
  80.2134323  31.7760563  55.0867119  79.6751328  32.1490784  53.7221336
  78.0004654   2.6770539  37.1913185  78.8814774   2.4711339  37.5038109
  78.0363693   2.5137570  36.2488327  68.2317047  15.9919634  37.7054672
  67.4422150  15.6703033  37.2701836  68.5578384  15.2384377  38.1974754
  33.2597275  59.5733757  84.5641098  32.5094681  60.0405807  84.1966019
  33.8413086  60.2649651  84.8798599   1.9754899   3.3138938   2.8991086
   1.9099296   2.3626063   2.8155260   2.5943797   3.4491947   3.6166744
  53.6164780   6.4789772   6.2735672  52.7597351   6.6081715   5.8667083
  53.8068275   7.3138509   6.7013340  59.9846992  28.3319397  12.8769550
  60.5945740  29.0295467  12.6369028  59.8316383  27.8561897  12.0605803
  61.7907906  68.3478241  54.5915947  62.6775246  68.3769760  54.2323189
  61.7156754  67.4732742  54.9733620  24.4584236  64.1248398  12.2435865
  25.3105278  63.9921417  12.6589708  24.5963821  64.8569031  11.6425209
  77.8480377  47.8845863  34.4177742  78.2087936  47.9856339  35.2986107
  77.4778290  48.7426605  34.2106819  65.1349030   1.4324979  86.2987747
  64.5597305   0.7566598  85.9400940  65.3605499   1.1155378  87.1733246
  76.7413940  49.7588997  78.6873474  76.0101929  50.2532234  79.0577774
  76.5982437  48.8604355  78.9848404  11.0808220  56.7267342  74.1894226
  11.0035400  55.8188858  73.8960495  10.5192089  57.2202339  73.5916901
  54.0327454   0.6727039   4.5157318  53.1267586   0.6425921   4.8231630
  54.5006714   1.1564796   5.1963468  47.5486031  23.6066570  15.2001038
  48.0108528  24.3988647  14.9263039  47.5365715  23.0541630  14.4185429
  85.0744019  48.1073227  81.8790359  84.2759018  47.8523445  82.3412170
  85.7530670  48.1046867  82.5540466  22.7578449  54.1259041  52.9573441
  23.2246571  54.9294853  52.7280540  21.9653130  54.1479645  52.4210243
  44.4777985  40.6841011  76.8474121  44.3012428  41.4589920  77.3808975
  43.9512939  40.8115845  76.0582581  19.3319435  71.0288467  31.4744301
  19.9807205  71.7317963  31.4400730  18.6413288  71.3107758  30.8745995
  33.7662163  49.4844093  55.6113853  34.1178932  50.3117180  55.2825775
  34.1775360  49.3731041  56.4685059  42.8942909   8.9068556  77.9079056
  42.0437622   9.2104826  77.5906601  42.9261932   9.1944780  78.8203125
  83.8174362  50.1178398  40.7183075  83.6125641  49.6581421  39.9040985
  84.6440353  49.7327538  41.0093079  69.4226227  11.8953819  42.4817696
  68.6844940  12.4845982  42.3261299  70.1844101  12.3744297  42.1555443
  76.1179428  47.3531876   0.4442389  76.4322739  47.5479736  -0.4386453
  76.8859177  47.0110970   0.9018595  65.6298447  28.0761604  70.5832596
  66.2579269  28.6215935  70.1097107  65.0984344  27.6721592  69.8972397
  29.8102283  40.7143784  28.4185429  29.9450150  39.9374390  27.8759308
  29.4300842  40.3770294  29.2296638  43.7029800  41.4917145  84.6401901
  44.6090126  41.2031670  84.5302963  43.6954918  41.9407997  85.4854736
  48.5289230  46.9177666  28.8531990  49.1255531  46.3204498  28.4021149
  47.9092522  47.1928864  28.1775169  31.8638706  47.9043655  39.5298653
  32.7755966  48.1599236  39.3895912  31.6280155  47.4158211  38.7412415
  79.1553726  62.8517761  55.2964096  78.2816010  62.4938698  55.1393585
  79.5243912  62.9751892  54.4218636  56.6942253  21.8827629  40.3016129
  56.5098686  21.1163731  39.7585716  57.1423111  21.5295391  41.0701714
  77.0179062   1.7983351  42.3359337  77.7603989   1.7996708  41.7318306
  76.3318405   2.2794681  41.8732758  15.0965118  35.2652016  14.8134403
  14.4956217  35.1757202  15.5531416  15.9024248  34.8401108  15.1067591
  68.6494064  51.7131500  15.3679914  68.9584885  51.7179794  16.2739048
  69.4140472  51.4507790  14.8554363  25.6190338  14.8506842  70.4424057
  25.6103058  14.5657673  71.3561783  24.9692516  14.2949867  70.0120316
  80.1079483  39.8288727  38.2194405  79.3355179  40.2563362  37.8495102
  80.7891006  40.5008736  38.1934090  75.6185608  59.3197479  62.7908897
  76.1013641  59.5117340  61.9869804  76.2931213  59.0646553  63.4202766
  75.3224869  34.9281273  63.3248177  74.9278412  34.4535408  64.0564270
  75.5093613  35.7984200  63.6768074  83.6104507  48.7592125  17.1844101
  82.9092636  48.1081810  17.1574554  83.9764557  48.7537804  16.2999649
  28.0277252  12.2420998   8.5824814  27.4861279  11.4587860   8.4859247
  28.8377686  12.0319767   8.1178188  58.4956589  21.9252777   6.9201860
  58.7032013  22.8559208   7.0042162  57.9458504  21.7329578   7.6797609
  67.4989700  48.2011719  16.7306271  67.6087723  48.1416664  15.7816105
  67.0662155  49.0436211  16.8693104  23.8503132  20.0162926  14.5581570
  24.4414234  19.2863102  14.7423992  24.4226971  20.7820835  14.5115404
   0.4759215  18.5974007  17.7695522   0.2426118  19.5079861  17.9501972
  -0.3628787  18.1375580  17.7350349  23.0504513  13.8579884   1.1997309
  23.3994560  14.3711843   0.4709949  22.2108803  14.2704754   1.4027307
  58.7466812  58.2085762   8.1818256  58.0071411  58.2608910   8.7872801
  58.3806000  57.8144569   7.3900652  64.3945312  50.8764992  24.6318321
  64.5225525  50.8364182  23.6840782  64.9865875  50.2107735  24.9818573
  20.0656033  38.0064583  73.6095047  19.9815502  37.4635162  72.8256760
  19.5700855  38.7996521  73.4056931  30.7732887  66.5333786  40.1816139
  30.8479042  66.3387985  41.1158562  30.2943058  65.7880630  39.8192444
  36.9224663  56.0950699  22.1812210  36.9762840  55.7078819  21.3074799
  35.9865646  56.1045074  22.3817844  83.5523758  19.9511909  10.5732050
  84.4684143  20.1334686  10.3637180  83.4680710  19.0029049  10.4738178
  12.5827885  13.7466726  83.6045609  11.9371843  14.1135197  84.2085876
  12.8901663  14.4979429  83.0972748  74.9201126  14.8355150  24.5081367
  75.8525391  14.7253313  24.6943665  74.4843140  14.6234188  25.3335609
   8.9755297  24.5606728  18.7127151   8.2321548  24.4795742  19.3102512
   9.0406618  23.7025719  18.2936058   1.1694258  41.5286522  68.7927322
   0.9267066  42.1998787  69.4305191   2.0013893  41.8326797  68.4299164
  51.1918526   2.0262113  36.5595436  50.9364738   2.2566838  35.6662941
  50.3627472   1.8904526  37.0182190  54.1052170  17.6892815  10.0722075
  54.0081444  17.8250427  11.0147448  54.0811920  16.7385864   9.9634304
  42.2407150  66.4286652   7.8967938  41.9949226  67.3252792   7.6689572
  41.7631607  65.8832245   7.2717581  69.9340515   6.3319068  39.8454895
  70.4508972   6.9256454  40.3900757  69.4172821   5.8228121  40.4699936
  26.3335800  49.8912773  12.7218542  26.7390003  50.1976585  13.5330238
  27.0492706  49.8784714  12.0863600  22.4557552  61.1892662   5.4591289
  22.7602634  61.4512787   6.3279538  22.5597935  60.2378311   5.4457140
  34.3634224  55.4871597  53.9956398  34.7104149  55.1730385  54.8306007
  34.0740547  54.6948051  53.5432281  66.9807434  65.1258926   9.0142670
  67.7922440  65.3446884   8.5561981  67.0632095  64.1937561   9.2156343
  12.6611109  51.2971153   7.9930382  12.0390167  50.5786018   7.8791709
  13.1330662  51.3393745   7.1613503  21.8559647  15.8692780  82.7606583
  21.2623844  16.2665653  82.1234283  22.4908218  16.5578308  82.9583511
   3.7252822  17.4878883   5.2028952   4.4667845  17.0635147   4.7712550
   3.2370434  17.8999920   4.4901361  60.4582176  58.4544830  55.7745705
  60.7991028  59.3464432  55.7079849  60.1072807  58.3979187  56.6633186
  53.9212494  20.0773296  79.4465408  53.2538147  20.4164162  78.8500671
  53.5092506  20.1090622  80.3099518  73.2743149   9.0640650  13.0249691
  72.4451218   9.2592268  12.5884075  73.9149857   9.0231810  12.3149700
  50.3680801  12.0645742   2.6138380  50.4248238  11.7232370   1.7213687
  51.1848831  12.5480127   2.7377553  42.9872437  13.3626184  67.5641937
  43.5054054  13.1484671  66.7883835  42.3891754  12.6220465  67.6646805
  22.2035408  32.1436386  13.9831448  22.9343300  31.5667725  13.7608690
  22.5982704  33.0124893  14.0574379   2.8304727  13.7833204   9.5421677
   2.3562505  13.7353144  10.3722525   3.3697882  14.5703239   9.6196003
  53.5402145  28.4516335  24.1553135  53.4217796  29.3857918  23.9834099
  54.3880882  28.2416687  23.7638283  18.9926281  50.2164307  21.9691181
  18.3483200  50.9139061  21.8481560  19.7500172  50.6546783  22.3571033
  43.8787842  48.7849464  76.6243134  43.8470688  49.0744858  77.5361252
  44.4513206  49.4183769  76.1916504  41.1846085  44.8987083  42.2543335
  40.8355141  44.6402588  41.4013557  41.8361092  44.2281685  42.4596443
  16.6469707  13.5285501  76.7794800  15.7635908  13.4714708  77.1436462
  16.5723076  14.1651878  76.0686035  72.5251007  19.9432526  26.2449112
  72.8178329  19.2949715  26.8854351  73.1522522  20.6616516  26.3274612
  21.4454498  64.6950073  36.7332382  20.6647243  64.2962265  36.3489571
  21.4939003  64.3254471  37.6148911  23.1146164  49.0936623  43.8964539
  23.9228115  49.0796890  44.4091492  23.3847313  49.4032784  43.0319290
  48.3564148  11.3398523  47.7394753  49.2989578  11.2758026  47.5853920
  48.2352982  11.0020924  48.6268768  24.7508774   5.9871058  84.8714371
  24.1849003   5.4551010  84.3120880  24.1606426   6.3538203  85.5297470
  52.8447533  42.0876961  18.1742058  52.6110840  42.3221169  17.2760544
  52.0130463  41.8491516  18.5835876  52.2622604  64.4436188  88.2487030
  52.5741310  64.3437576  89.1481476  52.6104774  63.6800690  87.7882996
  26.7261200  22.0555973  18.3839054  26.1550980  21.3573132  18.7041607
  27.5431767  21.6116390  18.1568584  52.1935463  45.6561699  54.5418701
  53.0167694  46.0923424  54.7616158  52.2881203  45.4164925  53.6200027
  38.2554016  16.6236134  69.5427856  37.6918449  16.0810661  68.9911728
  39.1377945  16.4753380  69.2027359  81.6797714  38.3581619  56.7019882
  82.1504593  38.4575653  57.5295181  82.1524734  38.9206924  56.0885124
  56.0884247  48.5700378  84.2883530  55.6528435  47.9570198  83.6961441
  55.3737946  48.9859047  84.7706299  37.0679474  54.3859787  86.1443176
  37.2956581  54.1939583  85.2346420  37.6448402  53.8222733  86.6597443
  85.9721832  56.3160324  67.5937805  85.8325348  55.9433250  66.7232513
  85.0993271  56.3426476  67.9857635  35.6703072  41.0190887   3.3786762
  36.3172340  41.7054176   3.2153754  35.0210991  41.4324036   3.9478254
  30.5785789  13.5599289  10.8333082  31.2014141  14.2846537  10.8888416
  30.4409447  13.2922459  11.7419529  68.8662415  67.3918228  58.1458359
  69.4818268  66.6784210  57.9775009  69.3534012  68.0032196  58.6981964
  51.5029869  58.5121040  34.2424660  52.1878433  59.1105423  34.5409126
  51.9498177  57.9187317  33.6387444  28.6673241  29.9532738  15.2281103
  27.7961254  29.8537769  15.6119671  28.5101700  29.9942017  14.2847862
  37.7571526   2.1550763  12.4485197  38.6454010   2.2561491  12.7906113
  37.8276329   2.3948059  11.5245104  43.2515945  58.5100594  87.0628357
  43.0961342  57.7913628  87.6756516  43.0117455  58.1521225  86.2080917
  26.6399879  46.3560333  87.0072861  25.6989326  46.1824265  87.0297470
  26.9987564  45.6605606  86.4560776  80.7141495  30.1595821  76.5861206
  81.6697922  30.2028751  76.6193924  80.4296570  30.4886951  77.4387436
  62.0032158  55.2892838  83.2963486  62.0671806  54.6663551  84.0202942
  62.7360687  55.8899689  83.4317780   6.3972321  36.2706146  51.4218140
   7.1701751  36.7465858  51.1180992   6.2892399  35.5605545  50.7890549
  49.1012955  24.3766060  68.1474686  48.9407616  23.4346867  68.0904617
  49.7987137  24.4617958  68.7975311  49.6532059  26.6177025  82.6798172
  50.4210587  26.0539532  82.7737503  50.0031815  27.4466648  82.3533707
   7.6095724  68.1348495   2.3660672   8.4720507  68.5420837   2.2853096
   7.1561537  68.3717346   1.5570374  74.6108475   0.0908672  55.8466034
  75.2756500   0.3511408  55.2090073  74.0734329   0.8739882  55.9655075
  85.1829147  35.6430740  57.8831787  85.0149460  36.0826759  57.0496483
  84.9228363  34.7344666  57.7314339   0.8943970  46.9409866  77.1549759
   0.5398796  47.3927116  77.9208069   1.1554027  46.0807762  77.4838409
  70.7224426  50.6549911  66.0528564  70.8199921  51.6053963  65.9941711
  71.1831970  50.3190079  65.2840576  83.8375778  55.9239502  12.7497463
  83.7919312  54.9684372  12.7158632  83.9189758  56.1924477  11.8345881
   3.3532698  47.2706490  30.1612320   2.8293762  47.8868713  30.6731262
   3.6794932  46.6414833  30.8046303  82.5899200   7.9368901  21.9512310
  81.9015198   7.4150143  21.5389442  82.3837891   7.9099526  22.8855839
  51.4385719  10.6838703  66.7878876  51.9177284   9.8636456  66.9056702
  50.9974632  10.8259668  67.6254196  24.4376221   2.0067279  66.6414642
  24.3907490   1.8132770  65.7051849  25.3745651   2.0184584  66.8369980
  21.2348480  63.2846794  87.7365189  21.5722904  62.3897552  87.6981430
  20.8432331  63.3558693  88.6070328  40.9800568  15.2764530   1.2899042
  41.5709801  14.5436954   1.4634300  41.3795547  15.7366991   0.5517924
  77.6489944  24.6930447  21.7590637  77.9288483  25.3244133  21.0962753
  77.3290329  25.2315521  22.4828472  25.4680500  27.1546078   3.6889255
  25.0412064  26.6124439   4.3523221  25.4566174  26.6172810   2.8968513
  54.7094917  55.0910301  19.2916126  55.3972588  54.4873390  19.5722637
  54.4027328  54.7338715  18.4582043  27.0425377  45.1331635  77.9091797
  27.0742149  44.5742912  78.6856384  27.7402496  44.7994118  77.3452301
   0.5921409  33.8800812  25.7161446   0.0808111  34.6174507  26.0493984
   0.3415584  33.1434402  26.2736397  73.9324646  31.6046696  47.0469246
  74.6047821  31.5476151  46.3679810  73.1099167  31.6822128  46.5635643
  47.5350113  45.5466270  75.7604599  46.9353600  45.6641426  75.0236816
  47.4273758  46.3395729  76.2857056  77.1264648  70.4074860  69.3661423
  77.7149887  71.1604767  69.4197311  76.5054550  70.5373840  70.0828705
  86.2049713  33.7379608  63.2429695  86.4848480  33.4317589  64.1056061
  85.2561417  33.6116829  63.2402153  79.4765396  66.6166763  55.4815407
  79.7373047  65.8699493  54.9424362  80.1857758  67.2501602  55.3724022
  71.3824921  58.8238678  33.4249039  71.2544556  57.9606018  33.0316925
  71.1804047  58.6971703  34.3519096  40.0432854  36.2951279  22.1333675
  39.3116226  36.9087448  22.0672283  39.9271355  35.8748589  22.9854927
  20.1214600  65.9382553  75.5798187  20.0871830  66.0594788  76.5286865
  20.1105042  64.9887619  75.4591141  14.7795706  25.3592949  17.7840462
  13.8567476  25.3073502  17.5351849  15.0437269  26.2465172  17.5405521
  21.4749355  50.9556084  80.7807236  20.5479374  50.7745514  80.6254120
  21.7437553  51.4878311  80.0319214  81.8443527  45.3069305  83.0438843
  81.0902405  45.8565483  83.2571106  82.2865219  45.7720222  82.3336716
   9.8478994  30.7564106  14.3884869   9.4862108  29.9346619  14.0566063
  10.2639885  30.5177231  15.2168169  48.1031570   1.0361992  63.6209412
  48.2227821   0.7535232  64.5275879  48.1330414   0.2263024  63.1116219
  78.6660080  61.9046745  64.4527283  77.7452011  62.0768318  64.6494522
  78.8666229  62.4850502  63.7184563  30.1045609  62.8200226  61.9683418
  30.6752758  63.5467224  62.2181854  29.5358009  62.6903038  62.7272339
  11.5222626  59.2272148  56.4468117  11.0539942  60.0611420  56.4858093
  10.8366604  58.5637093  56.5239182  66.7687531   0.3651249  83.3531647
  66.6030960   0.9182532  84.1166000  66.4224396  -0.4926449  83.5991898
  63.3517876  47.2276459  68.3570557  63.0582237  48.1379280  68.3950119
  63.2410316  46.9028130  69.2506180  15.4153757  47.0654373  73.2736969
  14.9098644  46.3625526  73.6819153  15.3119164  47.8101006  73.8661575
  -0.1028246  31.7418270  27.5677052   0.8515845  31.6763535  27.6000843
  -0.3372290  32.2198601  28.3631744  73.3533478  46.0890999  83.6268082
  73.6586838  45.2935829  84.0628738  72.8015518  45.7732735  82.9112701
  84.7585297  57.2988243  41.3544617  85.4653015  56.6534119  41.3667564
  85.1814346  58.1218185  41.5995293  51.7844696  20.3230362  29.2958374
  51.6498795  21.1681080  28.8669186  51.4431725  19.6812782  28.6730270
  80.0778809  38.8488503  20.2055645  80.6611404  39.5764351  20.4215813
  80.5998154  38.2847824  19.6349068  73.6175613  66.3108749  72.0275345
  73.5906754  67.1398621  72.5053329  74.4230804  66.3572693  71.5125427
  79.4219589  44.7055244  46.5483818  79.8299713  45.0003242  47.3625374
  78.5116653  44.9929848  46.6188927  37.3863602  60.0641594  66.0347061
  37.9603920  59.7984314  66.7531052  37.9727783  60.4732857  65.3983383
  53.3947983   6.1814737  75.1217194  53.3945656   5.2503881  74.8996582
  52.7341537   6.2638435  75.8094635  62.2376785  35.6451302  43.4982872
  62.9715500  35.8917809  42.9354172  62.4293633  36.0621796  44.3382645
  12.6008453  51.1705589  72.3560562  12.5419502  51.4796600  71.4520493
  11.9708948  50.4515190  72.4048386  56.2740784  12.7397604  37.7602386
  55.5709610  12.2695913  37.3121300  56.3632507  12.2921324  38.6016121
   6.5977430   9.1765280  46.1518517   6.4878221   8.4379187  45.5530167
   6.3163142   8.8392792  47.0023193  69.6463470   9.0787601   3.2161617
  70.0821838   8.2311888   3.3050478  70.3539276   9.6923819   3.0185931
  73.5851440  11.0337105  78.9458237  73.1099319  10.8970642  79.7654190
  73.3774109  10.2632370  78.4171982  59.4929085  59.7773476  63.9597664
  59.0824165  60.6082497  64.1991959  59.8580894  59.9328308  63.0887337
  28.1304779  38.4878693  78.0863800  27.3955536  37.8894768  78.2206955
  28.2113762  38.5581436  77.1352005  63.3837471  36.0498657  23.7604885
  63.4914589  35.1140404  23.5906086  62.5541115  36.2757187  23.3398609
  70.2936096  30.4485970  75.8522186  70.9984818  29.8197212  76.0068359
  70.0893784  30.3554649  74.9217148  67.2920990  26.2512741  32.1042442
  67.0919418  25.3176880  32.0365219  66.4574432  26.6880951  31.9346199
  77.8102036  24.0523262  -0.0691296  78.0404358  24.8799057  -0.4914275
  78.0373993  24.1819458   0.8516389  72.6418762  56.0292397   9.1044731
  73.2932739  56.5961800   9.5173807  72.1074371  56.6229744   8.5771332
  31.3208427  56.3361473   3.3421633  31.3787365  56.3930244   4.2959166
  30.5052853  55.8621674   3.1795561  80.5213623  48.8434372  68.4353409
  80.4107132  49.0467491  69.3641357  79.7126770  48.3935699  68.1906433
  50.9169350  23.3619595  34.9980354  51.5795479  23.7523479  34.4281425
  50.5245781  24.1064529  35.4541206  63.6569176  52.4554291  74.2729721
  63.5056648  52.8339920  75.1390305  64.0781021  53.1563492  73.7754364
  31.0875416  66.0581360  59.5306664  30.2571812  66.2583847  59.9626770
  31.4790306  66.9139252  59.3557739  45.6013756  31.3775215  32.1828995
  45.0195274  31.1489124  32.9077606  45.2551918  30.8904591  31.4351273
  28.3892536  28.7413788  76.8705444  28.0616493  29.4478436  76.3139343
  28.9457264  28.2194557  76.2924652  74.2498322  40.6927872  84.5866623
  73.9918365  39.8959122  85.0499802  74.6612091  40.3790627  83.7813187
  21.2208099  69.0422745  88.0199203  21.3915768  68.4150085  87.3173447
  21.5682335  69.8711853  87.6906128  71.7585526  68.7588196  52.6353645
  72.0890121  69.3324203  53.3267441  71.5377350  67.9435425  53.0857010
  82.3001099  44.9119110   2.8472922  82.2408295  45.7420883   3.3200815
  81.4106140  44.5590668   2.8704257  45.5195045  36.4795647  53.2133331
  46.4148178  36.5393867  52.8800735  44.9837379  36.3280716  52.4347229
  30.5689297  53.3097801   4.8251233  30.5870628  52.3728218   4.6301594
  29.9237766  53.6687508   4.2159014  19.8486614  56.1936226  44.9670525
  20.1686954  55.7646904  44.1734352  19.7615662  55.4845009  45.6040726
  23.0480747  62.1636429  20.5641365  22.6477909  61.6517639  19.8612938
  22.5426502  61.9354858  21.3443413   3.1434622  55.4293327  75.8087540
   2.1970253  55.5578651  75.7457581   3.3102357  54.6293526  75.3103104
  31.1980934   6.8085017  38.1614304  30.7509193   6.6256170  38.9877586
  30.6604061   7.4799814  37.7416229  10.3974161  54.5915527  53.6459198
   9.7431650  54.0066490  54.0281143  11.2208023  54.1085358  53.7163582
  38.5971832  37.8370895  78.9042816  39.4806595  38.1257439  79.1331482
  38.7095032  37.3429375  78.0922318  52.1279335   0.5093368  84.6259155
  52.9160004   1.0061898  84.8457260  51.4526711   1.1755759  84.4979401
  38.8941231  63.2726288  63.8316879  38.5505791  64.0280533  64.3087006
  39.7349396  63.5706558  63.4846497  38.4187012  53.9888878  70.5882721
  37.4795418  54.0192223  70.7707291  38.8118477  53.6841431  71.4060669
  13.1138153  44.7139091  86.9848251  12.3379650  45.2646255  86.8799438
  13.2406788  44.6567078  87.9318542  13.3410387  46.8428040  43.5658417
  13.3508949  45.8883057  43.6370201  12.9448843  47.1399879  44.3849716
  24.5414524  11.2872705  10.8388195  24.4524250  12.2386932  10.8945026
  23.6803665  10.9511805  11.0874319  74.9284668  24.3474770  47.8159256
  75.6071091  24.3758755  47.1414833  74.9016266  23.4308186  48.0902443
  39.7757530  56.5718231  63.0512810  39.0810280  56.2712250  63.6371422
  40.1561089  55.7674828  62.6982994  70.8816376  13.9576235  64.2719193
  70.7294540  13.2229242  63.6775360  71.7751541  14.2411661  64.0783691
  27.1669312   8.7113247  57.4630928  26.3954029   8.2285366  57.1666260
  27.4651985   8.2340784  58.2373695  57.1106339  22.9085617  57.3915749
  57.7021904  22.3593712  56.8771057  56.2668953  22.4587002  57.3472633
  67.1631546   2.9953661  39.8344002  67.9708710   2.4871070  39.7602539
  66.9269791   3.2029974  38.9303322  78.8564835  50.9007301  76.9734421
  78.2369232  50.4549751  77.5510941  78.9413986  51.7787132  77.3451462
  33.1042252  12.6885614  68.3176041  32.6311188  13.4968042  68.1197510
  33.2225113  12.7066259  69.2672958  50.4805565   3.8034618  31.0484886
  50.2495842   2.9328134  30.7246761  50.7382202   4.2897172  30.2652931
   6.1489005  43.5557518  29.8543777   6.2313004  44.4096985  29.4298592
   5.6003957  43.0444527  29.2594452  41.4158401  69.3337097  83.6467133
  41.4593658  68.5283203  84.1621552  40.5590019  69.2998428  83.2213669
  45.9653854  66.1140671  57.5530891  45.9245796  67.0013046  57.1962051
  46.4002419  65.6015396  56.8715820  12.7670069  44.7908783  35.5798645
  12.1232920  44.2618027  35.1087570  12.7174969  45.6526985  35.1662865
  15.5983181  13.9019232  22.3895874  15.4213295  14.7102413  22.8707600
  16.5119858  13.6989393  22.5901890  61.4562988  64.1051865  24.9873505
  62.2702866  63.6922379  24.6990261  60.8308792  63.9159431  24.2878723
  51.4184456  55.0821228  59.2503777  51.3815231  55.4689522  58.3756027
  50.5960503  54.5994720  59.3337364  79.9338760  66.0834732  77.5887222
  80.6462097  66.1036911  76.9496613  79.6149445  65.1813202  77.5634308
  22.4034824  69.9225693  13.1733665  22.9792557  70.6338043  12.8925495
  21.7838383  69.8168411  12.4514980  43.8031082  15.6898518  73.3526154
  43.5624542  16.5943775  73.1522446  44.7043991  15.7464838  73.6699524
  66.7507858  68.6991272  87.1899414  67.4531479  68.0644531  87.0481262
  65.9476471  68.2136917  87.0013885   0.7579460  53.2931786  80.6251526
   0.1710931  53.4107399  79.8781433   0.4787800  52.4678192  81.0214767
   6.1866188  37.5820122  80.2492981   6.6865106  36.9703522  80.7898712
   6.7335882  37.7204933  79.4760742  14.7651815  22.4191513  78.8985291
  13.9728832  22.4358482  78.3616714  15.3151979  21.7488785  78.4930038
  68.3204117  69.6575851  67.5091171  68.9365311  70.0672226  66.9018021
  67.6854477  70.3460464  67.7068100  49.0535164  22.4298592  27.5061455
  49.1000824  23.1084957  28.1795845  48.1696510  22.0716152  27.5878353
  10.6112022  27.2454433  78.1093063  11.4944458  27.4188519  78.4349442
  10.0784292  27.9521046  78.4740219  10.4884424  40.4442825   9.4399881
  10.9507647  40.8227844  10.1878014   9.9191256  39.7769699   9.8231401
  69.8320389  27.5859718  39.3644066  69.5581512  26.7427769  39.0035172
  70.6603241  27.7771568  38.9243813  72.1131287  39.4383354  72.0196609
  72.2799530  38.6685371  72.5635452  71.1694641  39.5820351  72.0909805
  75.8652115  48.4081230  18.9809246  76.2585068  47.6113243  19.3368206
  76.4115295  49.1170769  19.3202686   9.4672232  54.8194695  10.5504293
   9.5454769  55.0979500   9.6379843   8.8376904  54.0987701  10.5277376
  23.2567101  34.1115646   3.4690521  23.4547997  35.0075493   3.7414563
  23.6984520  33.5613747   4.1158781  53.1983910  24.2663822  33.1250572
  53.9459190  24.0977077  33.6986237  53.3962784  23.7803745  32.3245125
  37.3660011  42.0301208  51.5400620  38.1806297  42.4981651  51.3569145
  37.6396523  41.1272011  51.7015648  23.3297749  43.8961830  25.9049244
  22.4407120  44.1791725  25.6911163  23.2451935  42.9611168  26.0912876
  66.3192139  65.1551208  40.4454536  66.7728424  64.4656372  39.9606171
  66.3471298  64.8648911  41.3571663  24.0721455  36.8534393  17.4050102
  23.8200092  36.3127556  18.1535568  23.7987022  36.3465309  16.6404839
  25.1811237   2.0863657  21.4766827  24.5452347   2.8010628  21.5096397
  25.4941635   2.0858202  20.5721169  43.9640427  19.7428894  12.6851530
  43.7877274  20.4561253  13.2986975  44.8790932  19.5111160  12.8438797
  63.7496147  30.3624344  41.2618256  62.8774605  30.3552589  41.6561890
  63.5940628  30.1895065  40.3333168  39.2427177  32.9030495   3.7712893
  38.8923302  33.7873840   3.8781281  38.4978256  32.3276443   3.9452913
  13.2950401  68.0445099  88.3142700  13.8275700  68.8397751  88.3280640
  13.5106077  67.6263351  87.4806671  48.1754379  51.3038750  59.7240028
  48.1158218  52.2098122  59.4207573  48.4859123  50.8159370  58.9612770
  61.5353966   7.6679759  52.5857391  61.0473824   8.4337654  52.2830200
  60.9527435   6.9286523  52.4121017  26.6117249  58.7841530  71.9867935
  26.3035030  57.9477501  71.6379929  25.9141884  59.4041023  71.7738571
  22.9098320  61.4753799  81.4772339  23.4926376  60.7161980  81.4626312
  22.0414696  61.1075859  81.6412659  76.4306259  42.9978943   6.9119234
  76.0507355  42.1404190   6.7204742  76.4238510  43.0549355   7.8673987
  78.1947556  66.2630310  43.7087898  77.4756622  65.7812119  44.1174202
  77.9418259  66.3358459  42.7884903  75.9837112  44.9075089  30.1773033
  75.3590393  44.4076042  30.7027683  76.8244705  44.7762680  30.6156330
  74.5723648  43.1133728  76.4214020  73.7473145  42.6833038  76.6462708
  74.8570938  43.5264587  77.2365875  78.1233444  66.8126373  33.1395264
  77.1699982  66.8973541  33.1258659  78.4365387  67.5454330  32.6092949
   1.4216319  41.3678093  45.0333519   0.5665076  40.9397850  44.9910545
   1.2193882  42.2954826  45.1548271  57.0139236  45.5494766  52.4410934
  57.7005234  45.5220833  53.1074715  57.0541992  46.4398994  52.0921593
  27.9159946  65.0515289  70.9688721  28.5289726  65.7841110  71.0306625
  27.6576595  64.8783875  71.8741455  65.9529266  63.0685997  36.6272926
  66.5035019  63.2805672  37.3810654  66.3280945  62.2609901  36.2762184
  59.1836624  18.0745773  19.4271107  59.9327126  18.1554737  18.8366776
  58.4308167  17.9678383  18.8456802  13.3512573  60.6370659  20.5217342
  13.3795328  61.2270203  19.7684841  12.4218750  60.5743103  20.7420578
   4.2712178   3.3926311  12.4432125   4.2192616   2.4384229  12.3882656
   3.9213479   3.6020768  13.3092127  78.7474899  40.5973434  26.8730145
  78.2205734  40.6753426  26.0777111  78.6643372  41.4499893  27.2999935
   9.0498724  70.6113586  44.9658775   9.7532253  71.2153320  44.7276726
   9.2909756  69.7855072  44.5462723  13.2817640  21.1179047  16.7582016
  12.8041592  21.7296562  16.1979485  13.8735886  20.6591377  16.1619568
  68.4538879  20.4319458  73.6902695  68.7335281  20.3134518  72.7825317
  68.5173569  19.5583935  74.0764160  59.1646156  65.0764542  55.0575562
  59.1526794  64.2628860  55.5617332  58.9626846  65.7582932  55.6983070
  62.0142746  42.0224991  33.5909996  62.3218918  41.1874657  33.9435997
  62.5837555  42.1897316  32.8400269  69.1511765  47.2250481  71.1632080
  68.4496307  46.7388077  71.5963745  69.2673950  46.7807159  70.3233948
  69.4214859  46.5546341  27.8410645  69.6103287  46.5751877  26.9029045
  69.3599930  47.4759674  28.0932446  63.3230362   8.8588266   3.3238535
  62.9241943   9.0069504   2.4664056  62.5804520   8.7431440   3.9166577
  60.4255943   6.6905398   1.8638289  60.0367088   7.5107460   1.5600868
  60.3243294   6.7153754   2.8153331  84.9679718   0.1809524  72.8584137
  85.2899170   0.9704115  72.4232864  84.2469940  -0.1201896  72.3054733
   6.4337759  52.0599365   6.9994326   7.3394666  51.7501945   7.0033722
   6.3650146  52.5889359   6.2046595  73.4129410  52.9229393  19.9507866
  73.3697205  53.8251686  20.2675591  73.1576233  52.9798813  19.0300255
  60.7328262  46.7031479  72.4411163  60.6795578  46.0555191  73.1439514
  60.4202805  47.5153732  72.8396683  70.1284485  62.5842857  71.7671051
  70.3776321  63.5017357  71.8785706  70.4403229  62.3560867  70.8913803
  54.8752289  24.7520542  39.9965134  54.4586296  25.6138248  40.0018768
  54.2947464  24.2021236  40.5226784   5.6717854  13.3573132  28.9188366
   6.3680701  13.1890554  29.5537453   5.8025107  14.2683344  28.6558113
  13.5093050  22.2739143  26.2518482  12.9391823  21.7180977  25.7205677
  13.1422758  23.1529179  26.1576385  26.3459091  28.1745529  73.3084564
  27.1879997  28.5886211  73.1196060  25.9784660  28.6942196  74.0234146
  50.4533844  32.2496910  63.2420540  50.3476334  31.4119339  63.6928482
  50.7296867  32.0121841  62.3569107  53.5870247  58.3283615  16.2184925
  52.6933937  58.1600494  16.5173645  53.5161705  58.3735237  15.2649879
  70.5160675  47.5688667   6.8044043  71.0171738  46.7649536   6.6671042
  71.1037827  48.1349258   7.3048048  79.1522522  34.4801292  44.0930786
  79.2704163  33.9632912  43.2961159  78.6048965  33.9317970  44.6551895
  22.2672691  14.1012068  85.4446869  21.5136528  13.7037220  85.8809204
  21.9197788  14.4245720  84.6134720  72.5755463  57.2792931  73.1033249
  72.7828217  56.5164146  73.6430359  73.0156555  58.0084572  73.5401917
  59.7691307  52.3145790  10.0139952  59.1407509  52.9795914   9.7327042
  59.2506180  51.5140495  10.0947733  18.4512691  33.5246277  12.3234549
  18.7672901  32.6235695  12.2566977  19.2419319  34.0461159  12.4617729
  33.5264511  48.2224655   4.0130653  34.1880989  47.7923584   4.5547867
  33.9790306  48.4184837   3.1927125  66.2706223   2.4079008  21.9045753
  65.6545258   1.6908659  21.7545013  65.7999268   3.0118473  22.4789677
   7.8652887  65.9771881  74.7508392   8.0498409  65.4197311  73.9949188
   8.2203388  66.8328094  74.5098267  81.2162399  53.9311714  62.9997902
  81.8256836  53.8572426  62.2653847  81.6431732  53.4578629  63.7138901
  54.9863892  69.4686279  76.1859894  55.8493843  69.1685867  75.9006042
  54.9419174  70.3799820  75.8967133  30.7117138  44.3828430  12.5955200
  29.9646530  44.6250839  13.1427402  31.4239597  44.9451981  12.8999786
  81.5033340  54.0096321  28.6340027  81.9996643  54.4026604  29.3519268
  81.2022476  54.7551956  28.1146641  12.8592072   9.2013025  87.0353394
  13.4510365   9.3709402  87.7682724  12.9894762   9.9438276  86.4454956
  40.6102448  61.2414131  71.9051361  41.0008316  62.1029129  72.0517349
  39.8200035  61.4203033  71.3954849  61.7974052  17.0563889  61.1524391
  61.2973061  16.2480621  61.2653160  62.4490929  17.0346832  61.8531990
  58.9616280  43.5488663  77.9712677  58.2273293  43.5656433  77.3574600
  59.7398300  43.5743370  77.4144974  60.0701180  68.0479355   7.1816750
  60.1561966  68.3708572   6.2847109  59.7486916  67.1516495   7.0837488
  15.2934380   4.3907399  72.2897720  14.8512058   4.6087856  73.1102142
  15.6491861   5.2238841  71.9806671  20.9203949  12.7094650  78.5071487
  21.5150318  12.0588751  78.1338272  20.0495987  12.3261318  78.4022675
  83.1695099  40.9634209  69.4584885  82.7782516  40.8652458  68.5904465
  83.9394913  40.3950729  69.4398193  61.4937057  42.1174965  15.9728994
  61.0326347  41.8296738  15.1849880  61.1603127  41.5486259  16.6667747
  66.9909668   1.3627396   3.7436607  67.6423492   0.9250018   3.1956456
  67.4857483   1.6736039   4.5018067  19.0602417  57.7382088  71.4940491
  18.5933437  57.1085930  72.0434341  19.3503647  58.4179573  72.1023254
  64.6619644   0.7847997  54.1036873  64.7457199   1.5913047  54.6123810
  64.8250580   1.0538038  53.1996574  59.1451645  25.3844490  26.3383980
  59.0598068  24.9624138  25.4835110  59.8228645  24.8797264  26.7880764
   4.8877645  56.6684113  35.9318848   5.1894674  56.5546989  35.0306244
   4.4484081  55.8446541  36.1431236  78.0550537  41.8677521  39.7878036
  77.9883652  41.9303589  38.8349838  78.8578339  42.3423920  40.0034180
  49.5136566  56.3824234  41.7462654  50.3132477  55.8608093  41.8155441
  48.8779602  55.7934799  41.3397293  55.0508423  62.1160393  28.2981720
  55.2540016  62.2768364  27.3767052  55.4257965  61.2541504  28.4792385
  25.9734173  18.5239811  33.4085388  26.8135567  18.6802425  33.8397903
  26.1520042  18.6632996  32.4785233  64.7145844   6.0821099  34.9113235
  65.4112625   6.3875847  34.3303261  64.8876419   6.5209994  35.7441864
   2.1025584  18.7950993  58.0589600   1.8957725  17.8612309  58.0220871
   2.2607579  19.0415459  57.1476593  35.0151825  61.8491936  84.7553024
  35.4624596  62.3018265  85.4703522  34.4123878  62.5016670  84.3987198
  82.8800812  66.7164688  10.4840527  83.4631882  67.2169571  11.0547829
  82.5917740  67.3469391   9.8240423  59.0559120  28.7595882  53.1028633
  58.7617455  28.3354015  53.9089432  59.9977264  28.5911980  53.0735359
  51.0659447  47.3005295  81.0320816  51.7316132  47.7927818  80.5516586
  50.3091888  47.2862625  80.4461212  18.3833809  63.2927551  38.6955299
  19.2462273  63.2065315  38.2901955  18.1098824  64.1864548  38.4888229
  25.6630516  25.8560181   0.9446654  25.0091038  25.1964016   0.7133888
  26.4821529  25.5186710   0.5820330  46.4908066  47.8886185  71.3278961
  46.6515045  48.6752357  71.8490906  47.3269157  47.4226532  71.3334885
  71.3719635  57.4436684   5.5098028  71.7597656  58.3075829   5.3701539
  71.1596909  57.4244270   6.4429693  41.2889404  53.6590538   4.7621708
  40.3874626  53.7510300   5.0705748  41.3885231  54.3474464   4.1045780
  61.6300278  55.8724365  57.9095726  60.7041588  55.9963875  57.7006798
  61.6414948  55.6928825  58.8497124  11.5872030  47.7650337  67.3850937
  11.8384876  47.6904716  68.3057022  11.5199995  48.7073097  67.2307205
  48.8593864  20.2107201  13.6381187  48.5466995  21.0107002  13.2156353
  49.8083076  20.3238678  13.6927013  78.8244400   4.1377525  54.9019890
  79.4270935   4.1529303  55.6455002  78.5249710   5.0430026  54.8178978
   1.9587352  58.2365303  58.7771187   1.4555699  57.4222984  58.7681694
   2.8653646  57.9564552  58.9028587  75.2927933  47.2131996  63.5343590
  75.4806824  48.1517448  63.5421448  74.5358582  47.1252670  62.9550934
  50.4914474  27.7149353  30.4777412  49.8516846  28.3129883  30.0913906
  49.9673042  27.1100121  31.0026913  44.5487213  35.5723839  10.6028976
  44.0367088  36.3517227  10.8190107  45.0333061  35.3743553  11.4042683
  55.6299896  52.4373894  43.7247696  54.6927414  52.6317444  43.7199249
  55.7220383  51.7172470  44.3485947  44.3092880  47.4635239  15.4320631
  44.5038300  46.5267677  15.4615536  43.9475632  47.6603432  16.2961521
  63.1615791  28.5761013  48.7965698  64.0305328  28.4068527  48.4325600
  63.2227821  28.2868862  49.7069740  70.9215012  49.1826439  27.1005344
  70.2296448  49.0558586  27.7497616  71.7341003  49.0362434  27.5847683
  18.5098667  24.5598297  75.7883072  18.3582497  23.6950684  76.1696701
  19.2499561  24.4333572  75.1945877  13.4078140  53.4168663  84.7581787
  13.9038191  52.9985962  85.4619293  14.0753012  53.8070488  84.1938629
   4.2095466  31.6912708  32.5016212   5.0445962  31.9079418  32.0869179
   4.1143451  30.7479687  32.3699036   3.1158869  50.0505142  79.4329376
   3.6343279  49.3469696  79.8234253   2.2532895  49.6611519  79.2895584
  39.8213997  39.3342247  33.3569870  40.0407600  40.2633438  33.4266129
  39.3782463  39.1303787  34.1805725  53.9269218  70.0644989  36.8987617
  53.9832878  70.2611542  35.9636765  53.1014328  70.4608459  37.1775284
  74.6236877   0.7457721  14.2436056  74.1554565   1.5798885  14.2083883
  74.3932343   0.3775673  15.0965710  43.3685646  52.6006355  75.0905075
  43.8891411  52.4779205  75.8843460  43.4359779  53.5367050  74.9022064
  59.3445129  68.0731964  34.5137482  59.1118279  67.2857666  35.0057335
  58.5126724  68.5282822  34.3827095  49.6064873  61.4626770  15.9129887
  50.3578072  62.0232544  15.7193241  49.7585182  60.6714211  15.3962421
  12.5478697  43.1848488  57.3243904  11.7985687  43.3247795  56.7454262
  12.1703758  43.1634102  58.2037506  66.4016037  58.4523354  49.7904701
  65.4856415  58.5385132  50.0547066  66.6823120  59.3481903  49.6037102
  20.8918686  35.1228256  11.8815346  21.3665943  35.9263649  12.0941181
  21.5562305  34.5438919  11.5077858   1.9319359  23.5786572  74.5751572
   1.7809136  22.8808060  75.2126770   1.4938712  24.3433266  74.9488068
  79.8124771  22.2613297  77.1061249  80.4194336  22.3558273  76.3720245
  79.2757950  21.5025673  76.8770218   5.8127732   1.0994018  64.2232895
   6.5804443   0.7179464  64.6492081   5.6847105   0.5664800  63.4385452
  43.7382240  18.2654209  64.3027954  43.7100143  19.2136192  64.1748962
  42.9501877  18.0684986  64.8092041  31.1287403  27.5953884  73.4099731
  31.8096867  27.0884342  72.9677734  30.5330296  26.9364357  73.7665405
  54.1224709  42.6998596  25.9897499  53.9996414  43.3353004  26.6949883
  55.0356712  42.8097115  25.7247372  56.0482407  48.8837051  58.3382759
  56.8861008  49.3319664  58.4535332  56.1415405  48.0703468  58.8342361
  82.8014755   0.8471315  38.8929482  83.2098160   1.3959996  39.5624542
  82.9811478   1.3004687  38.0692787  13.6192989  53.5584373  33.6088600
  12.9102621  52.9158173  33.6321373  13.3395853  54.2001724  32.9560432
  70.3062897  13.2129955  33.5832558  70.6401520  14.0058928  34.0028839
  69.4388580  13.4591160  33.2619972   0.0019974  25.8012085  64.3216858
   0.7693787  25.2491627  64.1713409  -0.7318500  25.1875038  64.3543625
  49.3759270  63.9657631  11.6179686  49.6451492  64.4199677  10.8195620
  48.5675049  63.5141640  11.3756075  51.2100220  68.4691315  66.3160095
  50.7810822  67.8497925  65.7255402  51.4227524  67.9515686  67.0926132
  49.2742958   7.6001282  51.3895683  48.3912811   7.4339952  51.0595474
  49.5256424   6.7842436  51.8224525   1.6052350  15.3428411  14.3221283
   1.0398487  15.7027655  13.6387358   2.0258667  16.1087055  14.7129641
  49.3633614  38.1092834  78.6879044  48.8978806  37.9825516  77.8611679
  48.7598763  38.6210518  79.2265396   9.2383070  25.8006706  12.0747252
   8.8216925  25.6345673  12.9203453  10.0308666  26.2920742  12.2906094
  65.7711563  65.0819550  62.8903923  66.1272354  64.2678604  63.2463417
  66.5307007  65.5365143  62.5261192  75.4523697  71.2091827  36.6744385
  74.8217316  71.6223373  36.0846672  75.4485397  71.7629395  37.4551888
  72.2726898   5.8451281   9.2722340  73.1111145   5.5700226   8.9013052
  71.8990479   5.0441728   9.6397820  44.8111534  25.1345482  88.5505829
  44.2291832  24.5939884  88.0164108  45.2072372  25.7458801  87.9295959
  26.1488686  49.3558769  51.0124130  26.3352852  50.1486359  51.5154190
  26.9992619  48.9268188  50.9176826  22.0914745  32.4008141  67.0823517
  22.8894367  32.9027824  66.9164810  21.5089283  33.0169144  67.5265274
  43.4584389  54.9971542  82.5419312  42.6923256  55.5015182  82.8156509
  43.1272087  54.1080170  82.4156189  76.7449265  57.0505486  31.1367912
  76.2528992  56.6860771  30.4010582  76.7387848  57.9955177  30.9843807
  18.2893944  71.0257492  89.1287079  17.4420929  71.3055878  89.4751205
  18.6981373  71.8324356  88.8149948  76.5755844  29.9436417  29.1079025
  77.2048874  30.6611252  29.1815662  75.7966003  30.3467102  28.7245674
  12.5007668   1.4000500  48.0825157  11.5737429   1.3391818  48.3130646
  12.8445463   0.5203806  48.2381706  43.9547005  70.8303452  20.8242569
  43.4662552  70.0752563  21.1521187  44.7492714  70.8515549  21.3575859
  65.2016983  40.6195755  59.0169716  65.4112320  39.8537102  58.4823875
  65.4450378  40.3643532  59.9068489  57.0930138  46.3412590  72.1764908
  56.7787628  45.4551544  72.3562012  57.5460281  46.2689476  71.3363876
  57.7647362  64.0572815  65.5790024  57.5830040  63.3908615  64.9163666
  58.7170601  64.1530762  65.5674591   7.6358809  44.1994743  56.6976242
   6.8520236  44.6756668  56.9715576   7.3002148  43.4307518  56.2365112
  85.6752319  25.2833633  12.7114153  85.7791901  24.3318691  12.7204962
  85.5085526  25.5148220  13.6251316  31.9562206  53.6414986  49.5264282
  32.4050217  53.6833305  48.6819992  32.4333191  54.2578735  50.0820312
  62.1702576   6.6341581  37.5249634  61.9284401   5.7562432  37.2299690
  62.8877373   6.4903297  38.1420288  74.0955963  62.4862137  21.0389729
  75.0138474  62.4307938  21.3035049  73.9329147  61.6700630  20.5660419
  12.6457319  17.7637310  74.6478348  12.5151043  18.2015858  73.8067322
  13.4772806  18.1100807  74.9715576  79.8847885  30.9999218  50.2233505
  79.8827591  31.2522545  49.3000107  78.9714432  30.7876740  50.4156494
  34.2131577  71.3905563  36.5501099  33.8542442  72.2670746  36.4118309
  33.9132538  70.8868256  35.7934418   6.4366207  15.7179604  27.8071556
   6.4363971  16.1830788  26.9705582   6.4910574  16.4101734  28.4660263
  16.2737427  67.6257935  23.9401531  16.4332275  66.9131851  23.3212967
  17.1102161  68.0880203  23.9939289  56.9084892  23.9770432  42.0132942
  56.8421135  23.3536549  41.2899590  56.3575211  24.7129345  41.7465935
   2.4819357  55.3299751  56.8313255   2.7819231  54.4295158  56.9554787
   1.6293641  55.3603935  57.2654076  14.9122896   9.4510088   2.1351862
  15.4900017   9.9147015   2.7413795  15.1972351   9.7364349   1.2671020
  62.4868965  38.3972931   4.6615038  62.8149300  37.7710762   4.0161514
  62.7102585  39.2544022   4.2985930  81.6470795  12.1674309  22.5636959
  82.3812332  11.6607676  22.2165127  80.9498672  11.5236988  22.6891403
  71.8192215  49.8728104  31.0125866  71.0753326  49.7316589  31.5981960
  72.5701447  49.9694138  31.5982628  57.0039215   5.9561963  13.1738958
  56.7956924   5.4979768  13.9880857  57.6913910   6.5762534  13.4171000
  45.2849541  66.4147797  89.0089798  45.2137718  66.0084381  88.1452408
  45.5638504  67.3125992  88.8290482  64.7052002  23.7828484  53.4999313
  65.2406540  24.0243206  52.7441483  64.4517670  22.8749104  53.3336372
  59.4489212  36.8380013  15.1017151  58.5710983  36.6759911  15.4472723
  59.9366226  36.0392570  15.3026867  19.6105347  54.0255470  32.3000336
  19.5952091  53.9363937  33.2529488  19.2785511  53.1883621  31.9757805
  68.5592651  37.0924759  68.3973770  67.6254883  36.8843803  68.3659515
  68.6117706  38.0026360  68.1056900  26.1361923  55.8667946   4.5083876
  25.7455025  56.5076714   3.9143577  25.4809418  55.1723137   4.5760336
   7.4725161  57.1633949  41.0121956   7.9284539  57.7184982  40.3795700
   7.9705234  57.2656403  41.8232231  34.5921440  14.0608969  73.8593292
  34.3209724  14.4223013  73.0154800  35.3166389  14.6209431  74.1380539
  34.2657623  60.4272423  66.0788879  35.1975365  60.4348907  65.8598633
  33.8227692  60.5936508  65.2468491  64.9698257  23.9551678  12.4694271
  65.4384232  23.6695290  11.6851673  64.5631714  23.1580029  12.8091173
  47.7917366  60.8533096  68.5474319  48.4927330  60.7674751  69.1935501
  47.2927780  60.0402222  68.6259308  47.8692894  65.2346954   1.0778027
  48.4106522  64.6930847   0.5035083  47.2680206  65.6855698   0.4849976
  47.9657249  50.5798187  62.8046150  47.6039696  49.6961250  62.8713074
  47.6658249  50.8977509  61.9530220  47.7877235  27.5557022   4.9158192
  47.3874168  28.3202820   4.5018082  47.8283501  27.7804623   5.8453693
  84.3675308  27.9076004  81.1513824  83.8770218  27.7658310  80.3417282
  83.6945343  28.0112495  81.8241119  36.4531021  67.4035492  10.5165567
  35.9741859  67.3591461   9.6889706  37.2579422  67.8754044  10.3025084
  19.8880405  20.1953068  57.3452072  19.6653805  20.7109966  56.5701485
  20.2733650  20.8280659  57.9513206  10.2129555   2.2572796  63.6488495
   9.5678244   2.1025777  62.9588470  11.0160351   2.4832950  63.1795807
   8.8487396  54.2820282   5.0046659   9.5321598  54.8906250   5.2853470
   8.7943096  53.6399879   5.7125168  21.6964550  27.7013550  80.3492889
  20.8454151  27.2655239  80.3941727  21.6226044  28.4345112  80.9602356
  24.6916466  43.1860771  64.5122299  24.3360424  42.3210907  64.3083267
  23.9771729  43.7915192  64.3142471  47.4669952  19.3781185  62.0455017
  46.8871803  19.4323444  61.2858276  48.0622978  18.6568642  61.8414459
  37.3437653   8.3094969  88.0641174  38.0191154   8.4381695  88.7301331
  36.9836617   7.4428487  88.2524796  19.8034325   6.1073451  85.7925339
  19.6121254   6.9214430  85.3268356  19.0037651   5.5884013  85.7061539
  32.5592461  24.0071945  86.3624115  32.5184669  24.6127682  87.1025772
  32.7391205  24.5653782  85.6059036  42.8726273  67.5159760  42.0846405
  43.2082024  66.6272125  41.9674911  41.9335556  67.4417572  41.9147491
  27.0628643  25.6899834  73.2394943  26.6628437  26.5516186  73.3569641
  26.4497833  25.0827923  73.6538391  85.8268585   8.3079462   1.9627625
  86.6200790   7.8003922   2.1342599  85.4769058   7.9387488   1.1519243
  32.5628738  17.2505913  73.6046600  32.4050903  17.7795181  74.3866959
  33.5070000  17.3129082  73.4598389  84.0344543  68.6680527  58.2708054
  84.2200394  69.3405304  58.9262123  84.6524658  67.9642410  58.4681549
  12.5585880  43.7325516  81.7384644  12.4735212  44.0282555  82.6448593
  13.4319334  44.0210457  81.4733734  71.9484482  69.9846725  78.2477341
  71.2880020  69.9308472  77.5569763  71.4703751  70.3074951  79.0115814
  55.3945312  10.1481390  49.7911263  55.2421494   9.2845650  49.4073944
  56.1698875  10.0327177  50.3404274  52.8954163  43.3678589  29.3703613
  52.3641815  42.6169319  29.1055431  53.6651115  42.9813690  29.7880001
  51.2876434   9.3080549  17.0209637  51.7659912   8.5927305  16.6017666
  51.9612045   9.9536781  17.2347736  52.3745346  23.4807663  23.2209797
  53.0625076  23.6647167  23.8605785  51.5603981  23.5419178  23.7206554
  41.5841064  50.0363388  78.8584518  41.5577011  49.9475250  77.9057465
  40.6804008  49.8897133  79.1378098  38.3379822  35.3688889   4.7264438
  38.6038589  36.0892448   5.2979560  38.0155907  35.7982941   3.9340386
  83.8085327   9.2425098  47.0913925  83.5573273   9.4650936  47.9878235
  83.0054016   9.3544903  46.5827866  30.6525326  49.1975479  49.2997437
  31.0750542  48.3489494  49.4323807  30.8995323  49.7109222  50.0689468
  66.2173691  24.6412487  82.9460907  66.2070465  25.5944977  82.8598328
  67.0503845  24.3745728  82.5572586   5.9159951  33.6259766  20.5999126
   5.4850583  33.5795937  21.4533615   5.7892661  34.5314331  20.3165016
  82.0639267  11.2185202  82.6738815  81.6976776  11.4134264  83.5364990
  82.9524841  10.9119043  82.8546524  64.5106659  44.8503189  34.8344116
  64.3390045  45.0332565  33.9106712  63.7610970  45.2258949  35.2962761
  46.2462196  13.5395699   2.8334079  45.7490425  14.0973520   3.4316752
  47.1203461  13.9291010   2.8134556  18.5322247  51.3188286  36.6678810
  18.0980091  50.6170845  36.1828575  18.7067318  50.9415894  37.5301285
  60.2872810  39.5778999  83.4611435  60.5401115  40.3948517  83.0311508
  59.4861374  39.7959137  83.9374542  44.9944649  70.7739716  58.7364159
  44.9774818  70.0451279  59.3566895  45.2081299  71.5386047  59.2711258
  15.9416914  30.6264458  36.3570290  15.0474443  30.9626255  36.4165077
  16.0337200  30.0544739  37.1190071  13.3813105  29.1426506  10.6486168
  13.3304062  28.9069500   9.7222881  13.0900393  28.3573322  11.1119394
  44.4756660  41.8245811  36.0854378  45.0608292  41.6614761  35.3456993
  44.4283791  42.7785873  36.1476021  28.1121464  33.2483711  88.4204865
  27.5729561  32.6260071  87.9324646  28.2705994  33.9630623  87.8037643
  62.1129646  55.0479279  24.5426350  61.8806725  55.0803070  25.4706554
  61.7960701  54.1947899  24.2460384  22.0752621  61.2026405  75.7456207
  22.8383694  61.3863373  75.1977615  22.1080265  60.2573853  75.8927765
  15.4788284  62.9428329   4.6851277  16.1926308  63.5106621   4.3948073
  15.5183353  62.1886978   4.0969496  78.0188217   2.2025397  62.3245888
  77.7584839   1.4357073  62.8349037  78.3382645   1.8424602  61.4972229
  45.0375214   9.7126799  12.8887777  45.8984299   9.4214764  12.5883274
  44.4183655   9.2619152  12.3145952  39.5784569  57.0450058  45.0261765
  39.9334946  56.2859077  44.5636292  39.5382843  57.7330055  44.3618965
  46.3423042  41.3267174  58.6400948  46.5205345  41.8354568  59.4310760
  46.2725487  41.9811516  57.9450531  11.1823168  44.8143730  10.7819061
  10.5332155  44.3939857  11.3459749  11.0780926  45.7503548  10.9530954
  34.2235718  56.5401077   3.0024304  34.3704338  57.2968674   2.4349973
  33.2722931  56.4933739   3.0979199  13.1498013  47.6980057  31.6247597
  14.0463371  47.7308884  31.2910347  12.8836708  46.7861252  31.5069332
  41.0470047   2.5892286  38.9134636  40.8118935   3.2891443  38.3043060
  40.2569695   2.0526829  38.9782562  40.2733269   5.2304463  21.4364605
  39.8310356   6.0091391  21.7744637  40.0300179   5.1994462  20.5112190
  23.6161785  26.1780796  21.7708111  24.1012402  25.4099426  21.4692955
  23.4739494  26.0203648  22.7041550  70.6310654  10.6057234  22.7695694
  70.2842331   9.7235336  22.9025345  70.4111938  10.8152266  21.8618279
  28.2621918  68.2873840  68.5150070  28.9342690  68.9525299  68.3662720
  28.6322460  67.7200317  69.1913223  71.9132996  15.6432505  37.4850311
  72.6265640  15.6097107  36.8475685  71.2120209  16.1145210  37.0352097
  41.5778236  44.1863518  45.7601433  41.8729439  43.5246429  45.1346245
  42.0521393  44.9796448  45.5112495  80.4865112  21.3289337  13.0112171
  79.5329208  21.3505745  12.9309778  80.7240753  22.2151299  13.2840719
  52.4055748  42.7740974  47.5461540  52.4386253  42.9521408  46.6062393
  52.3146706  41.8231544  47.6067429  36.7580872  38.9682426   9.9715309
  36.5309753  38.2531586  10.5659275  36.4738235  38.6629982   9.1099911
  23.6951904  35.4667435  88.5148926  23.1312847  35.2111206  89.2448959
  23.8789196  36.3936920  88.6673508  20.3435783  19.1306973  53.8826218
  20.2067356  18.4793301  54.5705376  19.4947205  19.5632515  53.7900658
  70.1712646   8.2048235  71.3544769  69.2194519   8.2904730  71.3001480
  70.3280487   7.2606754  71.3391495  67.4022064  62.0492058   2.5643013
  67.6449890  61.9228439   1.6470658  67.6030121  61.2120514   2.9827299
  84.6537857  60.3436165  88.8061447  84.5268631  59.6769295  88.1311264
  85.3886719  60.0200424  89.3271866  24.0910072  65.1605606  87.4124069
  24.9418774  64.8075714  87.1523132  23.4568043  64.5231476  87.0841904
  13.5528069  47.4328766   1.1690096  13.1423855  46.7958450   0.5842214
  13.3444147  47.1191902   2.0490134  19.2390327  54.0140610  56.5384254
  20.0447044  54.3257751  56.1261635  19.2385159  53.0700989  56.3797874
   4.7367015  24.9264126  40.1955223   5.4250011  25.3046455  40.7427101
   4.0104880  24.7689400  40.7988853  80.8862076  30.6930065  79.7238235
  80.2901535  31.0958939  80.3551941  81.1257324  29.8557377  80.1211090
   3.6555424  65.5693817  11.1443701   3.7477617  66.3671646  11.6652050
   3.5038972  65.8818512  10.2524090  70.7769012  31.4388714  40.7248039
  70.6985168  32.3594742  40.9749527  70.3840942  30.9583759  41.4535370
  62.5485954  53.7320099  11.1289530  63.2386360  54.3297272  11.4167252
  61.7392120  54.2319679  11.2346344   3.6689262  29.8095970  67.1670914
   3.7837226  29.3137894  66.3563919   3.7052543  30.7263927  66.8943329
  70.4167404  11.7496862  50.5748177  69.9427109  12.5049896  50.9227333
  71.2908630  12.0858612  50.3770294   4.1477666  20.3374538  66.1437378
   4.8271890  19.7305069  66.4373856   4.6209435  21.0037003  65.6452866
  69.9935684  38.6638908  43.4305077  70.3154831  39.3121452  44.0568962
  70.3654861  38.9361534  42.5915947  11.7721844  66.6392670   6.2860279
  11.8117886  66.0097122   5.5660830  11.5417471  67.4683533   5.8667998
  74.8332138  29.4033699  56.3306313  75.5616684  30.0174923  56.2387695
  74.2675323  29.8001385  56.9930573  58.2383995  15.5169487  12.8123665
  57.9549026  16.1232834  13.4966316  58.9500427  15.0184050  13.2139263
   3.8575554  41.9504128  68.6413040   3.9744463  42.4861641  67.8567429
   4.4550695  42.3330193  69.2838135  80.1015015  14.3684635  46.0098343
  80.8813629  14.8900585  46.1995468  80.0337143  14.3775406  45.0550804
  54.5807838  60.2275124  46.9321365  53.6916962  60.4874458  47.1733627
  54.4865608  59.8239822  46.0692825  55.9274292   3.3417923  55.8950005
  55.4646301   4.1747022  55.9861565  55.2322731   2.6907129  55.7996864
  83.3266754  55.5338211  34.5117455  82.4145050  55.3842468  34.2631454
  83.3015060  56.3245583  35.0505676  65.6214294  29.4374180  28.8905258
  64.7619400  29.8487911  28.7995701  65.5497513  28.6210041  28.3959923
  85.5817719  38.2878456  66.2121506  85.9795914  39.1537743  66.3023605
  85.4450912  37.9921150  67.1122055  74.5941315  48.4246101   8.0061522
  73.8858414  48.4919281   8.6464777  74.2703857  48.8986130   7.2401643
  84.7692413   6.8584247   6.7480674  84.0823975   7.5245576   6.7753606
  84.6875763   6.3958807   7.5821033  74.1227341  38.4962730  10.4603720
  75.0031738  38.4878654  10.0848904  73.6500473  39.1521492   9.9478998
  24.6393242  57.1523972  37.2900925  24.1512775  57.6732597  36.6523247
  24.4470215  56.2445831  37.0553169  50.2718048  28.9485664  72.5096283
  49.9985275  29.3546371  71.6870346  50.3986931  29.6838818  73.1091614
  49.2776451  14.1759577  43.2117043  48.9801445  13.8312607  44.0536728
  48.7625504  13.6980000  42.5617332   3.8396134   3.3542361  79.8339310
   3.3395085   3.9576197  79.2843323   3.6077571   3.5982847  80.7299805
  49.6578178  10.0848322  24.9245625  50.1838150   9.7805719  24.1849785
  50.0283203  10.9390221  25.1466427  34.3758736   5.0744891  17.8593330
  33.9429855   5.2404900  17.0219078  33.7101898   5.2756324  18.5170841
  17.7387257  27.0429134  30.6918373  17.8865147  27.8870583  31.1182270
  16.8593197  26.7854824  30.9686165  71.9352264  69.3092346  19.6936741
  72.1590347  68.5035477  20.1595211  72.2955627  69.1861038  18.8154774
   5.6436768   9.7279625   2.7470310   5.4794464  10.4719467   3.3264675
   6.5930500   9.7244787   2.6249237  39.2743034  51.4870453  49.2986565
  39.3732758  50.9552116  50.0883331  39.4975052  50.8941803  48.5810738
  65.3564758  67.0057907  42.9769821  65.3875809  67.3822937  42.0974884
  65.8420105  66.1841888  42.9031105  38.9397125   3.5078275  69.7138443
  39.7873650   3.8824644  69.9533615  38.3714714   4.2665529  69.5809326
  61.1711388  40.0246162  25.3986492  61.6015053  39.9529839  24.5466595
  61.0038872  40.9611244  25.5045166  53.0576019  66.9835739  13.9932985
  53.0075188  67.4653473  14.8188992  52.2723885  66.4361801  13.9873991
  84.3726196   1.6077719  51.1353683  84.0919571   1.5276453  50.2237549
  85.2055359   2.0771811  51.0891647  85.8179703  53.7373352  11.5984602
  85.4629364  53.4320488  12.4333153  85.1018753  53.6160660  10.9749746
   3.2724416  28.9183636  24.4838867   2.3228610  28.8632755  24.3766785
   3.5184453  28.0797462  24.8743172  11.6916199  64.8092422   3.9918096
  11.0664387  65.0666733   3.3142333  12.3203602  64.2487564   3.5370946
  79.7694244  51.1391602  11.1162510  79.7167282  50.3122101  10.6370792
  79.0752182  51.0802956  11.7726355  73.0039749  53.9332161  53.3477745
  73.9391708  54.0111160  53.1591568  72.8982697  54.3407059  54.2074356
  52.5129471   4.0618830   1.2842361  52.3343506   4.7937226   1.8747838
  53.4016190   3.7851822   1.5076771  80.0245056  13.1973982  77.1791153
  80.0131226  14.0236568  77.6622314  79.5507355  12.5845919  77.7414703
   9.1946945  55.5280457  39.0608482   9.0382776  55.4275322  39.9998169
   8.5146332  56.1348381  38.7683563  43.2124672   4.7697926   3.6495850
  42.3655472   4.4680943   3.9781284  43.4801445   4.0967827   3.0237744
  19.9512978  12.9283895  86.8461304  19.7603550  12.4153509  86.0609131
  19.4118252  13.7139359  86.7560272  43.3081398  25.9297447  71.1811752
  43.7995110  25.1268368  71.3547363  42.6804886  25.9868965  71.9016113
  29.3463097  65.5569839  45.6744843  29.3846149  65.2567215  46.5825615
  29.6308842  66.4701385  45.7119522  68.6550903  47.7615700   4.9268785
  68.6094437  48.7175407   4.9432096  69.2972260  47.5408821   5.6015501
  15.1321154  59.5140038  36.9470482  14.5920362  60.0777969  36.3932571
  15.8369398  60.0842094  37.2541656   0.3613760   6.1097245  65.5518494
   0.1290114   5.2828746  65.1292877  -0.1318963   6.7725821  65.0685959
   1.2302390  58.1610756  32.7292709   1.8018134  58.4709511  33.4317780
   1.1497152  57.2198410  32.8836212  44.7556038  26.1345692  83.2211075
  45.5253944  26.3435783  82.6919861  44.7068863  25.1787300  83.2059479
  80.5780869  61.3331070  33.8597183  80.5436935  60.5045967  33.3815804
  80.8385849  61.0868111  34.7472458  37.0060081  24.9053440  71.8396378
  36.8726387  24.0843658  71.3658905  36.4642258  25.5418053  71.3731461
  36.5430717  56.1680717  44.6186409  36.2656898  56.5713463  43.7960472
  35.7588387  56.1793900  45.1673431  67.2586365  42.8631668  31.1742725
  67.5206070  43.6180992  30.6473179  67.2940598  43.1777382  32.0776138
  74.0709839  44.3787384  88.1198654  73.6040192  44.7088127  88.8874741
  74.9226685  44.1023064  88.4581757  10.3368578  56.6933746  79.1192932
  10.0053215  56.8539429  78.2358170   9.9574432  55.8505058  79.3679810
  53.9080887  41.2768135  64.0677414  54.3254547  41.7205544  63.3294144
  53.0226517  41.6393814  64.0956345  85.0453262  53.9996910  54.5201416
  85.8494186  54.5176201  54.5578728  84.9625778  53.7526093  53.5990906
  35.5645943  54.9574280  61.7227478  35.3441849  54.9825401  62.6538887
  34.8092384  55.3522339  61.2870865  81.9724045  60.2236633  59.5200539
  81.1730118  60.4055939  60.0141220  82.6553650  60.7098656  59.9820137
  77.1391296  25.9271412  80.7868347  77.0645370  26.5704670  81.4916763
  76.2751541  25.9219799  80.3748398  45.0661888  56.0985641  46.5083885
  45.5886421  55.3415604  46.7733803  44.4075050  56.1879196  47.1971397
  77.2422562  24.5021400  46.2272072  78.0520554  24.0594616  45.9732666
  77.4960785  25.4177399  46.3433342  85.3874664   1.2843323  44.0471077
  86.1241837   0.6732084  44.0455742  84.9003830   1.0742991  43.2503204
  31.8594971  25.2888336   2.9360671  30.9509640  25.5894566   2.9566758
  31.8979092  24.5970268   3.5964921   7.2577701   6.1055603  14.4611797
   7.7457485   6.8737392  14.7578440   6.7061415   5.8695087  15.2069788
  36.7712364  64.5242233  41.6146240  37.1424942  63.9329643  42.2694626
  37.5159874  64.7736359  41.0674820   4.4637113  56.1511421  45.7398567
   4.4860101  57.0072594  46.1674080   4.0577850  56.3186798  44.8893356
  56.1089935   7.2109976  36.1430397  56.3434639   7.2227702  37.0710030
  56.1707649   8.1259775  35.8687630  11.5102444  33.8120956  25.2142315
  11.1945381  33.4658089  24.3795757  11.6067743  33.0405617  25.7724915
  14.1809082  39.7463722  25.0210114  13.9627285  38.9142456  24.6012554
  13.6223736  39.7765007  25.7977753  20.1395340   1.6193619  18.1674957
  20.0588837   2.3349805  18.7980652  21.0311203   1.2927923  18.2885685
  23.6273155  57.7463951  23.4534035  23.9182606  57.3072128  24.2525921
  24.2392979  57.4488373  22.7802258  78.3733444  63.0268631   9.0676680
  78.5214996  63.9619751   8.9267864  79.0689697  62.7621574   9.6695518
  85.9095078  30.4413643  52.8523102  86.2758865  30.2663383  53.7191238
  85.0135880  30.7307663  53.0249367  54.8727379  55.4099998  23.2202625
  55.6020355  55.5838661  22.6251793  54.1209297  55.8361397  22.8086548
  12.4490547   9.5074329   0.8855178  13.3624411   9.3199406   1.1018574
  11.9851389   8.6926699   1.0783252  36.3151779   2.2390931  56.1805992
  36.7721024   2.9470952  55.7265244  36.9903374   1.8235693  56.7170029
   9.9816494  46.2393417  82.5561371  10.1192923  45.5811958  83.2374115
   9.0303383  46.2959251  82.4664841   0.0879772  12.8244591  76.0289688
   0.9663607  12.4632788  76.1482239  -0.0129748  13.4504652  76.7460175
  80.3249741  12.6529226  60.6706543  80.7887421  11.9467344  60.2207069
  80.7101212  12.6723013  61.5467377  49.4022942  44.7952271  22.0234413
  50.0648727  44.1052551  22.0574570  48.5765610  44.3430901  22.1965675
  82.0679321  13.8063412  29.8452778  81.8105164  14.0208101  30.7419224
  81.6267700  14.4626493  29.3059559  84.4510117  60.0809174  84.8104477
  84.2296143  59.6060295  84.0093918  84.7279968  60.9456215  84.5074768
  85.7636261  59.1859283  68.1592178  86.0612335  58.2957077  67.9716797
  86.5628662  59.7125816  68.1500626   5.4109693  60.0878258  40.3414688
   4.8358245  60.8037643  40.0715179   5.3915615  59.4748917  39.6065102
  77.9273605  60.0103569  34.5135117  78.6645737  60.3431015  34.0016174
  78.2371674  59.1756477  34.8649597  43.5394096  61.9897614  73.9022751
  43.2179489  61.0925255  73.8135910  42.9614983  62.5077133  73.3419342
  51.9074745  69.6609116  47.1690559  51.2616348  70.3668900  47.1424484
  51.8934326  69.3575363  48.0767975  52.6142235  13.1956253  88.2402267
  51.9218903  12.5482826  88.3738480  53.0439034  12.9228964  87.4295273
  30.1116734  58.8935471  70.0027313  30.0403748  58.5672989  70.8997955
  29.7777691  59.7895508  70.0464859  61.3198891  10.5972948  25.0113640
  60.4425659  10.8644876  24.7372398  61.4383698  11.0073061  25.8681526
  56.4969330  51.7101212  88.1729126  55.9596901  51.8179169  87.3880692
  56.2653313  52.4562111  88.7260284  64.3219376  31.8325958  10.3474083
  64.9255371  32.5433998  10.5634060  63.4693069  32.1408043  10.6544237
  82.1878281  70.9660568  80.0213165  82.0659637  71.8835220  80.2655182
  82.4824829  70.9975662  79.1111450  72.2341919  53.9665451  40.1781578
  72.9272614  54.1802597  39.5534897  71.9671707  54.8122787  40.5382576
  27.1446896  64.0545120  12.9640617  27.8545876  63.7450104  13.5266314
  27.3936729  63.7687073  12.0851116  43.8472328   3.7265842  53.4937668
  44.2813072   2.8735442  53.4822159  43.1913681   3.6522141  54.1869774
  49.5454903  63.9833794  18.8903217  49.3471794  64.9128113  18.7760658
  49.7857437  63.9014282  19.8132496  36.7523308  10.9788427  76.2325363
  36.3958931  11.8427982  76.4393311  36.1509972  10.6218386  75.5789413
  10.2223072  56.4021721  42.2890167  10.7550230  56.9156914  41.6817780
  10.3739538  55.4930267  42.0307655  46.3801270  50.3150253  19.0265923
  47.3227921  50.3879967  18.8772964  46.2350540  49.3832359  19.1907597
  30.1419067  48.0642891  45.8319435  29.6706276  47.8166885  45.0364418
  30.6470928  47.2849121  46.0634346  65.1209564  48.3690262   5.6904655
  65.5095291  48.7641029   6.4709492  65.1480789  49.0631104   5.0318756
   7.4599710  58.3712921  24.0248108   7.9528804  58.8647003  23.3692017
   7.7482009  58.7325211  24.8630638   4.3281522  38.2730751  49.8859825
   4.2128224  39.1408386  50.2731667   5.1077352  37.9208679  50.3154373
  80.8674774  54.5982323   3.8934484  80.8557434  55.5201187   4.1507835
  80.4974823  54.1350555   4.6449790   5.8420668   2.6135993   9.9147959
   5.6400347   1.6840076  10.0209770   5.7203922   2.9864061  10.7879744
   5.0534148  63.5003777  67.5187759   5.9130716  63.1176224  67.3435059
   4.9018650  63.3330193  68.4489670  19.3155403  40.4861794  46.6254807
  18.5587387  40.9735870  46.3000374  19.4712238  39.8143272  45.9617004
  45.4200249  27.2181988  74.4494553  46.3738365  27.2982349  74.4577103
  45.1308784  27.8658810  73.8067017  76.8837204   9.7952595  13.7131672
  76.2774506  10.4067125  14.1312475  76.7946167   8.9868479  14.2179079
  25.9518948   4.3708692  64.6066513  25.0796661   4.0825882  64.8756256
  25.8574543   4.5861473  63.6787682  33.2716904  32.0661583   1.5309495
  33.0154877  31.4506016   2.2177424  33.0762329  31.6079807   0.7135728
  66.4432449  12.2649059  39.7079659  65.8462067  13.0083971  39.6243210
  66.2380905  11.8880711  40.5636177  53.9759216  60.5940781  80.0407867
  53.1732712  60.4172821  80.5314178  53.6975403  60.6137352  79.1251755
  57.2210159  62.9523087  79.0133591  57.3645554  62.1024513  79.4297409
  57.3991585  63.5905762  79.7040939  57.6859360  60.5283775  61.0539207
  58.5839729  60.8415947  60.9459381  57.7655067  59.5746689  61.0724373
  18.7094097   7.4110937  26.4338551  18.4347172   6.5272789  26.1896286
  19.6006927   7.4875917  26.0932751  30.4182281  13.3495407  32.5731621
  29.7248726  12.7157631  32.7570572  30.0394211  14.1952639  32.8129349
  80.6691055  20.8032131  70.9316711  81.0476837  21.5697193  71.3622284
  81.0171204  20.8328285  70.0404663  59.8777542  25.3582191  61.0520210
  60.6910667  24.8952045  61.2529526  59.6736526  25.1042595  60.1519775
  45.3673058  38.9435234  56.2735977  45.2538681  39.3384361  57.1381226
  45.9595985  38.2065239  56.4227867  50.5028877  40.6435051  77.5064621
  50.6073914  40.2246552  78.3607941  49.5711670  40.5518494  77.3071518
  15.4982595   1.4736952  62.7079582  15.3131771   2.4121640  62.6725655
  16.3403759   1.3786999  62.2629318  18.7147102  47.4284401   2.3836238
  18.6281319  47.9432945   1.5813379  19.5375919  46.9517593   2.2746782
  83.4327011  19.9660587  13.4797468  83.3981781  19.8696117  12.5280447
  82.6730423  19.4781265  13.7976522  71.2128067  10.0522346  75.4597626
  71.3821869  10.0846424  76.4012985  71.0896835  10.9671917  75.2069168
  26.9371204  69.0609894  36.3584404  26.0220985  69.2232208  36.5878830
  27.2600975  69.9072266  36.0489235  16.4866676   3.8861709  79.6882477
  15.9931002   4.6858263  79.5061111  17.3997898   4.1277156  79.5330200
  49.9794426  50.0371056  31.6347885  49.3526382  50.3135338  32.3033257
  50.6152649  50.7513771  31.5926552   3.4815984  10.1808071  37.5686340
   3.8823593  10.1779156  36.6993713   3.7312374   9.3392200  37.9502678
  72.0015259  70.4097824  82.8897705  71.9256516  71.0540924  83.5935745
  72.9013977  70.5018616  82.5767441  70.5133820   1.0168636  84.0432510
  70.4358521   1.9187566  84.3543930  69.8480835   0.9414661  83.3591919
  44.4484482  38.7377548  81.3084793  44.3340759  38.5394516  82.2378998
  44.8204231  39.6196289  81.2957458  16.5077572  25.6233883  54.5467682
  17.1761379  25.3998642  55.1944847  15.9031363  26.1988316  55.0153084
   3.8635273  43.9077339  10.0855560   3.9159870  44.8554649  10.2092190
   4.0164151  43.5435944  10.9574842  40.0609627  69.9466248  20.2931480
  39.9144745  70.2510071  21.1887627  40.2703781  69.0173645  20.3872375
  59.3675690  21.7464676  11.6656170  59.2965813  22.6938572  11.7824268
  58.5122223  21.4077854  11.9300289  19.4287605   3.6723638  75.4811783
  19.0081539   4.4866056  75.7574539  20.1646137   3.9551423  74.9382324
  51.2435646  25.7823753  26.9658680  51.4115906  26.7111893  27.1249428
  51.5423164  25.6351948  26.0684719  24.0234280  52.0025940  14.0974321
  24.8872242  52.4144821  14.0765591  23.5815697  52.3329964  13.3152380
  61.8427620  31.7960739  70.5904617  62.6758041  31.5380630  70.9850616
  62.0835152  32.4328423  69.9175644  83.0520325  57.5055313  60.9819489
  82.3734665  57.2295952  61.5980988  83.5796127  56.7197495  60.8389816
   9.3591776  21.7855854  80.6065598  10.0676270  22.3765259  80.8617477
   9.8034735  20.9830017  80.3332596  65.9592972  37.3619499  20.7308578
  65.7553711  37.2700119  21.6615543  65.5827484  38.2070808  20.4855061
  11.4447432  39.2542953  13.5374460  12.2050562  38.6754799  13.4815083
  10.7763758  38.7298203  13.9784040  28.7853947  39.8690109  30.8951530
  28.7357521  39.2266769  31.6030884  27.9747105  39.7446594  30.4016342
  81.7108688  16.4412613  11.1414270  80.8433075  16.8232899  11.0086765
  82.1820221  16.6290131  10.3296394  78.5291138  52.0773201  53.9115372
  77.7547226  52.0799217  53.3489151  78.2226791  52.4404526  54.7424774
   5.7526827  26.2791977   6.8053470   6.6628709  26.2650375   6.5093937
   5.2482862  25.9972591   6.0422440  17.7907410  42.8479538  56.7412415
  18.0878963  42.3994751  55.9495392  17.0358505  43.3626900  56.4558983
  52.0065346   5.6880436  17.3390617  51.6730232   5.9963021  18.1816654
  51.8089447   4.7514911  17.3313961  46.2027817  52.6378441  56.1707001
  45.4698029  52.9126282  55.6198158  45.8572884  51.9056511  56.6813431
  20.3384953  65.6970673  45.4431381  20.5545521  65.8575745  44.5245552
  21.1862545  65.5777130  45.8712616  17.7040424  61.1429253  22.4787292
  17.5512466  61.6491699  21.6808548  16.8671284  61.1685104  22.9425735
  65.8173523  13.4403906  25.5925770  66.7668991  13.5322990  25.5141850
  65.6136780  13.7900858  26.4600220  47.3079376  43.7500076  26.1651173
  48.0890770  43.7229233  26.7176743  47.5719185  43.3127251  25.3555927
  43.3894691  31.9016552  22.6446266  43.1822166  32.8202209  22.4728298
  44.1681671  31.9317207  23.2004642  18.6286602  67.0360031  49.0620689
  18.0308342  66.8610229  48.3352814  18.4048634  66.3778305  49.7200623
   5.0210295  67.7038727  70.6942444   4.5963292  66.8527603  70.5871124
   4.4633870  68.1734161  71.3145599  29.8954029  68.0688095  83.3258972
  30.1286125  68.3151169  84.2209854  29.0224228  68.4390640  83.1953278
  16.3651848  65.8618851  15.6078396  15.8921442  65.9550095  14.7809229
  16.8567848  66.6784744  15.6958313  43.2380753   3.6942952  88.1961517
  42.6691284   4.3826385  87.8516006  42.8701172   2.8824482  87.8472366
  73.1565552  69.2663879  25.7111092  73.6584320  68.4548569  25.6351051
  73.5358353  69.8453827  25.0499458  42.1256447  53.2197990  50.2228889
  42.5977135  52.4006882  50.3726807  42.6927299  53.7190361  49.6351776
  66.9838104  20.6613865  12.5049400  67.6078568  20.0791779  12.9383383
  66.5271301  21.1000252  13.2227669  54.1960831   8.6833534  56.3893929
  54.2953606   8.2167206  55.5595551  53.2689514   8.5888891  56.6078644
  73.3524551   9.8248405  45.2641373  73.2463074  10.1289053  44.3627434
  72.8466949   9.0131578  45.3042297  67.9043350  28.7943859  26.6964054
  66.9961090  28.9782295  26.9363194  68.2380905  29.6281967  26.3653507
  25.3529892  29.6411648  84.0120087  24.5812569  29.2605858  84.4313202
  25.2712460  29.3943596  83.0907974  60.7302780  19.4991608  82.4378433
  60.3724213  18.6130066  82.3839798  60.6916771  19.8280563  81.5397568
  44.0103531  59.2214661  46.7829742  43.7859573  60.0934868  47.1077232
  43.7581406  58.6296883  47.4917908  66.4571762  20.4985390  64.9018326
  66.7145309  19.5879192  64.7577209  67.1472397  20.8569965  65.4599991
  22.4044609  10.0500031  65.4887161  22.5104389   9.3857822  66.1697540
  21.4582996  10.1813669  65.4274368  33.0133400  25.2329235  78.0382538
  32.8690681  25.4011230  78.9694519  33.7498932  24.6219807  78.0165253
  16.8725185  31.5301838  10.6318998  16.4674873  30.8484230  11.1679821
  16.9895439  32.2677574  11.2306652  64.1439819  48.3461227  19.0836220
  64.8754501  48.5912247  19.6502934  63.3669624  48.4687424  19.6289978
  69.2579803  51.1180000  79.7568436  68.6130219  51.7700615  79.4828491
  68.7442932  50.4475899  80.2072983  58.1072693  30.4251881  34.4193230
  58.0267181  30.5987740  33.4814491  57.3713913  29.8468552  34.6199341
  33.2176437  46.0559998  30.3909016  33.7373085  45.8491402  29.6141205
  32.3239555  45.8079262  30.1542320  62.5948563  35.7523575  80.0627441
  61.6982384  35.8317909  80.3883209  63.0805321  35.3645210  80.7907104
  15.3959131  40.5199127  28.1434250  15.6845064  41.2569160  28.6817322
  16.1973515  40.1943169  27.7336483  74.8714218  53.9949493  31.3083649
  75.0743256  54.6029816  30.5974789  75.0576172  53.1296539  30.9439106
  80.5862885  47.1309853   0.5919281  80.9090347  46.2765694   0.3054951
  81.3437500  47.5476723   1.0028552  80.0129318  31.4688244  67.0378036
  80.0218353  30.7904110  67.7130127  80.2649841  32.2689209  67.4988327
  36.8795929  46.0719795  83.2344513  37.2883453  46.7984810  83.7049255
  37.4060669  45.3079300  83.4695816  54.6382828  63.2501907  78.2127228
  55.5150337  63.0351715  78.5310135  54.7818489  63.6003952  77.3335342
   9.5988207  14.6013508  64.9459991  10.0817871  15.1554337  65.5591660
   9.8219604  13.7071133  65.2044220  68.7701950   1.0557019  81.7328033
  67.9732971   1.0232078  82.2620621  68.4602509   1.2265713  80.8434372
  51.3508835  22.5892277  57.2636871  51.4831696  21.7943077  57.7802467
  51.4789085  22.3098564  56.3571587  63.4525146   7.9311380  77.6010818
  63.9963722   7.1765561  77.3751297  62.9766121   7.6571865  78.3851089
  38.0884895  10.8000593   6.3350711  37.1619644  10.5779209   6.2432175
  38.5052338  10.4120531   5.5656514  74.1796188  34.4952126   5.3991666
  73.7404709  35.2118683   4.9411407  73.7721939  33.7025261   5.0500517
   0.4794230  25.5590649  75.8495178  -0.4467049  25.3171654  75.8512802
   0.7681410  25.4080029  76.7495422  52.6955376   6.4798288  32.0004234
  52.8466072   7.3955112  32.2348099  51.7860413   6.4556413  31.7029877
   0.4174964  69.1817169   5.0236673   1.1000342  69.8454819   5.1225753
  -0.3869394  69.6228180   5.2966871  62.3888779   1.0786855  60.5477715
  62.6362648   0.1636513  60.4145660  62.4042892   1.4611200  59.6704254
  45.0704918  52.0743675  70.8898926  44.7330627  51.6169319  71.6600418
  46.0211029  52.0619621  71.0013351  16.7094746  65.4497070  68.2740860
  16.4635124  66.1870575  68.8326950  16.1706619  64.7226791  68.5860825
  44.0074921  45.9423103  33.5258751  43.7796669  46.6016846  32.8704681
  43.4233437  45.2073326  33.3392982  37.7372627  66.6715469  30.0086632
  38.2480354  67.4671707  30.1580963  36.9604721  66.9708252  29.5361538
  63.7478561  48.7970238  55.2368011  64.0734024  48.5247841  54.3788185
  63.1658058  49.5334778  55.0494843  77.6210175   7.1654668  15.1751213
  77.5427017   6.4843225  15.8430586  77.2824707   6.7587967  14.3774767
  26.1096954  65.7643204  41.0575867  26.1992111  66.3862610  40.3355026
  26.7282352  65.0642853  40.8488159  84.3848419  11.7612762  14.5606747
  84.6665039  12.5022936  14.0242128  84.1858368  12.1456165  15.4144373
  79.4216232  29.4922981  60.4115143  80.1335831  30.0890160  60.6423340
  78.6628113  29.8291702  60.8879089   6.7933707  66.5065689  44.5522385
   6.8103967  65.5876923  44.2846451   5.8655558  66.7417221  44.5424805
  11.1555481  32.6109505  78.2882462  11.4748211  31.8190212  77.8556366
  11.8940392  33.2187691  78.2505493  37.0150681  49.8404160  73.4386139
  37.9433670  49.6640701  73.2856522  36.5633202  49.3703499  72.7377625
  56.6688690  43.2280731  56.0746689  56.8965034  44.0793724  56.4484444
  55.7548447  43.0932961  56.3249283  43.2241936  51.1967926  57.8530388
  43.6088371  50.3459740  57.6423569  42.6126366  51.3671684  57.1366577
  49.4908905  69.1966171  70.2496643  49.8868561  69.1378174  71.1191406
  49.4123268  68.2875900  69.9603043  48.6989555  41.4426575  68.3803558
  49.4667664  41.9939384  68.5313034  48.3444328  41.7490921  67.5457001
  17.1346035   3.7827275  57.3986778  17.6104622   4.5559435  57.7018738
  17.8196487   3.1610377  57.1528168   3.9864078   0.3635935  48.4128151
   4.7737293   0.7205413  48.8238411   4.1951942  -0.5570701  48.2546387
  10.8102322  47.9945641  78.5807037  10.5892954  47.0803452  78.7585449
   9.9858942  48.4670868  78.6965485  51.5560951  47.2554970  13.0737200
  50.6826553  46.9415703  13.3077717  52.0254288  47.3010216  13.9067192
   3.5025821  34.3148003  75.4170990   4.0684795  34.9564819  74.9878769
   3.1510339  33.7876358  74.6996460  72.4064178  25.1806507  75.0444565
  72.1423340  24.4118443  75.5498581  73.3411560  25.2774258  75.2264786
  25.0864201  58.6549072  77.6242905  24.9802189  59.5328407  77.9906006
  26.0339584  58.5259552  77.5821991  12.2830057  18.2096386   1.3836980
  13.1685181  17.9717846   1.6585160  11.8916407  17.3846626   1.0965052
  28.0494881  38.3900757  87.7779694  28.8048019  37.8021317  87.7704086
  27.9114246  38.5907402  88.7036667  57.7929535  60.3948288  44.6024628
  56.8382835  60.3900528  44.5330505  58.0977211  60.5262146  43.7046394
  74.9778214  67.2216644  76.8869476  75.4782639  67.9560318  77.2426147
  74.6617966  67.5352249  76.0395737  69.3958817  70.0294800  32.1033516
  68.7048645  69.9171066  32.7561111  69.0510712  69.6102600  31.3149395
  36.6929131   3.3107493  21.8725014  37.4202194   2.7852423  21.5391922
  35.9894714   3.1762466  21.2374325  64.2388458  55.8098564  56.6252708
  64.1278992  55.0718880  56.0258293  63.5120049  55.7282257  57.2427444
  66.7416840  27.0157013   4.1175027  66.5881653  27.5608768   4.8891559
  66.8640060  26.1334419   4.4680548  81.4930496  19.0516701  42.8231316
  81.1123047  18.1735020  42.8326645  81.2927094  19.3901234  41.9504662
  76.7840652  60.7693100   9.1592693  75.9827881  61.1857986   9.4766321
  77.4547501  61.4474297   9.2403059  47.8463478  56.5058823  13.3998184
  47.9234238  56.4502945  14.3522902  47.6604576  57.4290123  13.2280378
  86.2929840  20.7454433  10.1031675  86.4131622  21.0820065   9.2151842
  86.9602814  20.0652084  10.1938391  11.5854673  41.8332558  73.8763733
  10.8886604  42.1090546  74.4718781  11.8850937  42.6445770  73.4662323
  67.7084427  26.8160629  63.9718590  66.9421463  26.2808628  63.7655182
  68.3112030  26.6618423  63.2444458  56.7936783  27.4891739  50.9620819
  57.4618568  27.1503773  50.3662720  57.2590256  28.1223392  51.5086975
  22.1394711  10.4773054  74.5271835  22.5257854  11.2478552  74.9434128
  21.2485008  10.4386339  74.8749008  50.9188576  63.5057411   4.3599749
  51.2789764  63.0395164   3.6055324  49.9866180  63.5966034   4.1627188
  74.5539627  37.3482361  35.4755096  74.2726212  36.8656960  36.2528305
  75.2331238  36.7982674  35.0849800  56.7435265  60.0073357  17.1158810
  55.9500694  60.1298180  17.6370907  57.4561462  60.2668724  17.6998730
  83.8718796  21.5721283  86.8981094  84.5284729  21.9825287  86.3353577
  84.3427277  21.3682442  87.7061768  24.0986004  46.7977371  40.2025375
  24.6944923  47.5458336  40.1638603  23.2759323  47.1278954  39.8413658
  45.9252930  65.5892944  46.6579666  46.6829720  65.6264420  46.0742111
  46.0178757  66.3586884  47.2198257  26.2091560  70.9879532  78.4175034
  26.5873508  70.1604156  78.1202087  26.1238613  71.5121078  77.6211243
  51.2519722  67.3990479   5.2087741  50.8565445  68.0401382   5.7994351
  51.1956902  67.8041000   4.3433261  25.8635674  56.6327591  69.2872772
  25.5318203  57.3896027  68.8041992  25.3538342  55.8940430  68.9545593
  55.9577141  60.6944389  70.1403198  56.7653885  60.7212639  70.6533279
  55.9399567  61.5321655  69.6775818  81.7467957  48.4644508  62.5384026
  81.7245331  49.0686569  61.7963333  81.7532730  47.5946198  62.1389236
   3.1347308  68.4610825  52.8656998   3.5636978  69.0215607  52.2191048
   2.2651396  68.8454742  52.9765511  54.8210030  12.8767776  79.0354843
  54.7555313  13.7092018  79.5034790  55.7300949  12.8400583  78.7381058
  54.3035774  20.3679047  19.1779194  53.7523155  20.4632359  19.9546146
  55.1971970  20.4748154  19.5038738   8.6569805  41.9759254   6.1035233
   8.3421688  41.7385597   6.9757519   9.6107864  41.9381676   6.1746578
  16.9105473  28.9959946  20.1330929  16.6782207  29.7107449  19.5403118
  16.1345425  28.8772106  20.6807594  27.3383579  12.6652737  11.4440546
  27.8115807  12.5413504  10.6212931  26.5459709  13.1411552  11.1952734
  78.6583710  62.7605896   2.6077466  78.3063354  61.8911667   2.4169374
  79.5691833  62.6011810   2.8552210  48.3135796  18.5899448  65.1068954
  48.8473434  17.8180199  64.9185944  47.9889069  18.8711166  64.2514648
  35.9238663  41.5338211  67.0253296  36.3483467  40.8372650  67.5261841
  36.6352386  41.9410019  66.5309753  67.8039474  52.5769768  41.2715912
  68.0537643  51.6560593  41.3472900  67.4409103  52.6549225  40.3893433
  43.9004860  47.6897087  80.6934128  43.0057106  48.0211563  80.7692490
  44.4365768  48.3421135  81.1442032  16.2663403  38.5527802   8.3416700
  16.4727306  39.0395279   9.1396122  16.8801003  38.8906822   7.6894813
  17.4799175  62.9005966  84.9574127  18.4086609  62.7925186  84.7525101
  17.4295292  62.7890015  85.9067459  21.9168491  60.5035858  87.3695908
  22.6594524  59.9019661  87.4227524  21.5986767  60.5714760  88.2698059
   8.9728222   8.3726864  12.1374044   8.2795267   7.7210765  12.2421856
   9.6097307   8.1563816  12.8184261  27.7051544  39.1129074   6.7661414
  27.7864857  38.6581268   7.6044674  28.1439457  38.5386124   6.1385469
  55.2498055   4.7411356  89.1585083  55.2192802   3.9164910  88.6734695
  56.0131836   4.6550217  89.7295380   3.2569079  70.7602310  45.5266113
   3.2575397  71.5682983  46.0396957   4.1830564  70.5728836  45.3736992
  16.4096947  71.2603836  48.9984665  15.5559292  70.8705826  49.1865425
  16.3194904  71.6203995  48.1161499   2.8754842   8.0945625  45.6380005
   3.4789195   8.1107073  44.8951454   2.5381415   7.1989045  45.6531258
  21.1818295  21.0597363   3.3039145  20.8713684  21.7212105   3.9222183
  21.2207737  21.5167465   2.4637616  33.5596046  64.4416809  54.5132484
  32.9032288  65.1383591  54.5189705  34.1976166  64.7082672  55.1751442
   8.1422644  49.1278534  79.2579651   7.9321637  49.8416862  79.8600693
   7.7683449  49.4027634  78.4208069  63.8805237  51.8686142  69.1420059
  64.3576279  51.2397919  68.6005402  62.9763718  51.5544891  69.1335373
  31.3971233  29.1938820  14.3121777  30.7793484  29.9206829  14.3918419
  31.5867729  28.9406242  15.2155743  44.6438522  60.3284798  62.7036629
  45.4286499  60.5785217  62.2160110  44.8026657  59.4212074  62.9641800
  79.1503296  62.6731720  25.8790455  79.2945251  62.6991119  24.9331245
  78.5802765  61.9161186  26.0137501  65.8590393  41.9643517  73.9996567
  65.9813004  41.8104782  73.0628510  65.7482224  41.0901756  74.3735046
  30.5589695  66.6069183  35.5455742  29.6865883  66.9892349  35.6405449
  31.1545715  67.2895660  35.8545723  57.5680008  66.8045502  76.0134811
  57.1235199  66.2651215  75.3595047  58.1254616  66.1906204  76.4915619
  81.1582642  52.5985336  22.4519043  81.5795059  52.7768021  23.2927456
  80.2547684  52.3782234  22.6785812  28.9011364  52.9871330  85.5868607
  28.3976707  53.1573753  84.7907639  28.8780537  53.8151627  86.0665131
  67.7842255  50.9377518  27.0327587  68.3777161  51.6028862  26.6840553
  67.0741348  51.4377136  27.4353046   6.0745430  60.0863762  12.7031279
   6.8539138  60.5178909  13.0532799   6.3690429  59.2029648  12.4815674
   4.9485350  51.9290314  72.9982910   5.5101209  51.3584404  72.4736252
   4.5004053  52.4799271  72.3564835  84.2225647  60.7502022  49.9397049
  83.4738464  61.0732651  49.4384193  84.1555557  59.7970467  49.8828583
   0.8854730  69.6960983  53.5291519   0.7674640  70.6333008  53.3743858
   0.3134992  69.5020828  54.2717400  10.2589617  62.2516174  81.8193054
  10.7785769  61.6871147  81.2469711   9.4007607  61.8293762  81.8571854
  13.8459425  27.7317600  83.2668457  13.1276407  28.0255718  83.8271561
  14.4266071  27.2491150  83.8551559  63.6490059  25.8517456  54.7565727
  64.1253662  25.1191273  54.3659554  62.9155045  25.4428329  55.2159195
  81.7106323  13.9715757   6.2297306  81.1666031  13.2813702   6.6090426
  81.1230774  14.7230024   6.1499262  75.3053284  13.3020811  68.4533539
  74.3891754  13.2547131  68.1801376  75.2782898  13.7306414  69.3088303
  59.1096115   1.7161187  47.7502823  59.4761200   1.0450150  48.3260651
  59.7987137   1.8821712  47.1070099  77.8961945  42.2483902  21.9174690
  78.4138641  42.6652451  21.2286453  77.7427673  41.3595428  21.5970917
  51.3351479  22.5325718  61.1728363  51.4126053  21.6353741  61.4972878
  50.5646553  22.5162792  60.6051178  10.3482513  20.0148067   2.1984601
  11.1864891  19.9548798   1.7402056  10.4009809  19.3473148   2.8824954
  72.4084854  28.6119690  17.8282223  72.3035812  28.6586132  16.8779316
  73.0430527  29.2986813  18.0331287  43.1489716  64.9174500   3.5789666
  42.8471985  64.0532150   3.2992115  42.3582840  65.3580399   3.8902924
  48.5589485  36.0376511  53.4279671  48.3569908  36.1482048  52.4988708
  49.0214195  36.8401031  53.6696815  21.2497807  13.0817938  10.4327564
  21.8223286  13.7847872  10.7397118  20.5368595  13.5334940   9.9811573
   3.4282758  53.6737404  63.5127029   3.3834534  53.9734764  62.6047440
   2.9516399  52.8436546  63.5147057  63.3586960  16.1747341  63.0810928
  63.8388214  16.1744976  63.9091721  63.5021667  15.2996130  62.7207985
  16.5057240  51.4355812  16.1549892  17.2127094  50.7914238  16.1932278
  16.5578690  51.7961731  15.2698421  66.7712326  50.4904137  60.3468399
  65.9974289  50.9960518  60.0982590  66.5222321  49.5793800  60.1911163
  69.8021851  61.3745613   5.4512773  70.3450317  61.4836159   4.6704721
  68.9134369  61.2681236   5.1121340  56.5584373  69.3227463  26.0730782
  56.8674698  68.6854324  25.4292183  56.1755829  70.0262985  25.5489864
  15.9143610  25.6807423  75.9871140  16.7439671  25.3611279  75.6323853
  16.0839634  26.5974731  76.2040787  64.8084030  69.3406601   6.0459991
  64.1106644  69.4995651   6.6817198  65.5398941  69.0139999   6.5698733
  35.6507645  62.2560844  45.8207512  35.3756790  62.5440254  46.6911812
  36.1375351  62.9996490  45.4652252  12.0284252  42.5393829  38.0796585
  11.9860973  43.4365044  38.4107323  11.4775629  42.5467148  37.2968903
  69.7296524  56.7553329  60.8939323  69.3169403  56.8407059  60.0345078
  69.6322403  57.6197472  61.2933426  11.1914053  57.8127861  24.2532997
  11.1909227  58.7698517  24.2694454  10.5757608  57.5613174  24.9417591
  19.2642212  43.4498177  19.5792503  19.4053993  44.2181549  19.0261135
  20.1342068  43.2327728  19.9142857   2.9037840   3.5762017  35.6286125
   3.3558154   3.9337015  34.8643494   3.4915133   2.8963652  35.9581985
  21.7396870  47.0356865  81.7873383  22.1880684  47.3712425  81.0110703
  21.0815544  46.4325943  81.4418335  26.1199131  56.3113136  86.6803513
  26.3473778  56.4442291  85.7601166  26.5920506  57.0016632  87.1458969
  14.2273550  61.3257294  58.3288498  13.8691349  62.1815681  58.5643311
  14.5953264  61.4524841  57.4543457  44.8796768  32.1612167  54.4127121
  44.0411568  31.7026596  54.4660378  45.1374893  32.0829239  53.4942169
  19.4626770  50.7734299  87.6202774  18.6407299  51.0428009  87.2103119
  20.1374912  51.0170746  86.9866409  78.7483139  36.5303764  27.3619785
  79.3620148  35.8243408  27.5647602  79.2968979  37.2301178  27.0074997
  24.2569389   0.4473494  71.6538620  24.5707932   1.2839496  71.3106079
  23.4456043   0.6658191  72.1123810   9.8119278  32.9678879  27.9801064
   9.6139526  32.6819725  27.0883160  10.5003214  32.3719559  28.2754230
  66.1313019   3.4059460  76.3986282  66.7586060   4.0289164  76.0317154
  65.4373550   3.3498118  75.7417221  62.5134087  16.9258404  84.4688034
  62.3441696  16.2894764  83.7740860  61.6447525  17.1613369  84.7947006
  49.1136398  33.5212135  26.8206844  48.9588127  32.7244759  26.3132706
  49.9873238  33.8082809  26.5551624  32.1132126  63.9318771  65.2081604
  31.8815937  64.6507568  65.7962036  31.8862286  64.2535324  64.3356628
  68.9894104  59.3442307  56.5250092  68.8923035  58.9222755  55.6713371
  68.1745300  59.8318214  56.6452522  62.7216110  29.7023277  16.2712688
  63.2194328  29.2812195  16.9720364  63.0897636  29.3405304  15.4651680
  58.8969994  62.7900009  56.5148430  58.0114975  62.5481224  56.7861519
  59.1970100  62.0490074  55.9883919   5.5321054   0.6623108  59.4638672
   6.3266311   0.9031403  58.9874611   4.9819174   1.4445192  59.4229355
  26.1571350  15.6345263   8.0649643  26.4523544  15.7297344   7.1594186
  26.9628983  15.5198050   8.5687666   8.1757669  23.8915997  64.8442230
   8.5060911  24.4986515  64.1819534   8.1881733  24.3951683  65.6581650
  28.0433674  30.4394360  62.2365608  28.6337357  30.1300411  62.9235649
  28.4753704  31.2163029  61.8814812  19.1644115  11.4000998  84.7386322
  18.2413292  11.1474829  84.7569656  19.1933384  12.1597319  84.1569519
  42.5380630  69.2740479  64.7720108  42.7719154  68.4144592  65.1222229
  41.6170464  69.3860931  65.0073929  24.2681103   5.8908849  14.6600132
  23.7748489   5.0785275  14.7740316  24.4827709   6.1677866  15.5507870
  67.9854507  21.5868645  43.0880966  67.9507828  20.8844166  42.4387894
  68.8417816  21.4866276  43.5038948  42.1336174  54.5550385  59.3018456
  41.7071953  54.0125771  58.6384239  41.7307549  54.2850723  60.1271057
   9.0838833  12.4822807  19.7622738   8.2412338  12.3993187  20.2086945
   9.5695581  13.1210146  20.2841644  48.9440575  52.1331635  43.8806953
  49.0922165  51.2198792  44.1260338  49.8200340  52.4819641  43.7156715
   6.8493423  24.4157295  15.9730434   6.5665517  25.1789780  16.4767418
   6.2602854  24.3948269  15.2188501  51.8341942  31.2503910  46.0482559
  51.0466919  30.8460693  46.4123917  51.8289795  30.9964237  45.1253777
  30.0516396  69.5428085   6.5170774  29.6535435  68.8077469   6.9833860
  30.3177242  70.1491089   7.2083259  11.1501331  21.0873775   4.9840879
  10.2506237  21.3799324   4.8373694  11.6910629  21.7568665   4.5652685
  63.0398674  59.6310921  59.9643593  63.4762459  59.7889442  60.8015480
  63.7552910  59.4920731  59.3438187  62.2276344   0.4139904  15.7684212
  61.5804482  -0.1805151  16.1478252  63.0559349  -0.0615243  15.8319569
  82.6911850   9.6137724  75.1009827  83.6430130   9.7098122  75.1328964
  82.3614731  10.3024502  75.6782608   3.9402828  20.7842102   8.1664963
   4.8133292  21.1041622   8.3937683   3.4251668  21.5775185   8.0197048
  84.2157364  16.8854599  81.0805664  84.3042068  16.2411652  81.7829132
  85.1082916  17.0138130  80.7594604  21.6415062  67.9488449  85.2150116
  21.1338215  67.3022079  85.7052612  22.5305653  67.8670349  85.5601425
  36.1819992  49.7493134  12.5002508  36.5593185  50.5426331  12.1201124
  35.3291855  49.6619072  12.0744524  56.1550636  28.4596729  85.5321655
  56.0330734  28.0543728  86.3907013  56.4635429  27.7470188  84.9725342
  56.7344322  14.0461254  81.8368149  57.2348404  14.5668592  82.4650345
  56.5209160  14.6594152  81.1335983  53.7578773  37.1503334  29.8306999
  53.3301315  37.8015060  30.3867950  53.2847481  36.3370857  30.0067959
  54.8343773  33.1809349  22.8630371  54.7556763  34.1263199  22.9906635
  54.3184166  33.0015907  22.0770016  86.8598709   1.8200475  30.7758789
  86.1955490   1.9227087  30.0944347  86.8031387   2.6260693  31.2890472
  69.9895782  13.8305550  77.6146927  70.4334869  14.5403290  77.1505814
  70.6993484  13.2814560  77.9477921  75.0905075  10.8583584  36.7239265
  75.9018707  10.8748178  36.2163315  74.5198898  11.4884501  36.2839165
  51.9356003  68.6502609  10.7931700  52.6926842  68.3721848  10.2776833
  51.3115234  68.9770050  10.1450920  71.3855438   7.0989208  42.5016060
  71.0608521   7.9859724  42.3468666  71.6909332   7.1104898  43.4087105
  59.1359138  68.8205719  76.8253403  58.4323387  68.1793213  76.7252808
  58.8851547  69.3333282  77.5937347  73.4722824  49.9712868  24.4032612
  73.1333466  50.8261986  24.1377888  74.1945190  50.1740761  24.9978104
  56.9980087   7.7158070  79.1342773  56.3890533   6.9774384  79.1195068
  57.8654060   7.3111334  79.1244202  36.4189415   6.2538743   2.4084723
  36.5898628   6.1815882   1.4694340  36.3370438   7.1945820   2.5652955
  80.3416672   7.2487369  30.8597088  80.4245911   7.7770658  31.6535759
  79.6346054   6.6335335  31.0542011   7.3384891  55.8366890  57.2125244
   6.8731575  56.6275215  57.4850731   6.8492136  55.5206795  56.4529305
  11.9643593  30.9135647  84.7854156  12.1813364  31.2129173  83.9025040
  12.8121538  30.7409096  85.1948929  74.0132065  52.0150185  10.5335903
  73.8005524  52.9480591  10.5125017  73.8429108  51.7103462   9.6422958
  18.1419182  51.5164223  51.6152649  17.8759041  52.4280510  51.4952812
  19.0631943  51.4996452  51.3560371  40.1835861  60.8648300  14.8218374
  40.1292267  60.7390709  15.7691822  40.1639519  61.8146439  14.7047949
  47.9605217  27.9184456  73.8420639  47.7966881  27.7075233  72.9228821
  48.9128380  27.9917717  73.9049149  21.6289444  25.2354965  71.5361023
  20.8001003  25.1661453  71.0623550  22.1338005  25.8815594  71.0421829
  83.6918411  63.5109711  35.7421112  84.5130692  63.9153633  36.0219040
  83.1572189  63.4807930  36.5355225  69.0209732   6.1509819  36.8771439
  69.1035233   6.3059387  37.8181038  68.7552490   6.9972887  36.5174408
  41.0260239  26.3770847  82.9138184  40.9977798  25.7625389  83.6471405
  41.8196640  26.8911381  83.0625381  61.6516571  12.2153282  47.7507439
  61.4625702  11.4554749  48.3012886  62.0780411  12.8377533  48.3398247
  77.8385849  33.2068939  57.6717339  78.4637985  33.4761505  56.9988022
  78.3167496  33.3034210  58.4953079   8.9730110  27.7413769   4.5342035
   8.8284922  27.6684971   5.4776201   8.2210655  28.2399864   4.2145214
  23.9663715   3.6280046   0.0028991  24.0484085   2.7618089  -0.3961076
  23.1627235   3.5781434   0.5204858   8.2382631  20.2593288  11.3394670
   8.0095320  19.3337269  11.2547626   8.7971621  20.2978783  12.1155968
   7.2834373   5.3694944  67.8723907   7.8326454   6.1354518  68.0394592
   7.8881316   4.7113419  67.5297394  42.0649834  71.0224152  35.7024994
  42.8072624  70.7035370  36.2158890  41.4575272  70.2831726  35.6750603
  55.2520180  20.4782696  72.1397629  54.4881401  19.9055386  72.2083206
  55.0313187  21.0887165  71.4362869  47.2049675  66.5815353  39.8222694
  47.2994576  67.0608292  38.9991150  46.8743744  65.7217102  39.5621910
   5.5064278  46.1071091  32.1256256   5.7991290  46.8424950  32.6639214
   6.1840615  45.4410133  32.2412338  65.6309052  63.9272079  50.5302277
  65.5358200  64.4244995  51.3425674  64.7587433  63.9431992  50.1361313
  11.2978325   5.0101705  64.9860001  11.1378479   4.3344598  65.6448212
  10.7370319   5.7395964  65.2499542   8.7759008   4.8192925  18.7594357
   7.9739513   4.4817929  19.1584377   9.4384632   4.1571531  18.9564495
  17.8780880  69.9312820  55.6350670  17.1105633  70.4096680  55.3215675
  17.9610348  69.1911087  55.0338211  36.7377853  24.1155586   1.0118423
  36.4590912  23.2350025   1.2632055  37.4583282  23.9726791   0.3981365
   7.9962173   7.3143053   4.8859830   7.5493031   6.8507156   5.5942092
   7.6875596   8.2174540   4.9586806  80.0438995   2.3256013  26.6649609
  79.1176910   2.3756926  26.4286175  80.3437042   1.4997594  26.2850494
  79.6389236  71.2717667  78.2248383  80.5035324  71.0696335  77.8673096
  79.4552765  70.5522003  78.8287735  75.0036240  59.2857933   7.6059370
  74.5675735  60.0721703   7.2777524  75.7908707  59.6125565   8.0414829
  12.7194881  57.2407379  40.8881607  12.5520267  57.9611206  40.2805099
  13.4819918  57.5249138  41.3922081  81.9559479  58.5948524  82.2307510
  81.7324829  58.6045837  83.1614532  82.9076767  58.4940300  82.2139893
  35.2292328  51.9932632  39.3404999  35.9438324  52.4886971  39.7406578
  35.1857071  51.1830826  39.8483810  56.2157974  54.9400139   3.2569375
  57.0903854  54.8365211   3.6319218  55.6384468  54.4777145   3.8645356
  45.7100983  38.1009521  -0.0356552  46.1663094  37.2828484   0.1613370
  46.1301918  38.7510490   0.5274836  82.7236938   6.8021111  33.3246994
  83.3648529   7.3101163  33.8217735  81.9489441   7.3631334  33.2894478
   1.3453516   8.8422966   6.2515488   2.2657232   9.0858545   6.3506808
   0.8961901   9.6693544   6.0770164  79.8362656  25.6206131  42.7290115
  80.2812424  26.2385311  43.3090134  80.3733902  24.8291302  42.7648773
  38.3886299  56.1669540  40.4230194  38.7264061  56.0117874  41.3050995
  38.5993233  57.0832825  40.2436180   5.8513050   8.8032551  64.7634506
   5.5358300   9.5127707  65.3231735   5.6475973   8.0050354  65.2508698
  36.7953720   5.9012632  19.2778072  36.1640587   5.3637195  18.7995605
  36.5940971   6.7990451  19.0137844  50.6472435  15.1961803  12.2865982
  49.9583015  14.5586910  12.4742012  50.3503151  16.0014343  12.7104282
  84.6625748  19.3480320  43.7629547  84.9355164  20.2312527  43.5146523
  83.7711639  19.4570637  44.0942154  74.0860062  46.0661964  79.1350479
  74.6113358  45.2724037  79.2358093  74.4350281  46.6693001  79.7913132
  79.7929382  37.2877922  10.0565720  79.1655502  37.4472771   9.3514614
  80.2038345  36.4541588   9.8275528  75.5587921  53.9452667  52.8002090
  76.3452835  54.4223595  53.0648727  75.6174469  53.1103745  53.2646942
  75.2880783  48.1633873  11.3265543  74.4820633  47.9133263  10.8748465
  75.7798691  48.6668968  10.6778212   1.5464755  51.4028397  44.6553345
   1.9289734  52.2800026  44.6326370   0.6453567  51.5267067  44.3572159
  68.2537155  65.6943588  11.4553967  68.0094604  66.2505035  12.1951799
  67.5349884  65.7963867  10.8314934  76.9639893  39.2111397  69.6966629
  76.4069672  39.1005630  68.9261246  76.3716278  39.0935173  70.4393005
  19.9764252  40.5191536  55.6780510  20.8603630  40.3533020  56.0057373
  20.1071358  41.0619469  54.9005432  50.4681549   1.5460005  29.4464779
  50.8148842   1.8612130  28.6118202  51.2162437   1.1298815  29.8747730
   5.5303121  71.2307663  61.9941254   5.5747313  71.5958481  61.1103973
   4.6428051  70.8790131  62.0636215  47.1779022   3.4468288  64.9154358
  47.2719994   2.4978113  64.8333206  47.9584732   3.7243094  65.3949585
  69.0844803  23.9552631  78.7653122  68.1332397  23.9716015  78.8707199
  69.2197189  23.8998032  77.8193359  12.8504295  65.2985077   8.3037119
  13.2142830  64.4831390   7.9587269  12.3770895  65.6810532   7.5649004
  78.2859497  33.1824493  46.1652031  78.7456360  33.6147003  46.8849831
  77.4491348  33.6431847  46.1044312   3.3863766  27.2975540  18.9607391
   3.7119367  27.8268223  19.6888294   2.5766885  26.9081917  19.2909431
  72.4676437  40.7097969  18.4886799  71.7959976  40.6494522  19.1680069
  71.9816742  40.6549187  17.6658478  52.6371574  34.6078300  30.4120007
  53.4286423  34.7447052  30.9326248  52.8074951  33.8018227  29.9245872
  79.2187653  60.8818626  85.6509094  78.6854095  61.6723022  85.5674973
  79.0719528  60.5876160  86.5498581  37.7507553  56.0471954  48.6329842
  38.3356934  55.5179176  49.1751480  37.2221375  56.5394859  49.2610321
  11.3188744   6.6388087  67.9944534  11.3435249   5.7044249  67.7881775
  11.8721685   6.7274437  68.7704926  20.7209110  59.6892281   7.7065520
  21.6068211  59.6288223   8.0639668  20.1617584  59.8176575   8.4727669
  64.1717529  39.7110023  29.0327778  64.4740982  39.8950996  29.9221191
  63.2297363  39.8785248  29.0605659  61.2565918  10.0385246  79.6215973
  60.3036079  10.1064901  79.5629730  61.4140968   9.1505699  79.9424744
  60.7785645  14.4881516  18.9335938  59.8328247  14.4248466  18.8001747
  61.1021118  14.9302883  18.1486950  81.5396347   5.7176785  78.1681290
  82.2721252   5.5367489  77.5791016  81.5889130   6.6599417  78.3292007
  28.5018482  44.7761421  14.0329094  28.5573158  44.1694489  14.7712059
  27.5711098  44.9900513  13.9680901  59.3820000  29.2623348  74.6470108
  59.7885475  28.7050877  75.3106613  59.7929001  28.9945641  73.8250046
  76.2490005  35.5106316  46.8904190  76.8868256  36.1864853  46.6610069
  75.9097595  35.7811813  47.7436180  54.9280891  56.6849670  56.1022949
  54.5173035  55.9829674  56.6069565  54.4996338  56.6475105  55.2471581
  71.1171112  18.4960117   7.1736403  71.4164734  18.1117725   6.3496408
  70.5673676  17.8188438   7.5679154  56.4968300  28.5913258   3.2813191
  55.6909485  28.4625778   2.7811081  57.1837883  28.6513500   2.6174526
  72.5337677  41.7862778  40.4762154  72.8372574  42.0740051  41.3372269
  73.2297440  42.0528259  39.8755531  26.4941273  43.6321907  43.1368179
  27.4086227  43.6507912  43.4189262  26.4544888  42.9189644  42.4996643
  51.4528999  64.8877106  42.2900009  52.0554390  64.2069702  42.5896072
  51.6301041  65.6335907  42.8631477  65.3389435  36.1840858  35.7740326
  64.4428940  36.3786240  36.0487633  65.8890686  36.6323967  36.4163818
  21.4909859  47.8104134  20.7397556  21.8621368  48.1291771  21.5624733
  22.2371407  47.4407425  20.2677116  22.1171341  66.1018982  55.1434212
  21.3332367  65.6534119  55.4605827  22.6787643  65.3995590  54.8155251
  45.1546631  54.0156708  21.5193253  45.9357948  54.4784737  21.2162113
  45.2704201  53.9455414  22.4669075  80.4157562  26.3218822  57.7264900
  81.0439453  26.4269352  58.4410324  80.9524384  26.0942898  56.9672775
  33.8906403  17.9889317  10.1293621  34.0614853  17.7585373  11.0425777
  34.0213928  17.1721020   9.6477766   8.1160908  67.7513275  34.4140778
   7.7732244  68.1593475  35.2091827   8.3515263  68.4875412  33.8494644
  46.9640694  24.1094494  84.5946655  47.6023483  23.5673637  84.1310196
  47.2796936  24.1313152  85.4980698  16.7386360  18.5578098  83.9314117
  16.2327251  18.3513374  83.1455002  16.1058064  18.9637375  84.5238419
  51.6456261   9.4620848  23.1451817  52.2971916  10.0177593  22.7174892
  51.7751808   8.5975275  22.7553253  37.7674255   8.0854311  15.7945681
  38.6041489   7.8414650  16.1903038  37.2024345   8.2941637  16.5385075
  32.9648323  61.6103745  68.0036316  33.5410385  61.0684814  67.4645920
  32.8082924  61.0858765  68.7888870  40.4183540  12.9591532  10.7584944
  40.5115318  13.8108435  10.3316765  41.2144814  12.4838009  10.5208979
  80.2546921  26.3811436  14.1729183  79.4289322  26.6575851  14.5703325
  80.3098907  26.8844757  13.3606119  58.7333527  57.0140114  76.5333328
  59.4823723  56.4785500  76.7950363  59.0890465  57.6237717  75.8868790
  31.0398979  70.7969208  46.0778809  31.6018982  71.2222519  46.7255554
  31.4752312  70.9575500  45.2406731  27.8828297  54.3648758  41.4029884
  28.1247768  53.4391136  41.3773308  27.9260197  54.5981064  42.3303375
  66.9001389  67.4200516  13.2355223  66.6666107  68.3479767  13.2611866
  66.5631790  67.0654297  14.0582800  34.3121605  47.2770233   7.8333602
  33.5977211  47.8929062   7.9961429  33.8801308  46.4277725   7.7419591
  65.9161377  33.8411636  84.5422592  66.6259766  34.1507034  85.1048889
  66.3602524  33.4341850  83.7983780  70.2405777  30.5469131  49.7027626
  69.5226440  30.2926979  49.1229515  70.8457108  29.8058281  49.6738052
  28.5852776  33.7668877  61.7594414  28.7370300  34.7051353  61.6458702
  28.4590664  33.4353409  60.8704109  42.5432892  32.9546432  27.5904598
  41.9641685  33.5518875  28.0639019  43.1540871  33.5290604  27.1287231
  78.3127441  30.4182568  72.0777512  77.4592590  29.9892197  72.1387939
  78.6739960  30.3598194  72.9622421  32.9123154   6.2831922  61.7641830
  32.8639488   6.3923407  62.7139091  33.0534286   5.3449240  61.6378059
  40.6129608  23.4556980  70.0227356  39.8231316  23.0650845  69.6488037
  40.8005829  24.2047367  69.4570694  41.0202484  36.9166183  27.1821880
  40.7998161  37.5523643  26.5014019  41.1039047  37.4391365  27.9798126
  13.5884800  64.8063202  22.5519142  12.9677114  64.7172089  23.2750607
  13.0926924  65.2503967  21.8640041  75.8896561  18.7259102  29.7220554
  75.1374969  18.3179111  30.1510372  76.6480026  18.2596302  30.0738010
  29.6235161   7.9176884  20.3472996  30.4420795   8.1242838  20.7984123
  29.1940460   7.2755260  20.9124680  68.5430222  35.3794708  70.6758728
  68.7090378  35.9593849  69.9326553  69.4027176  35.2521553  71.0770416
  79.9404449  67.3776474  67.8294067  80.2258606  66.5265503  67.4971161
  80.7534943  67.8537674  67.9982147  22.6204243  41.1744614  68.0968781
  21.8684959  40.9960709  68.6616898  22.3482647  40.8680191  67.2318649
  51.6918335  62.3956261  36.0613518  51.0747108  63.1260033  36.1054153
  51.1447029  61.6300125  35.8860931  49.5687866  48.0839424  65.6425018
  50.3097916  48.6150360  65.3508148  49.1265335  48.6274643  66.2946014
  62.5152588  41.0645027  54.4994850  62.4962883  40.1076431  54.4824333
  61.5978508  41.3238182  54.4137306  55.9208946  30.7844601  28.6770840
  56.6620636  31.3427143  28.9121418  56.1734238  30.3900089  27.8422966
  75.4428635   6.0928116  57.3356171  75.7577286   5.5321765  56.6265488
  76.2059402   6.6136298  57.5859985   2.1238043  67.2026672  34.1498184
   1.1865805  67.1085434  34.3200645   2.5417571  66.9824982  34.9823265
  65.7750931   6.0852861   1.5955979  66.6239929   5.6623116   1.7248310
  65.9577789   7.0207791   1.6834024  54.3532257  35.3673248  57.8652344
  53.5499153  35.3740654  57.3447723  54.6640129  34.4634171  57.8143387
  64.8080673  46.3416862  75.5405121  65.5101395  45.9952660  76.0912628
  64.7525558  47.2674675  75.7773209  45.9063072  63.9892921  42.1979179
  46.7637672  63.7890625  41.8225479  46.0075798  63.8140869  43.1334801
  55.7406311  23.8678589  51.7299957  55.5123291  24.7552910  52.0067139
  55.8162727  23.9259624  50.7775612  31.8512344   4.9353681  68.0842743
  31.6757984   4.7349977  69.0036774  31.2594738   5.6594110  67.8797913
  41.0584068  30.1301937  16.7691441  42.0110893  30.0379066  16.7798347
  40.8750229  30.7978783  17.4300518   4.3537822  69.6700211  26.7696495
   4.9319024  70.4163666  26.6115952   3.9299366  69.8680038  27.6047478
  14.9740238  45.6467514  78.0293655  14.4240360  45.7520561  77.2530518
  14.7450266  46.3897476  78.5877075  39.6418762  58.4585304   1.5672706
  39.4696922  58.1457024   0.6791696  38.9365616  58.0831528   2.0943878
  47.9766846  16.6145916  67.7609482  48.8571548  16.8392525  67.4600601
  48.1028557  15.8473825  68.3192520  25.3592587  26.9612598  44.4348221
  26.0652733  26.6989574  43.8440819  25.7843895  27.5259819  45.0802536
   0.2900266  13.0524082  38.2808571   0.4223832  12.4441738  39.0080185
   0.0817573  13.8867073  38.7013321  60.9902687  64.1340790  41.1511230
  61.4464569  63.4870300  41.6891251  61.6080475  64.8613510  41.0758400
  73.0241776  16.7484665  71.6069794  73.6658630  16.9794655  72.2786331
  73.4676056  16.0942268  71.0670090  54.5357170  55.6863022  77.4253693
  55.0102882  54.8754425  77.6084518  54.0114479  55.4870605  76.6496887
  82.3994217   0.5224298   6.2848263  83.2368851   0.3199213   5.8678484
  81.8916702   0.9607795   5.6019840  60.2872086  54.6120224  19.6569939
  60.7201614  55.0690727  18.9359608  61.0047379  54.3049278  20.2111397
  33.3713341  30.5477505  20.1839790  32.7151260  30.7739429  19.5248432
  32.8793945  30.4948025  21.0033836  60.5659370  53.0499229  33.7874336
  60.4420815  52.5377274  32.9883423  61.5123482  53.1820602  33.8429451
  48.1436577  29.2369919   1.2105561  47.2300186  29.1528835   1.4833623
  48.2275925  28.6398525   0.4671778  17.3142471  18.3883247  14.2725306
  16.7871838  17.6582832  13.9477634  18.2174091  18.1353397  14.0814028
  21.5485554  65.0951157  12.4211273  22.3107948  65.4112320  12.9061966
  21.7138939  64.1604004  12.2978277  26.1291351  38.2081375  29.4563560
  26.8983459  37.6388397  29.4351940  25.4686184  37.7372780  28.9481831
  54.0485954  28.5246162   8.7954111  54.5236511  29.2555027   9.1908360
  53.9763451  27.8780460   9.4975204  65.5046387  15.0321770  52.7897911
  64.7100296  14.8381710  53.2869644  66.0891571  15.4465027  53.4245415
  43.0023651  18.0850468  87.6849365  42.9724503  17.4648972  88.4134674
  42.1345825  18.0269623  87.2851715  27.1245174   5.8017464  31.3066769
  26.3910160   5.4068322  30.8352451  27.5060787   5.0789104  31.8048248
   8.7968102  33.2586136  79.2531586   9.6952305  33.1933327  78.9294128
   8.2637939  33.3511200  78.4635010  42.0993538  47.7221413  60.9931717
  42.2262878  48.6671638  61.0771370  41.4812927  47.5006714  61.6897202
  36.4818077  25.8849525   2.9128287  36.6136856  25.1659718   2.2948442
  37.3638725  26.2089424   3.0951037  59.6880035  36.5745277  42.1980171
  59.3692245  37.4621735  42.3614044  60.3344498  36.4215546  42.8871765
  83.6211090  48.9476051  24.4365025  82.6818161  48.7662163  24.4690075
  83.7278366  49.5231514  23.6791439  75.4897461  60.3082161   4.0621848
  76.1880112  59.8392143   4.5190210  75.4062271  61.1351624   4.5369649
  63.5767708  64.3607101   6.4920235  62.7851830  63.8760986   6.7260690
  63.9279289  64.6644516   7.3290777  83.7236633  62.7244682   0.9038339
  84.1610870  62.0159264   0.4317479  83.1218185  62.2791214   1.5002205
  36.4200516   2.7777345   4.5807629  36.5829773   1.8613920   4.3571482
  37.1670113   3.2503645   4.2134686  40.7153435  34.0618172  20.8712044
  40.5971451  34.9322357  21.2515106  40.4506416  33.4589272  21.5659599
   5.5452218  56.5248718  23.7639103   6.2831569  57.1175385  23.9068432
   4.8449078  57.0890694  23.4360847  12.9206066  55.9990311  13.2596865
  12.7557192  56.1430130  14.1915197  13.5990095  56.6359367  13.0352879
  48.8937683  27.0095387  36.5092735  48.4123993  26.8499355  37.3210869
  48.4331551  27.7406254  36.0974731  71.5409775  43.2839851  16.7401161
  70.8588257  43.3446045  17.4088726  71.0742569  43.0286217  15.9443817
  62.9053574  65.1735077  31.4277859  63.4845467  64.7096329  30.8231468
  62.1347427  65.3898239  30.9028168   2.0941510  51.1098900  63.0367050
   1.5015899  51.4275284  62.3553772   1.5402001  50.5757141  63.6059380
  41.2989426  28.0910854  40.0304451  42.0174179  28.5741177  40.4387398
  40.5085716  28.5452900  40.3224106  19.8483047  37.2174988  17.9375324
  19.9371052  36.3248558  18.2715054  19.5323105  37.1073685  17.0407314
  56.1525459   2.5233886  70.9281769  56.5093918   2.3351882  71.7962036
  55.7414894   1.7031742  70.6552124  13.3876381  40.2256699  38.5787315
  12.6868305  40.8691330  38.6838875  12.9597473  39.4687729  38.1784210
  63.6567497  26.9838676  73.6963577  63.6291504  27.9265079  73.5323563
  64.3800049  26.8690720  74.3127594  47.6842232  50.5338287   3.8709247
  47.4086609  51.4361839   3.7095172  48.5999603  50.6074791   4.1396823
  14.6759348  60.8401413  22.8380127  14.0420437  60.7874184  22.1227264
  14.6465492  59.9758224  23.2482815   0.0094187  55.8800240  53.5389709
  -0.1277538  55.9700851  52.5959435   0.1539473  56.7748756  53.8465195
   2.2329273  28.3489323   3.5202472   2.0599821  27.4629173   3.2019703
   3.0390875  28.6102028   3.0751910  36.6992493  30.6819534  79.3284607
  35.8322411  31.0220680  79.1074448  36.8053589  29.9137516  78.7673569
  74.3311920  24.8944054  12.8130417  73.8905411  25.4418221  13.4629612
  75.2462006  25.1735840  12.8455238  48.4460640   5.8344264   2.9734690
  49.1458092   5.7374897   3.6193740  47.6432304   5.8694358   3.4935312
   7.7865758  61.0628357  58.0127144   8.3874979  60.5853615  58.5846748
   6.9476013  61.0383339  58.4728775  70.5175629  12.4347019  12.6440754
  70.4745712  12.2050390  13.5723209  70.9018478  13.3112879  12.6317711
   9.3989201  39.6763611  24.8129902   9.5084286  39.6590729  23.8622322
   8.8516541  40.4443398  24.9771252  63.0914116  54.6616516  27.8383675
  62.2739639  54.2856789  27.5117798  63.7305717  54.4803200  27.1492920
  68.5248337  68.1929474  76.5410385  68.3761673  67.7793274  75.6907120
  69.1448059  68.8991013  76.3587723  18.2524395  11.5377216  77.8950653
  17.6937237  11.0744925  78.5191498  17.6404514  12.0079126  77.3288269
  51.3014336  25.8502274  17.9040890  50.9981079  25.4557877  17.0863838
  51.3772888  26.7836418  17.7060642  43.5574532  57.4980545  18.7273521
  43.4025993  56.6611824  19.1654167  44.1776352  57.2912598  18.0281773
  53.0540810  12.0322075  32.7955856  53.4138374  11.8099518  33.6543083
  52.8894463  11.1864443  32.3786774  22.3762894  55.9867630  76.9670029
  22.6710682  56.5187187  76.2278366  23.1498203  55.9015770  77.5243378
  68.4404526  11.3362865  53.4036903  69.0829544  12.0091429  53.6288338
  68.9410782  10.5204878  53.3948135  16.0463715  49.4911842  28.5205879
  15.9851370  49.1845894  27.6158886  15.8847094  50.4330368  28.4657536
  59.8643646   5.4501109  52.2771416  59.4289780   4.9367614  51.5965958
  59.1992035   5.5600576  52.9566307   8.0612087  23.5268860  75.5078125
   7.9710293  23.4125710  76.4538727   8.7560730  24.1779652  75.4103851
  61.0487480  41.2336044   6.1941009  61.0207710  42.1738663   6.3711882
  61.8285904  41.1151085   5.6518464  41.9749565   3.4884286  55.3361130
  41.5458717   2.7556183  54.8944054  41.4916611   3.5900278  56.1560745
  11.9751101  60.9213638  77.2379150  12.8451710  60.5868797  77.0203323
  12.1219893  61.5042648  77.9828262  79.9404068  47.2538147  20.6759090
  80.7617111  46.9409752  21.0551529  79.4481964  47.5979767  21.4212360
  29.4800510   7.7066693  85.3595657  30.1824589   8.3351927  85.1927872
  29.8635464   7.0746813  85.9676361  66.5188980  24.7580357  79.6001205
  65.9667969  25.0208473  78.8636780  65.9585419  24.1899281  80.1287766
  80.1866074  29.8724194  86.4668198  80.0911407  29.4506493  87.3207703
  79.2937469  30.1082878  86.2150269  11.9707766  40.4980774  77.6737595
  12.6317663  40.7205391  77.0181427  12.3867369  39.8271942  78.2151718
  28.1743603  10.4450588   4.9558263  27.9487095  11.3129559   5.2905908
  29.0850601  10.3155661   5.2205682  61.3992233  23.1977272  45.0558510
  60.7872467  22.6267223  45.5202560  61.4574127  23.9813881  45.6024055
  62.3115044  11.8897734  77.9961395  61.7466965  11.4305086  78.6176758
  63.1813049  11.5181971  78.1431351  74.0252686   2.2722862   7.4122262
  73.6016998   2.9254520   6.8552742  74.9293976   2.5761433   7.4926095
  -0.2389681  60.1635895  44.2090378  -0.3041065  60.7157097  44.9882355
   0.5733440  59.6721420  44.3309479  15.3725014  53.3786545  29.9254456
  15.3377867  54.2788467  30.2489853  14.5252142  53.0044899  30.1669788
  70.4671021   2.2154984  37.4957428  71.0858002   2.8953576  37.7626419
  70.3886871   2.3218293  36.5477028  27.0242672   8.3794003  18.8306828
  26.9376125   9.2606125  18.4671078  27.9601326   8.2843151  19.0077400
   0.0292071  69.4207687  16.6597099   0.6100982  69.8604813  16.0388622
  -0.4577504  68.7914658  16.1276588  69.9331055  31.0126209  81.7105484
  70.0272141  30.1280804  82.0640488  70.1867218  30.9313526  80.7911377
  10.8696127  46.4978027  54.3054924  10.3568134  46.1899300  53.5581779
  11.7802649  46.4051323  54.0255699  41.4437790   8.1140451  72.3990860
  41.3239212   8.8926649  71.8553848  42.3689804   7.8908062  72.2971039
  21.3767834  56.9871864  38.6017761  21.0616570  57.3965302  37.7959442
  22.0593586  57.5782204  38.9195824  43.8191986   7.0378714  72.4163666
  44.0773659   6.8295135  71.5185013  44.5126266   6.6616044  72.9584122
  39.0307579  14.3276291  19.1602154  38.1467590  14.3005724  19.5263386
  38.9565430  13.8728437  18.3212318  60.6563911  14.0504665  84.4701309
  61.2030487  13.4012527  84.9127579  60.6083336  13.7454233  83.5641174
  40.4880981  11.6912012  72.9054565  41.0818863  11.5519075  73.6431808
  40.9728088  12.2659883  72.3130798   8.5156889   4.4368644  78.9328690
   8.8801060   3.6796854  78.4744873   8.1195574   4.9674482  78.2416382
  72.7028046  45.9502373  23.7307434  72.5598297  45.0103111  23.8417931
  73.5325394  46.0120239  23.2574978  56.4052277  48.6269531  68.6638184
  56.3357468  47.6823425  68.5255585  57.2657051  48.8576164  68.3136597
  40.2410507  13.3065929  65.8658295  40.8685684  13.1066933  65.1712112
  39.3847961  13.1525440  65.4666672  17.9091511  60.6565857  77.8672028
  17.4846210  60.7204399  78.7227325  18.6786594  60.1087379  78.0219650
  59.1320457  67.6856995  52.9427719  59.9615250  67.4972076  53.3817139
  58.6216965  68.1690979  53.5924644  66.4874191  11.1521397   2.7801857
  67.1033478  11.7252731   3.2366686  65.7115402  11.1395664   3.3406262
  55.8855209  44.2799187  79.2488174  56.7320023  44.5348015  79.6158829
  55.8799057  44.6625977  78.3714600  72.2958527  10.5736847   3.3163238
  72.2378464  11.4843712   3.6053140  72.6865921  10.6236668   2.4439368
  44.2849236  12.0233145  16.7691479  43.6906357  11.4894609  16.2418385
  43.9779778  11.9063969  17.6682281  65.7561646  16.2579460   3.5147741
  65.6888351  16.6870766   2.6618109  66.3027802  16.8458099   4.0361686
  76.8194885  52.3536224  16.0307102  76.8693237  51.4295082  16.2751732
  76.4570694  52.3478088  15.1447945  61.5799828  28.9269447  34.2598267
  61.7131729  28.6339989  33.3583412  61.7027130  28.1384773  34.7884941
  60.5792618  28.4899158  77.2126465  59.9098473  28.2972488  77.8691483
  61.3311996  27.9584942  77.4741974  34.6241684   7.3345647  64.4561234
  34.3925934   6.8141952  65.2254181  35.4417763   6.9479060  64.1426773
   8.8859234  19.6352386  88.7253494   9.4408169  19.7151394  89.5012054
   9.0287218  20.4500751  88.2438126  64.5629883  30.6110954  56.7056999
  64.3024902  31.0828381  57.4967957  64.6092453  29.6945190  56.9776955
  72.7384033  37.5251389  44.4837265  72.5839005  36.7381287  43.9612541
  73.5429306  37.8978882  44.1231346  64.6809006  68.1494598  31.3417606
  64.1593552  68.4676437  32.0786362  64.2086182  68.4515457  30.5659237
  33.6683044  65.7135544   4.6586390  34.4581451  66.1940155   4.9067101
  33.5538788  65.9050980   3.7278066  47.4051666   7.1999240  55.0222816
  47.7342567   8.0967598  54.9621506  47.7709808   6.8649464  55.8409386
   5.2416186  64.9345474  47.1216698   6.0843167  64.6389847  47.4662514
   5.0605655  64.3427124  46.3914757   6.1693296  30.3627224  14.7180071
   5.6202292  31.0694809  14.3785772   6.6055436  30.7433414  15.4802914
  13.2622585  14.1801186   8.6351137  13.1485481  14.4495182   9.5465546
  12.3706551  14.0965261   8.2970495  15.3164616  49.6240654   3.3182437
  15.9977121  50.2353859   3.5982773  15.6484499  48.7628670   3.5719225
  33.5901451  53.0247002  52.9878273  33.8770523  52.7681503  52.1114120
  32.8029213  52.5031624  53.1443748  72.3109436  29.7375946  66.9551239
  71.6950989  29.0099258  67.0415497  71.7973328  30.4399529  66.5562057
  82.0757980  10.3209257  64.9819412  82.5483246   9.8423405  65.6630478
  82.4929810  10.0486536  64.1645966  13.1920872   0.6884416  23.4224339
  13.6225653  -0.0858248  23.0598984  13.6401892   1.4268460  23.0098858
  57.5046234  10.6640463  57.3613167  58.2804108  10.3306284  57.8121185
  56.8738899   9.9454737  57.4067230  75.9357605  29.0749092  72.8624115
  75.7211075  29.8540955  73.3752670  76.6696167  28.6754475  73.3294449
  51.8335648  26.4073372  24.1173153  52.3876228  27.1756630  24.2548885
  50.9998817  26.7648544  23.8117237  35.4576073  39.7440186  75.5340576
  34.5759468  39.5354233  75.2251968  35.8681602  38.8917389  75.6799927
  -0.0367788  30.5142803  41.5114784   0.1949116  29.7454414  40.9904823
   0.6819488  30.6051064  42.1371078  40.8679848  63.6897736  51.3985672
  41.4864235  63.7149773  50.6684113  40.0434799  64.0009537  51.0249443
   4.5527349  27.2945538  69.6496582   3.8260655  27.5990715  69.1061020
   4.2468510  26.4645405  70.0153656   3.5104027  37.6911697  80.8971100
   4.3942780  37.7642288  80.5370331   2.9549558  37.5221939  80.1360855
  22.6018906  39.6258850  65.3942795  21.7298927  39.5879364  65.0013275
  22.7863255  38.7236938  65.6555557  18.0787830   4.8777189  25.6205368
  17.4497547   4.1601548  25.5453300  18.2472153   5.1442919  24.7167664
  40.4681702  19.1284180  63.4242020  40.9064026  19.9610748  63.2485161
  40.8499794  18.8259926  64.2482147  34.7636414  71.5249481  49.5792084
  34.4333115  72.2284775  50.1379166  35.4825516  71.1391220  50.0797501
  26.4177933  50.1966438  61.8488121  26.6666565  49.9287643  62.7334251
  26.8054409  51.0655022  61.7437057  29.9368458  29.7637615   5.1429353
  30.1457272  29.9932461   4.2374315  29.1822720  29.1788902   5.0738301
  85.4916306  15.1932306   3.3241315  85.3653564  15.8063374   4.0482769
  86.3207245  14.7573309   3.5211735  23.9164486  56.6358643  71.4409637
  23.0736485  56.8473434  71.0394745  24.5285149  56.5959015  70.7061157
  31.9337559  47.1050873  50.4790688  32.1024933  46.7921257  51.3677826
  32.6274872  46.7106590  49.9504852  76.3054199  47.2185364  84.1380539
  76.4883041  46.2902412  83.9929581  75.6800232  47.2290421  84.8626251
  52.9684563  33.0147133  68.1546249  53.6877213  32.5002251  68.5209503
  52.8660660  33.7486115  68.7605438  62.5495415  48.0986748  81.6891937
  61.6932640  48.3569832  81.3481598  62.4510193  47.1717453  81.9067383
   8.6342678  19.4726067  14.1207752   9.2999420  19.1941986  14.7497416
   8.3016376  18.6565495  13.7470913  20.7058868   0.7169259  53.0035210
  21.4705181   0.1432408  52.9539680  19.9624004   0.1189663  53.0803566
  31.7952366   1.1819973  86.3408356  31.8381462   0.6653453  87.1454849
  32.3867378   1.9181731  86.4970627  82.9317398   0.6648477  27.9698772
  82.1060867   0.2021067  27.8270550  82.9288559   1.3664210  27.3187103
  58.6047783  49.4335175  66.9163971  59.1564026  50.1758156  66.6695480
  58.8813858  48.7256088  66.3345184  77.9354706  14.1156206   6.1436887
  77.2272110  14.5944843   6.5741496  78.6789551  14.7181473   6.1641135
  51.8340569   5.3801913  48.9512444  51.6147041   6.2974463  48.7876625
  51.2427940   5.1144595  49.6555405  70.3907928  44.6762886  88.2177353
  69.5385437  45.1082573  88.2752457  70.2215576  43.8783569  87.7168350
  48.7787781  70.9013214   3.4268279  49.3430099  71.6525192   3.2436135
  47.9057961  71.2784424   3.5359609  60.3810883  55.3543358  71.1053391
  61.2976036  55.1016083  70.9941483  60.0253296  55.3622742  70.2167435
  24.8114948  63.1192436  49.7695808  24.1807938  63.7777252  49.4782906
  25.6342087  63.5997734  49.8615723  18.1635036  46.8347435  59.9687996
  18.7041264  46.2310867  60.4782639  18.5909538  47.6848946  60.0725365
  83.3589172  11.2718887  35.2318420  84.2132111  11.3501406  35.6564484
  83.5445786  11.3779440  34.2988281  16.7839642  67.9551163  19.6524239
  17.3201027  68.2071991  20.4042454  16.8867798  67.0053329  19.5926266
  34.6533012  20.2968731  22.7430325  35.2403984  20.6282368  22.0635147
  35.0452881  20.5942345  23.5641022  44.2298584   6.7537069  14.1506290
  44.6241302   7.5746856  13.8560505  44.9628372   6.2488370  14.5028782
  66.0999680  38.1852837   5.2073779  66.0225143  39.1152763   4.9944439
  65.4627838  38.0461082   5.9079905  10.2913694  66.5769272  26.9361000
  11.1743526  66.9132843  27.0891838   9.9370871  66.4264908  27.8125038
  65.7168808  32.6498795  20.0918560  66.2321396  33.4510803  20.1857414
  66.2593079  32.0786095  19.5481148  20.2743950  60.1684341  72.2221680
  20.0946007  59.6448441  73.0030365  19.8517208  61.0096245  72.3952866
  78.7091217  18.2955704  39.5431480  79.5877762  18.5748215  39.8004684
  78.6520004  18.5119152  38.6124687  65.8749771  34.7040100  41.7563515
  65.7741776  34.7927055  42.7040901  65.9361267  33.7601547  41.6092873
  67.1909256  21.3104897  27.9093800  67.7793884  21.6187878  27.2202492
  67.3700333  21.8864193  28.6526546  59.7668839   3.9688842  58.8332443
  59.1180573   3.3136652  58.5764503  60.6069069   3.5862460  58.5799026
  49.8278275  46.0378075  86.2628860  50.6585617  46.4430580  86.5116348
  50.0803337  45.2485886  85.7837143  46.9219589  14.0014505  56.1845741
  46.9105339  14.7279215  56.8077469  47.1813545  13.2421875  56.7065620
  19.9979706   8.9754105  78.4128189  20.8646889   9.1663246  78.0542374
  19.4683037   9.7371979  78.1775208  60.3570366   1.5856724   4.6908836
  60.3266945   1.2231963   5.5762777  59.7912064   1.0097013   4.1767564
  38.9193459  41.0708618  74.5694351  39.3981628  40.3516388  74.9813614
  38.1894608  41.2442131  75.1639481   9.6888676  17.3710041  18.0469093
  10.1713514  17.5579929  18.8521900   9.3894329  16.4678612  18.1513309
  21.6731567  22.5690536   0.9849202  22.5495987  22.5798779   0.6002595
  21.1004620  22.8823967   0.2848703  76.9153442  15.5667458  43.8793831
  76.7940521  15.3957481  42.9454231  76.3375320  14.9399309  44.3146591
  78.1390762  37.9384613  78.4339294  78.3055801  37.2599335  77.7796249
  77.5991669  38.5838509  77.9776382  32.0569763  45.1054382  72.0327911
  32.6110420  44.9292183  71.2724075  32.5530663  45.7412376  72.5484314
  12.4031687  66.0317688  48.1609726  13.3190327  65.7597427  48.1024323
  12.4411774  66.9345474  48.4768562  83.8096085  33.5777168  12.5218897
  84.1886749  33.2245331  13.3267498  83.4280624  34.4154358  12.7843466
   2.5222161  44.6979904  40.2284279   3.0050721  45.1393890  40.9271774
   2.6064813  43.7662086  40.4307022  22.1599312  26.5131168  75.5257950
  21.9979916  27.2971134  76.0505447  22.9547672  26.1338654  75.9008102
  17.5249500  64.9845428  31.2822647  17.5694160  65.6700363  30.6156673
  18.0694218  65.3112869  31.9985199  21.5867195  48.8612404   3.4062364
  21.3343716  48.2183037   2.7435272  22.5418892  48.8961182   3.3546329
  69.9961090  15.6827669   3.9952261  69.2425156  16.2236786   3.7591159
  69.6440964  14.7946625   4.0551414  67.9062805  61.3036957  58.8853073
  67.3496170  61.7564125  59.5188637  68.4879837  61.9848442  58.5478249
  21.6787643  16.5383186  64.8756409  21.2764912  15.7332354  65.2016068
  22.5413113  16.5599060  65.2901077  76.4877319  33.5753212  22.7459602
  77.2610626  34.0009804  22.3758221  76.7371521  33.3663559  23.6461582
   7.8974109  41.6858177   8.9674845   7.5100265  42.5469398   9.1244259
   8.6234493  41.6329231   9.5890169  42.4333267  32.8426628  66.6854858
  42.3266563  33.2759171  67.5323257  43.2014999  33.2614861  66.2972488
  64.7048492   0.3084983  61.7698669  64.0951996   0.8375715  61.2554359
  64.7612686   0.7593535  62.6123505  52.2140732  62.7659111  19.0451393
  51.2994919  62.8521233  18.7761707  52.5765343  62.1063957  18.4536228
  54.9008865  55.0325661  34.4972878  55.1116447  54.3254128  35.1069984
  55.7521286  55.3595924  34.2063103   6.7217283  51.8596840  57.9053078
   6.1175404  51.1172638  57.9052658   6.5487747  52.3092804  57.0781555
  29.4116173  23.7486897  70.2024384  29.9998817  23.3667259  70.8538055
  29.5145302  24.6940269  70.3118744  15.3511000  32.1148186  58.6948738
  15.8991899  31.4432163  59.1008034  14.4556704  31.7995300  58.8174744
  71.0555038  56.2029419  18.7755051  70.5352097  56.0906639  17.9799442
  71.9352875  56.4084320  18.4593010  39.5136757  36.5279007  63.4123306
  38.7048149  36.1340904  63.7392769  39.3757896  36.6098289  62.4686661
  66.3913727   0.3872508  31.1455288  66.1493835   0.2086951  32.0542603
  66.5812378  -0.4744409  30.7744904  14.9275703  39.5575829  40.8436813
  14.4202127  39.4956245  40.0343742  14.8231401  40.4672089  41.1227951
  47.2036743  28.0643425  34.7099457  47.0740967  27.2428188  34.2360878
  46.5614777  28.6638718  34.3299713  77.3310471  30.7352257  10.1836672
  77.7931824  31.4991512   9.8385906  77.7381821  29.9895973   9.7426376
   2.6944170  25.1375465  57.3147697   3.3435321  24.9042377  56.6511078
   1.9071381  24.6568127  57.0591965  20.5596237  27.5700150  83.4232483
  19.9507637  27.3248138  82.7265396  20.7754879  28.4847221  83.2417374
  31.1270523   1.1801746   1.8274032  31.3719997   1.1561385   2.7524190
  30.6663876   2.0127354   1.7231778   5.6078615  63.8245049  74.9990616
   4.9021254  64.3388901  74.6071701   5.2513509  63.5275154  75.8362732
  83.6710587  68.4174271  43.9305191  83.6508331  69.3548126  44.1231918
  83.9600067  68.0111389  44.7476273  50.4933510  52.2015228  57.0373955
  51.2033119  52.1090622  56.4020691  50.1145744  51.3248749  57.1025543
  59.2963104   4.9197245  72.3897018  59.2957497   4.6785069  71.4633942
  58.6782761   5.6483417  72.4478378   0.6610311  64.6451797   7.7378507
   0.6412206  64.7092896   8.6926956  -0.0471061  65.2185516   7.4445572
  25.9913063  55.1604156  56.1463585  26.9215736  55.1185379  56.3678932
  25.9298687  55.8664360  55.5029335  40.3525467  63.6102409  75.4232025
  40.5611534  62.7441788  75.0729828  40.3584290  63.4922600  76.3730850
  18.7779427  29.3944511  67.7613602  18.5310211  30.3152809  67.6757050
  19.7345543  29.3989010  67.7280807  19.1448517  59.0404129  57.6034203
  18.3469868  58.6471901  57.2498436  19.8520336  58.6509018  57.0892181
  19.3129292  45.7777481  70.6890564  19.7758389  46.6096725  70.7882843
  19.2755413  45.4173012  71.5750122  53.7279663  26.5176468  75.6079025
  53.6488113  27.4700832  75.5546875  53.7555504  26.2282753  74.6959076
  77.9722900  36.7141762  72.3299789  77.1392365  37.0993958  72.0581970
  77.7552948  36.1970291  73.1056747  20.6391735  51.4140205  16.7737751
  20.4379253  52.1447868  16.1892109  21.4400463  51.6815147  17.2246437
  36.7412949  42.1656380  27.9541264  36.7252007  42.6031303  27.1029072
  37.4107742  41.4876976  27.8623695  60.9122200  68.9986496  31.5268841
  61.6549721  68.6762161  32.0373611  61.2311096  69.8061752  31.1238365
  77.4658356  57.6681061  26.5432396  78.3208618  58.0607376  26.3671570
  77.6327515  57.0330429  27.2397060  67.5258179  18.0814514  64.9253922
  67.4420319  17.8965530  63.9899673  68.1331558  17.4155064  65.2477112
  62.7384529  34.1795731  57.6086617  63.2047424  33.9881897  56.7949181
  61.9581718  33.6262665  57.5734138  72.7451706  35.1593819  15.4737797
  73.6865234  35.2446785  15.3227701  72.6245041  35.4198914  16.3869095
  17.5629616  57.9293518  60.0126419  18.0290203  58.2614861  60.7799149
  16.7510338  58.4357033  59.9878426  82.3823013  64.4637680  58.4927216
  82.2655640  64.1915054  57.5825157  82.0829086  65.3727570  58.5111008
  29.3357773  23.4690075  84.0568771  28.9134140  24.0160389  84.7191467
  29.3358898  24.0078106  83.2657242  85.8050842  25.1310368  19.9797268
  86.3272171  25.9035034  20.1963100  85.9650497  24.5236130  20.7019997
  68.1302795  28.9703388   8.9471083  68.6113510  28.1430588   8.9269333
  67.7950058  29.0306835   9.8416386  28.6811943   5.6436706  77.5779877
  29.5096207   5.8178468  77.1312103  28.9372253   5.3645859  78.4570694
  57.5512085  13.6229458   9.0835104  58.2924423  13.4433517   9.6619158
  57.6721535  14.5337000   8.8149395  70.8378220  60.8527641   0.9380143
  71.0786133  59.9835739   1.2585825  70.1316757  60.6902313   0.3125744
  86.0846786  11.3161230  70.8090668  86.8328247  10.7652502  71.0393906
  86.2684021  12.1569624  71.2279510  15.8320560  37.7394447  54.0545769
  15.5192308  36.9568672  54.5083847  16.7028522  37.5002632  53.7371864
  15.9017992   8.9141064  70.9846268  15.9299402   9.8129311  70.6566696
  16.0974903   8.9935598  71.9182358  30.5878563  26.5042019  88.2447815
  31.1872635  27.2405128  88.1231766  31.0699940  25.8921814  88.8008423
  48.8205681  65.8274002   6.6281791  48.1507416  66.1557846   6.0284038
  49.6210251  65.8042679   6.1038122   0.4571441  11.5227880  50.5815239
  -0.2471881  11.2919083  49.9758492   0.0287058  12.0463495  51.2586937
  35.8192940  31.1503258  65.6477661  35.9150620  31.9640007  65.1527939
  35.2559853  31.3837185  66.3856277  62.5847397  34.4248466  60.2770462
  61.6824722  34.5212440  60.5817642  62.5459633  34.6338196  59.3437424
  27.1102715  66.5942535  18.2725945  27.4889030  66.1673355  17.5040836
  27.6995735  66.3620377  18.9902496   8.3538046   9.6356945  86.3310547
   8.4194527   8.6890230  86.4564972   9.1585608   9.9844713  86.7144012
  10.9495726  50.6947289  41.4199562  11.2108641  50.1943398  40.6469307
  10.3069649  50.1380234  41.8596878  16.9461803  47.6599007  15.4452629
  17.5206528  47.1079140  14.9146748  17.4792862  48.4260521  15.6575022
  58.9496269  20.1112309   5.1339388  58.8271141  20.8321438   5.7516003
  58.4480515  20.3702774   4.3609262   0.1103391   2.0335381  34.4398842
  -0.5485423   2.6408112  34.1032448   0.6201612   2.5535345  35.0611076
  -0.0304637  40.7775955  72.0964890   0.2735207  41.6704826  71.9334641
   0.2505587  40.2844315  71.3257446   0.3200431  49.3865356  64.2277222
   0.2975532  49.5527611  65.1701050  -0.5873225  49.1859741  63.9981651
   0.7308697  64.0846634  86.7318344   0.4910813  64.7515488  87.3752594
   0.0052593  63.4607048  86.7518082  75.1400146  23.5384903  59.0258827
  74.4022064  23.4088058  58.4300194  75.1701050  24.4846859  59.1674500
  77.2822495  14.4993362  75.5008850  77.6260910  13.9276857  74.8144302
  77.7322922  15.3332729  75.3658218  10.6446552  50.7487564  64.4261932
  11.4562874  50.2443428  64.4814377  10.0514984  50.1934242  63.9202271
  72.3301697  30.6622543  61.7829132  71.6039352  30.2804451  61.2899361
  72.1871338  31.6070499  61.7269440  68.6585007  11.2110310  16.4490986
  68.2629395  11.9838705  16.8521862  68.6854935  11.4156942  15.5144243
  29.3591957  31.5545464  66.3300400  29.0238953  32.3860817  65.9948425
  28.6906223  31.2582054  66.9476395   5.8185992  60.4104691  69.9597321
   4.9609995  60.0236969  70.1362686   5.7200007  61.3316727  70.2003326
  83.6995316  14.0053101  34.4041977  83.5524368  13.3473682  35.0836868
  84.1657639  13.5354443  33.7127609   8.8929138  55.3307266  48.4323158
   8.7662525  55.8134460  49.2491188   9.4094849  55.9205093  47.8831863
  72.9317703  42.7804298  47.8541832  72.6264877  42.0595474  48.4049644
  73.2813416  42.3530273  47.0722885  61.1652641  38.7975044  16.0253105
  61.8870888  38.7597923  15.3977919  60.4979591  38.2178955  15.6578999
  64.4940338  67.6357346  81.2550659  63.9568062  67.7264328  80.4680481
  64.9726868  68.4625015  81.3149185  80.9644012   0.1240212  32.0649376
  80.7457657   0.9244953  32.5420914  81.9123535   0.0368703  32.1650162
  50.3919868   4.4214506  50.8469467  50.7303314   3.5350204  50.9734230
  50.0728531   4.6815672  51.7110786   9.6984272  69.4177933  66.5703201
   9.5354614  69.2124481  67.4909210  10.4958248  69.9472122  66.5805359
  53.0131454  18.9318943  70.9685974  52.8384399  19.7704258  70.5413055
  52.1885185  18.7059555  71.3989105  38.8518257   3.9156220  33.6547966
  38.1076355   4.5165296  33.6184311  39.4998093   4.3008924  33.0649529
  80.9856033  67.8774872  74.3817673  80.9411850  66.9616165  74.6564255
  80.2764359  68.3059387  74.8610840  80.7141037  57.5608902  20.0851307
  81.5325699  57.1863213  19.7594795  80.2374039  56.8148842  20.4490871
  56.5276299   2.8982680  31.0068398  55.7600708   2.5478425  31.4588223
  56.8896484   2.1491346  30.5335827  42.1637726  66.5165405  48.2966537
  41.3383064  66.0354004  48.2388039  42.5332565  66.4651184  47.4151421
  27.6924667  12.0236397  48.3685837  27.3685474  12.8795633  48.0880432
  26.9086590  11.4768686  48.4226074  72.6762543  34.3089180  84.2579575
  73.3213196  34.5898094  83.6089401  72.3142853  33.4980927  83.9005051
  15.7299719   0.4328085  83.1343231  16.3804398   0.9512607  82.6606903
  15.5087290  -0.2796789  82.5346222  42.0057716  63.9548035  22.3605251
  41.5300484  63.2760391  22.8392696  41.9000092  64.7427216  22.8936615
  71.3488007  45.9726295  36.0162086  71.6477203  45.5460396  36.8192635
  71.7578354  46.8377609  36.0380402  57.6467056  10.2140169  29.6711063
  57.5215569  10.9308319  30.2929955  57.2401428  10.5249500  28.8622437
  81.4881897  60.3081856  19.4625835  81.1720352  59.4071922  19.5295544
  81.0911102  60.6421890  18.6582203  24.2621117  43.3226547  74.1107635
  25.2080212  43.2081909  74.0191956  23.9739246  42.5523109  74.6004105
  56.8734550  17.3169708  18.2390099  56.4934921  16.5750313  18.7095261
  56.1210861  17.7693958  17.8575916  68.5886154  23.7188606  13.0887833
  67.9356995  23.9789619  13.7386160  68.0866699  23.2595310  12.4155083
  27.6599865  67.1022034  10.8633566  26.7563267  66.8880844  10.6314449
  27.6530151  67.1680832  11.8182611  33.5383224  68.0259705   0.9519839
  33.2426338  67.1757431   1.2774251  32.8451004  68.3083420   0.3553726
  85.1835938  38.8124962  61.3577309  85.8696365  38.6761246  62.0111656
  84.9689865  37.9324036  61.0485153  11.6517248  48.7402420  85.6889191
  11.8702240  48.0118103  85.1076431  11.3493967  48.3212776  86.4947128
  22.1871681  69.7698059  27.0850601  21.4324188  69.5337906  27.6243973
  22.3169041  70.7036896  27.2502022  33.6050415  68.9107971  60.9144554
  32.6567574  68.8079147  60.9944839  33.8958435  68.1138687  60.4710922
  30.7474346  47.8057709  20.0736675  30.2910023  48.0419731  19.2661324
  31.6660748  47.7290382  19.8158951  78.9494858  67.1075516  52.2310600
  79.8394928  66.8479156  52.4692001  78.9569092  68.0633316  52.2826691
  83.5961456  37.6463013  13.9356661  83.1359787  37.3913689  14.7353468
  82.9392395  37.5631027  13.2444458  47.1676140   0.5173001  31.0403099
  47.5311661   0.4267358  30.1594791  46.9152145   1.4385811  31.1016884
  60.2346992  43.4751930  86.1991501  60.3080521  44.2182350  86.7980957
  59.8104858  43.8360519  85.4206543  81.8604050  20.0749989  82.3814011
  81.3919678  20.7366886  81.8725128  82.6036835  20.5452080  82.7591171
   9.0803776  16.8080559  57.7094498   8.2352524  17.1869049  57.4676476
   8.8921890  16.2769947  58.4832649  22.3869667  43.0603180  29.2625103
  21.4621296  42.9774590  29.4949799  22.5038815  42.4589043  28.5270767
  25.2232494  25.0908775  77.0416565  25.5332012  24.3951187  77.6213837
  24.5992489  25.5852413  77.5731277   2.7346396  53.7948952  41.9335938
   3.3310413  53.0599327  41.7908783   2.2362535  53.8605766  41.1190224
  49.1206169  33.1409454  88.4707565  48.9473457  33.8459702  87.8469391
  49.1154976  33.5711021  89.3258438  56.5092812  39.6173592  37.0683708
  57.0524216  39.8872414  36.3278351  55.6336899  39.9384422  36.8527794
   8.9545460  51.3132515  48.5404930   8.5392103  51.7511635  49.2834320
   9.6375494  50.7701225  48.9338722  25.8467846  52.7227631  36.3622513
  25.1479397  53.3722649  36.2848396  25.8479328  52.2704697  35.5186539
  54.0872993  43.9880219  20.3924961  53.8940353  43.1990738  19.8860931
  54.1199493  44.6886864  19.7411633  37.4678307  22.0706692  86.5442047
  37.3604317  21.7981071  87.4554672  36.5738106  22.1701355  86.2170029
  77.5973206  29.5255566   6.0888224  77.7197342  30.4445076   6.3270922
  76.6591797  29.3720074   6.2008319  85.8230515  67.5870438  20.0156212
  85.7224274  66.6536102  19.8290653  84.9279633  67.9061966  20.1304264
  49.4033356   7.7921891  65.5210953  49.2073898   8.3450594  66.2775192
  48.6162949   7.8409595  64.9784927   0.0199350   2.3248262  85.2297440
   0.6205809   2.3047853  85.9747620  -0.4580267   1.4973480  85.2850952
  82.2891769  45.1709061  75.4675674  82.5384750  44.6059875  74.7361679
  81.6847687  44.6393280  75.9855804  49.3232574  69.0808640  25.3995304
  49.2015114  68.1695099  25.6656914  49.2356529  69.0657806  24.4464664
  60.3840370  17.2499027  35.0615692  59.6773376  17.8534985  35.2906456
  59.9743385  16.6122856  34.4769096  32.2545967  68.1349640  28.1458111
  32.5158310  69.0550003  28.1067524  31.8863831  68.0275650  29.0228024
  22.8575821  -0.2685678  63.2842903  23.5922718   0.3117456  63.0850449
  22.5288906   0.0421369  64.1278915  65.1323776  44.3438339  61.6100388
  65.3709946  43.8502274  60.8254051  65.7322769  45.0897026  61.6154404
  35.4129372  29.7375717  70.2693329  35.7788391  29.9261990  69.4051743
  34.4650154  29.7649498  70.1392365  39.9174652  45.8485222  83.0044632
  39.2210045  45.4979553  83.5596848  40.7052574  45.7942314  83.5454483
  42.0411797  63.8090401  87.8589783  42.8609276  63.8482018  88.3516388
  42.3041954  63.5465202  86.9768600  19.5592880  11.1740961  64.9496231
  19.5714588  11.8029203  65.6711960  20.0099430  11.6221666  64.2338181
  35.7187805  61.9159241  37.4425545  36.4198990  62.5673904  37.4586372
  35.2639275  62.0329361  38.2766113  30.1326084  70.7584763  24.8103085
  29.7154312  71.3269348  25.4576492  29.4249287  70.5157700  24.2132206
  14.4673624  29.5858345  85.6919556  14.5173149  29.6346359  86.6466064
  15.2677650  29.1290283  85.4332733  34.4724503  60.7685356  22.6290703
  33.7131729  60.2044029  22.4824905  34.6724892  61.1300430  21.7656307
  43.8307495  35.5408096   7.9017806  44.2018509  35.3141556   8.7545080
  42.9824753  35.0976830   7.8843026  27.7459126  39.6820526  81.2321243
  28.4261589  39.4678574  80.5936813  27.8462639  39.0231781  81.9191818
  33.0345955   2.1082659  81.7947006  33.5175476   2.4558530  81.0449142
  32.6958923   1.2658070  81.4917526  54.2091942  18.1372528  75.1600342
  54.1340561  17.9217777  76.0896378  54.5313950  19.0385208  75.1483612
  16.2852955  41.6825371  84.5671463  15.8198614  41.6906319  85.4035339
  16.3223858  42.6023293  84.3047791  76.1230545  63.6068268   6.9609079
  76.6785660  63.7144241   7.7329597  76.6709747  63.8925476   6.2298961
  39.6932907  51.6137199  24.4525433  39.9386177  52.0768356  25.2535210
  40.4554062  51.0727844  24.2456551  14.2149839  54.6866112  60.9122887
  13.5672178  54.0550804  60.5995560  14.1198168  55.4374428  60.3262634
  72.7743454  27.1951656  86.2242966  73.0647354  26.5414753  86.8603668
  71.8255386  27.0780239  86.1766434  80.0838623  17.5254021  73.8222275
  80.3775101  16.6782837  73.4869766  80.7529068  17.7758236  74.4593277
  62.7905426   7.6467705  86.6774979  62.4713440   7.1016026  87.3966217
  63.6993179   7.3726158  86.5542297  58.6045570  31.9744530  50.2806702
  58.1610260  31.5713158  49.5343513  59.5171280  31.6987514  50.1944504
  75.5852051  14.8343754  79.0624313  75.8083649  14.0428619  78.5726013
  76.0704422  14.7527285  79.8834763  50.4900932  46.8698769  23.3331223
  49.9080887  46.2011681  22.9721069  50.0665855  47.6997719  23.1136971
   0.5008560  24.0558758   2.4722729  -0.3435122  23.8804188   2.8875911
   0.6562615  23.2938271   1.9142737  47.4721680  35.0776711  65.6006927
  47.6195488  34.1357231  65.6857834  48.3505859  35.4529457  65.5391846
  31.4926205   3.4519832  14.5175819  31.2029457   3.2006054  13.6405821
  30.6993828   3.4137998  15.0519485  63.3273048  12.1719694  35.8547096
  63.1165123  12.6545038  36.6540604  64.1864243  11.7866735  36.0270386
  22.2955475  30.2784023  74.2688904  22.2501888  29.8923187  75.1435928
  21.4634171  30.7404976  74.1676025  52.8833809  40.5776825  43.9955559
  52.9776230  41.5066109  44.2063751  52.2046547  40.5528145  43.3210602
  50.3942223  13.3699646  49.5951614  51.1504173  12.8495398  49.8663826
  49.6539879  12.9750462  50.0559464  73.8439560   4.9979558  47.5913696
  73.8562622   5.6834016  48.2593880  74.6343384   4.4850121  47.7599449
  11.8882980  59.7650146  60.3138275  12.5112047  60.2843094  59.8053513
  11.2738457  60.4076805  60.6683159   0.3445499  50.5978432  66.8398590
  -0.2297335  49.9443588  67.2390976   1.2230606  50.2267265  66.9218521
  50.2487564  48.3059044  10.5226917  49.9813347  49.1027069  10.9807568
  50.8993073  47.9050903  11.0992002  29.5681896   2.9849129  19.1601982
  28.6126995   2.9935811  19.1036472  29.8619213   3.2705958  18.2951336
  41.8542633  39.0538712  87.6939011  42.4850235  39.6345825  88.1195221
  41.5839729  39.5287056  86.9079590  66.2694397   7.8319988  16.0108871
  66.8799591   7.3170109  16.5384159  66.1466904   8.6407852  16.5079079
   8.5626860  63.0950356  85.3209000   9.2855167  63.5808830  84.9237900
   7.8848290  63.7540588  85.4706573  62.6630020  27.0170517  78.8041992
  62.1878777  26.8736515  79.6226883  63.1394882  26.1999321  78.6575317
  21.9284534  67.0324326  66.0515594  22.7314568  66.6940460  65.6554337
  21.5581284  66.2837982  66.5191422  45.1005249  12.3336191   9.1098604
  45.4207191  12.7823353   8.3273249  45.0309334  13.0233812   9.7698746
  62.0799026  13.4482536  38.0169334  61.4070892  14.1289749  38.0038605
  62.8312073  13.8621969  38.4417000  34.1603165  51.6658974  63.2262573
  33.2451439  51.9282303  63.1269073  34.1303291  50.9089127  63.8113251
  58.1062126  23.2441616  49.2835426  58.4402695  24.1223278  49.4664688
  58.2174873  22.7692108  50.1071129  83.4236679  48.1310387  72.9748611
  83.9062042  48.1108398  73.8012924  82.6875229  47.5349503  73.1127014
  86.7846069  62.4210014  14.4226332  86.3917923  61.6892624  13.9467335
  86.5194092  62.2850838  15.3322639  53.2330246  62.8817253  43.2747879
  53.9867058  62.8791504  42.6847153  53.1744957  61.9806862  43.5924950
  38.6933746  11.1958265  70.6025467  38.8449173  11.7411013  71.3745193
  38.0464706  11.6807098  70.0900650  85.6680603  26.7494049  52.7720947
  84.9882126  27.1200733  53.3348083  86.3802109  26.5268002  53.3716965
  71.1211777  59.1900139  36.4761009  70.9559631  60.0859566  36.7697296
  71.5690613  58.7751083  37.2133179  34.0313950  57.8707848  20.2162075
  33.3631096  58.2122116  20.8103905  34.8288307  57.8402557  20.7447910
  52.3129539  44.9220505  66.9419785  51.6170349  44.9265480  66.2847824
  52.2289734  45.7661095  67.3855362  58.9293365  55.6676979  32.1784096
  59.6845818  55.3216591  32.6539078  58.4159317  56.1249046  32.8444481
  76.2381744  67.8354034  61.9829216  77.1883316  67.7779770  61.8822632
  75.9291687  68.1820831  61.1459274  54.4153290  64.2110214  15.6552296
  53.7758331  63.5596733  15.3670864  53.9465866  64.7363129  16.3037529
  80.5731735  54.9405785  33.5563850  80.3581085  54.2715797  34.2063255
  79.7239304  55.2567406  33.2480621  69.9051361  43.8652039  73.5330505
  69.6925583  43.3041191  72.7872467  69.3557358  44.6399689  73.4141846
  30.0233593  52.1680565  15.3794479  30.5190639  52.7868004  15.9157887
  30.3672733  52.2891693  14.4944134  68.7120819  51.1457481  69.9913254
  67.8260117  51.1346931  70.3532333  68.8995132  52.0729523  69.8450623
   6.5515928  24.0325909  19.8176270   6.7041445  23.3748131  19.1391811
   6.0352187  24.7106876  19.3819981  61.1943588  30.9000053   9.1730871
  60.3447571  30.8579082   8.7341871  61.2683411  31.8085728   9.4650841
  19.5627861  29.4326992  78.2992706  19.0368690  29.4574795  79.0986633
  18.9823818  29.7761135  77.6199875  36.4404297  49.3957291  16.2712784
  36.4567337  49.3478050  17.2271404  36.9426727  50.1833382  16.0623512
   2.6996350  33.1373367  48.3136368   3.4912169  33.0095253  48.8364105
   2.3929126  32.2509193  48.1228065  52.3983231  68.3464508  26.8246326
  53.1312790  68.3032150  27.4387493  51.6509171  68.0110626  27.3197384
  14.5218496  32.2570038  19.8821583  13.7304802  31.7226028  19.8159580
  14.5766706  32.4900208  20.8089409  39.8624420   4.8188915  74.7549438
  40.5283890   4.4188409  75.3141479  39.0301132   4.5437012  75.1393051
  47.1826019  18.2948055   2.5179679  47.6524162  17.6951427   3.0975475
  46.9646225  19.0432320   3.0734618   0.6782779  58.3242149   8.5825682
   0.7175828  59.0946693   9.1492138   0.1761347  57.6826859   9.0850821
  40.3659821  50.7610779  59.5880470  41.2634048  50.9212723  59.8799438
  39.8385773  51.3921318  60.0777855  72.5953217  23.8752003  67.2652206
  73.0614471  23.2092514  66.7597733  72.2490692  24.4771290  66.6064148
  37.3764305  54.8748360  19.8173466  36.9819717  54.0206223  19.9932919
  38.3134041  54.7397156  19.9589634   0.2709246  15.0033464  29.0871468
  -0.0122063  15.7192230  28.5182972   0.5782710  14.3259563  28.4847240
  33.7389145  27.4399891  66.2155914  33.8583603  27.8788624  65.3733597
  33.4930229  26.5438633  65.9859695  46.0133705  57.7233086  85.2598343
  45.4343910  58.0742035  84.5831604  46.8723793  57.6777039  84.8400040
   6.9535789  68.6225281  78.3547821   7.5540619  68.5444489  79.0960999
   6.8985419  67.7365036  77.9967804  37.9415588  42.4909401  65.6160660
  38.8769684  42.6921959  65.5889359  37.5650024  43.0057602  64.9023438
   2.4131794  46.2380562  23.7408371   2.4259446  45.3260117  24.0310879
   1.6381973  46.6120110  24.1601124  72.3415451  57.1672134  88.3093185
  72.1483002  57.8184700  87.6349716  71.4823990  56.8617210  88.6004715
  73.6692200   3.8445036  44.8269844  73.8117905   4.1529808  45.7218285
  74.1965103   3.0483425  44.7612305  50.9037971  54.4944382  78.1779022
  51.3968964  53.7128716  78.4273834  51.4483719  55.2249603  78.4711685
  84.0858459  32.7734375  75.7208023  84.3877640  33.6125565  76.0685883
  83.6677551  32.3418465  76.4658966  56.1683502  19.8512745  61.9155617
  56.3547592  20.2102814  62.7830849  56.7378273  20.3442764  61.3249054
  59.3041878  71.2914047   8.2966986  58.8307724  71.6422653   9.0510263
  59.3501396  70.3493271   8.4597950  78.6074524  48.9574127  13.2265120
  78.2785721  48.0585098  13.2199221  78.0128937  49.4256935  13.8125515
  46.2327957  24.1294365  40.9926109  47.0853386  23.7552414  40.7704048
  45.8363304  23.4884415  41.5826721  71.1047516  32.9962692  48.9253387
  71.1989670  32.7736740  47.9991608  70.9771957  32.1542206  49.3622780
  72.4958038  53.5784492  69.7629852  72.5828781  53.3014526  68.8508911
  71.9276123  52.9186172  70.1604919  23.2416954  60.7839203  31.9460278
  22.6703014  60.0162659  31.9672470  23.9778366  60.5502625  32.5114746
  65.6600189   3.4066098  58.5098648  66.3822327   3.4498458  59.1365814
  65.5111008   2.4699869  58.3802757  47.6788902  12.1461725  86.8741455
  47.7874146  11.8243666  85.9792175  47.6273232  13.0975285  86.7819748
  43.2885666  36.4949036  25.2224579  43.0507050  37.1725159  24.5896111
  42.6362000  36.5772285  25.9180698  73.3902054  36.7343559  28.8327599
  73.8185959  37.1687202  29.5703487  73.8694534  37.0410004  28.0630054
  51.7747612  41.7666435  82.7475128  51.0667953  42.3583870  83.0021744
  52.5501671  42.3260956  82.7029343  36.3265800   6.8679438  13.8826017
  36.5962219   5.9526482  13.8067112  36.9127083   7.2362809  14.5436707
   4.7954178  53.1410484  36.6070938   4.7283859  53.2825775  37.5513954
   4.2353258  53.8158264  36.2234192  29.7425690  40.6693306  36.9734573
  28.9188747  41.0405579  37.2896042  29.4806938  40.0537262  36.2888527
  78.0514908  38.7062874  63.2930222  77.1981125  39.1226997  63.1722527
  78.2952957  38.9168015  64.1943970  19.4587193  44.7388573  38.3629341
  20.3212605  45.1528015  38.3328171  19.1896763  44.8122406  39.2786102
  40.3257332  50.5333824  44.4758911  39.9056435  50.4399452  45.3308945
  40.8232956  49.7233963  44.3637009  42.6002655  40.0142593  47.0864067
  43.1509132  40.2885742  46.3530769  42.0358963  39.3332062  46.7205009
  80.3882751  40.7930984  64.4615250  80.6279602  40.0530586  63.9037399
  79.6443176  40.4759941  64.9735794  73.8217697   2.6825624  72.4261932
  73.0055237   2.7875824  71.9373627  74.1025925   3.5772102  72.6184769
  41.0418625  37.8241577  83.8761368  40.6822395  37.3042946  84.5949173
  40.8663025  37.3031998  83.0925522  63.9327240  56.5262680  59.7677040
  63.6019936  56.6733170  58.8815727  63.1570206  56.2914047  60.2769699
  74.2098846  36.6764679  53.6319389  73.3373489  36.9290390  53.9337997
  74.8048630  37.0411720  54.2870903  39.7319107  61.5732040  38.7134171
  40.0153160  61.4911613  39.6240120  38.8061676  61.8096657  38.7710724
  70.3800507  70.4148254  75.7874756  70.2383041  70.4608688  74.8419495
  70.8074722  71.2428970  76.0061874  13.4801311   8.5504885  80.0944748
  13.3489380   8.8960991  79.2115402  13.5354185   9.3278751  80.6502151
  62.9786758  22.4067173  48.3539200  63.5252457  21.8232784  47.8275261
  62.4815483  22.9133549  47.7117233  77.8705063  54.4268951  17.5410366
  77.6580963  53.5948105  17.1182499  77.0497055  54.9191437  17.5268917
   8.9045715  32.6903038  47.2747612   8.1391916  32.1924324  47.5620804
   8.5479555  33.5272293  46.9770851  54.1201248  17.2749939  84.1346359
  54.7677155  17.6200333  83.5199814  53.8844261  16.4183731  83.7784348
   7.6481700  19.5111637  18.4397507   8.3199949  18.8429108  18.3043919
   7.0404782  19.3911133  17.7100029  11.1097889  61.2570381  85.6747742
  10.8286276  60.5957031  85.0424652  10.3409443  61.8140450  85.7966461
  54.2160110  48.6528282   9.1280794  54.9443207  48.5173111   8.5219164
  53.5225372  49.0322075   8.5882664  69.7085571  63.1775513  15.6265669
  69.9095917  62.7092476  16.4368191  70.2924576  62.7898445  14.9746618
  66.9501724  38.1288490  36.8149986  66.2180252  38.2758064  37.4138336
  67.6174927  38.7557220  37.0941925  75.6009979  39.8462715  82.0874557
  75.0325394  40.2646790  81.4409180  76.0945282  39.1961746  81.5874176
  18.7153473  48.7715187  29.5253239  17.8294754  49.0141678  29.2559071
  19.1370907  48.4721222  28.7198868  34.2879753  52.1191597  66.7367249
  33.9194870  52.8312149  67.2596283  34.9786186  51.7502632  67.2873230
  41.4634552  41.2391205   7.3057647  41.5434952  40.2905235   7.2058268
  40.5669174  41.3727531   7.6133285   3.6676171  44.2635422  51.7519150
   3.9391592  44.2211494  50.8350182   4.3057084  44.8460007  52.1639977
  34.7735443  60.9344635  74.7676620  35.5894585  61.0839500  74.2899857
  34.9870834  60.2452888  75.3966827  24.9156780   9.5769873  69.1684799
  25.3629570  10.4091015  69.3226166  24.2947083   9.7655897  68.4648743
   0.7189108   0.6223379  52.2770805   0.8817162   0.2569529  51.4074707
   0.3187597   1.4751805  52.1074600  23.6108990   8.1110315  87.1113586
  23.0278034   7.3590603  87.0075760  23.5030575   8.3733635  88.0255661
  61.2276535  71.0275726  25.6297455  60.4515686  70.5873947  25.2831078
  61.9620628  70.4976807  25.3197613  48.7098732  53.8526764  73.7481384
  49.3744431  54.4694366  74.0550308  47.8875427  54.1904716  74.1029663
  69.3170700  14.5205088   9.1278572  69.0707169  14.2166662   8.2542324
  68.9315872  13.8772478   9.7227087  73.3035660  35.7360840  37.7435570
  72.5289917  36.1662903  38.1057549  73.7266998  35.3286934  38.4993515
  60.7073708  66.7961884  49.8104439  60.8493958  66.8852386  50.7528496
  60.7584686  65.8541718  49.6484833  73.9059525  33.0597954  31.1055679
  73.6558075  32.1830215  30.8141441  74.5292587  32.9073677  31.8158436
  24.9051208  11.9531565  71.4434967  25.5911961  12.4287081  71.9118805
  25.3463268  11.5916405  70.6748123  20.5645981  71.6750183  61.6273918
  21.3032913  71.3935242  62.1671410  20.5999680  71.1068115  60.8578987
  83.1319122   1.0723145  20.9514122  84.0266800   0.8830423  21.2338848
  83.2030487   1.2102547  20.0068779  47.7244034  37.0838699   9.9894505
  48.5229759  37.5758362  10.1804609  47.0980225  37.3778114  10.6508703
   5.8205442  31.2784100   8.9212589   5.1054273  31.9050846   9.0313425
   5.4647493  30.6092815   8.3365307  10.2720060  42.9316444  34.9945755
   9.5206604  42.3701286  35.1853905  10.2889013  42.9927673  34.0394783
  62.3468018  53.2104378   4.4640279  62.8038902  53.8795357   3.9545078
  61.8175430  53.7055283   5.0893321  79.8508606  12.0055504  19.5080147
  80.2242889  11.1788311  19.8135033  79.2290115  12.2546329  20.1917477
   7.4580250  38.9243164  53.0893822   7.9470167  38.5746002  52.3445206
   7.4244227  38.2005653  53.7149162  58.7270622  26.5277672   0.9323103
  58.8620071  26.7066154   1.8629203  59.0698624  25.6429863   0.8062872
   5.3125949   2.6759653  28.3088036   5.7671151   2.9774547  27.5221977
   5.1496034   3.4738240  28.8118801  22.7286720  11.7234221  69.2766571
  22.8292656  11.4529734  70.1893311  22.2653351  10.9962254  68.8610458
  50.0294952  55.5677528  63.6837273  50.9791183  55.5084801  63.5791550
  49.8104057  54.8587837  64.2883682  84.4268265  13.1555710  18.8604088
  83.6493149  13.6899357  18.6986713  84.9312057  13.6548290  19.5027313
  79.2399826  69.4691315  59.2746735  79.0792847  70.2966385  58.8211975
  79.7561340  68.9529953  58.6554680  45.4133072  16.9785137  40.1919785
  46.1221619  17.0421219  40.8320618  45.5373383  16.1227417  39.7814903
  40.4261818  15.0272093  74.3372421  40.2349014  14.1481791  74.0102081
  40.5964928  15.5439510  73.5497131  72.4889221  28.9622402  82.7680511
  72.9205170  28.1163979  82.6476059  71.5558243  28.7705402  82.6741257
  85.1868515  55.1743698  88.2107162  85.1385498  55.2473984  87.2575302
  86.1243515  55.1425095  88.4012909  65.9270248  51.0239563  76.4172897
  66.3437958  50.9764900  75.5569000  65.3559952  50.2564125  76.4494858
  65.5212631  59.4611511  11.3375473  64.8112030  59.2594223  10.7281666
  65.2438049  59.0707588  12.1663055  20.2367649  40.7986679  75.0836639
  21.1226215  40.4656944  74.9400635  20.0888538  41.4062309  74.3589401
  16.4750767  44.2960358  63.0010529  15.5532846  44.0410690  62.9620247
  16.5087376  44.9695396  63.6803856  78.5216370   0.2637621  11.7446842
  78.2820435  -0.6619338  11.7884130  78.0674210   0.6640146  12.4861116
  36.4993172  43.1926613  14.2119160  36.3752747  42.2533417  14.3480082
  36.1086578  43.3641777  13.3550625  62.5429344  43.7940178  12.4195595
  63.4944496  43.8540993  12.5046396  62.3998985  43.5308266  11.5104380
  60.4098587  32.9268417  57.0191879  59.5824928  33.3797836  56.8562737
  60.5248184  32.3571243  56.2586365  55.3787994   4.5232296  81.4404449
  55.2579765   3.6688244  81.8547211  54.7751503   5.1024489  81.9055786
  55.7144814  46.5923424  31.6248302  54.7822914  46.8090401  31.6076927
  55.7527847  45.6771698  31.3469448  44.6424026  17.6311016  61.2416763
  44.9375305  18.4852676  60.9261894  44.5143394  17.7543411  62.1822281
  50.1241798  48.4274559  38.1630554  50.3683548  48.9338570  37.3883476
  50.5209541  48.9014626  38.8938866  76.8235321  57.4158592  20.0771484
  77.4342270  57.7762756  20.7200966  76.2154999  56.8875427  20.5942631
  49.5326996  21.3631153  88.0171814  50.0410538  20.6589851  87.6146851
  49.1085663  20.9519577  88.7703705   0.6862224  58.1996307  21.8662853
   0.7432130  58.7239952  22.6650505  -0.1529510  57.7447548  21.9377518
  48.6978569  24.8892345  -0.0061204  48.0895500  24.8089619   0.7285562
  49.5635452  24.9154701   0.4014722  44.9182510  32.9649353   8.5387001
  45.3644218  32.6596603   9.3286190  45.4398003  33.7107620   8.2421160
  58.2879524  63.5651207  51.1883736  57.8499451  64.3140335  51.5927315
  58.0219460  63.5995331  50.2695236  32.8467712  59.6563835   3.5904937
  33.0060921  59.4828148   4.5182447  32.5976028  58.8065872   3.2271829
   6.0211229   7.1563702  36.0218849   5.5686679   7.5558543  36.7648010
   6.6350980   7.8284035  35.7258453  44.0709877  20.2240982   8.6261568
  43.6387177  20.8784218   8.0773058  43.3716240  19.6191673   8.8734989
  64.4711609  54.8254204  76.4160080  64.9387360  55.3393097  75.7575912
  65.1438828  54.5819817  77.0519409  61.8050957  50.4627304  54.5265503
  61.2335815  50.8230286  53.8484726  62.1795235  51.2311325  54.9573593
  15.4628725  59.6114693  60.3446007  15.0568714  59.6512947  61.2105141
  15.2365026  60.4466095  59.9352951  58.5567436  47.3751869   6.9856582
  58.5588913  46.6930275   6.3141794  58.9386787  48.1386604   6.5526857
  14.8900452  12.8591166  17.5060349  14.8451872  13.6284437  18.0737972
  15.1446295  13.2067528  16.6513023  31.0790787  11.0962124   9.9138737
  30.4818935  10.7218809  10.5615444  31.0918903  12.0324240  10.1128073
   0.4847728  46.0964890   4.6287189  -0.2752792  46.6737823   4.7014155
   0.1844648  45.2593994   4.9827361   4.8224344  66.7000198  49.3500099
   4.8117867  66.0363693  48.6603088   5.6821880  66.6055527  49.7600479
  59.7136917  55.9393768  81.5362778  60.1305923  56.2972794  80.7524872
  60.4231911  55.8716316  82.1752243  44.0903282  53.1436806  36.2471962
  43.1573868  52.9295616  36.2480469  44.3534660  53.0715218  37.1646843
  58.1831627  53.5071220  24.8120880  58.5603485  53.5298843  23.9326305
  58.7227211  52.8756371  25.2878342  46.5644073  24.2335205  69.2619171
  46.8485794  23.7428169  70.0330811  47.2718048  24.1144276  68.6281662
  25.2620201   8.8859291  84.1480026  25.7542953   8.7821064  84.9623184
  24.7841740   8.0623074  84.0503235  45.3555679  59.1506577  20.6418571
  45.4908218  58.3487968  20.1369228  46.2171364  59.5670471  20.6654320
  54.1025200  62.9754753   1.4278344  55.0151596  62.9763298   1.7164944
  53.8192711  62.0670776   1.5318316  86.2816925  15.2201586  64.4231415
  86.6326523  15.6625204  63.6502419  86.8716888  14.4796610  64.5638580
  36.4817619  51.0136299  52.9890862  37.0411110  50.2666779  52.7759514
  35.6098938  50.7521782  52.6929054  17.9045601  27.4344196   8.6245031
  17.9519081  27.3676319   7.6708107  17.5923920  28.3245640   8.7870607
   0.6484208  71.1140060  73.5825882  -0.2899440  71.2957458  73.5308609
   0.8553079  70.6844864  72.7525635  64.4388428  17.3980484  86.7637787
  64.6866074  16.7682114  87.4406433  63.7545700  16.9543324  86.2626572
  64.2536392  22.6110458  -0.2425083  64.8807373  21.8879681  -0.2541730
  63.9915924  22.6860447   0.6750644  59.3895760  24.4315357  53.8690147
  59.0126343  25.1308270  54.4029999  58.6327209  23.9894180  53.4843941
  60.9961586  41.0871735   2.4673548  60.6510506  41.9792824   2.5030363
  61.3716965  41.0105438   1.5902385  79.5522537   8.2253742  67.9019241
  80.1621017   7.6999044  68.4197998  79.6009140   9.0995178  68.2888794
  67.8142090  20.2533436  40.7212677  67.0176315  20.7231636  40.4743652
  67.6953812  19.3745403  40.3609657  64.6894302  55.1690331  81.5183334
  63.8691025  54.7046890  81.3519287  64.8942261  54.9733086  82.4326477
  78.6825943  31.6624355  81.5707474  78.5976639  31.8847332  82.4978943
  77.8996887  31.1476059  81.3751907   1.0138260  58.2142334  48.2470856
   0.3689490  58.7496758  47.7848396   1.7458298  58.1391792  47.6349030
  78.4746170  24.2687931   4.8968091  78.6119614  24.5740852   4.0000558
  77.8122406  23.5823746   4.8173347  46.1283646  49.3036652  11.6593466
  47.0170479  49.5963364  11.4573145  45.8457603  49.8726768  12.3753033
   0.1979704  41.7546539  28.7976303  -0.1160445  41.9454193  29.6815071
   0.2628686  40.8001404  28.7673168   8.1604099  40.8145714  30.5973492
   7.4978528  40.7564240  31.2857285   8.2703085  41.7538643  30.4494228
  47.1880569  59.8373184  59.0457115  46.9592361  60.6900978  58.6760635
  46.6600609  59.2117577  58.5495987   0.4496690  24.1559124  68.2992477
   0.9185514  23.3478565  68.5076370   1.1402926  24.7975426  68.1331711
  30.0630741  46.5202026  79.6734390  29.8785915  47.1361351  78.9643326
  30.6068954  45.8445892  79.2684250  45.6731720  47.8383636  19.3047600
  44.9989662  47.1642952  19.3902760  46.4581261  47.4412346  19.6820793
  24.4706001   1.7897581  82.0028610  24.2219028   1.3485079  81.1906586
  24.3197327   2.7184508  81.8267975  71.4524841  18.5799160  38.4081917
  70.6338730  18.0942650  38.5094604  72.0537567  18.1678486  39.0285950
  83.5243988  68.2676697  73.5323563  83.3008423  68.6595917  72.6881714
  82.7492065  67.7607346  73.7738647  29.9308109  62.4873657  82.6630402
  30.7619534  62.2396049  82.2580109  29.4744759  62.9877396  81.9865646
   6.4403601  46.1310730  23.8309498   5.7204318  46.1000328  23.2008934
   6.5900254  47.0650253  23.9777985  13.2873917  64.3150787  15.4619112
  12.6384373  64.7257233  14.8905458  13.6231775  65.0334244  15.9980621
  35.5480652  21.7479038   1.6464159  35.0434113  21.5885448   0.8488194
  34.9949036  21.4109268   2.3511789  60.5477066  14.0271883  29.6708698
  60.2808914  14.0382919  30.5900631  59.8276253  14.4547262  29.2072678
  12.1593494  47.8927650  60.2412338  12.5229263  47.8783226  59.3558922
  12.3698626  47.0309601  60.6006927  70.2949677  45.1092949  66.0484009
  71.1364517  45.0322342  65.5987396  69.9265366  45.9324837  65.7276993
  11.9817114  64.2557220  66.7480469  12.0878096  63.3989601  66.3346100
  11.6088076  64.8085175  66.0613174  51.3695984  12.2658606  42.8344040
  51.0792999  13.1776104  42.8085060  50.6381760  11.7927971  43.2312241
  73.0155258  45.1098213  12.3377132  72.7752914  45.6457787  13.0935373
  73.1482620  44.2331123  12.6982546  45.3676910  16.3548450   2.1493540
  45.5399208  15.9196806   2.9843400  45.7918854  17.2088928   2.2323861
  63.0857353  70.5623932  64.9948883  62.8430977  70.2105865  65.8513870
  63.8400040  71.1245422  65.1717911   4.0593176   8.5433416  51.4836845
   3.4776092   8.4538059  50.7288132   3.5697939   8.1578941  52.2103424
  76.5243530  61.3696594  61.0491219  75.6182404  61.4896088  60.7648506
  76.6364822  61.9973373  61.7630386  79.3394165  53.0781784  78.3215561
  79.1711426  53.3349113  79.2282028  80.0436172  53.6596184  78.0347443
  43.9185982  12.4565744  65.1381989  43.1219826  12.3149691  64.6267471
  44.2803154  11.5795946  65.2658691  26.8181343  58.6554947  88.2447281
  26.5210342  59.3457375  88.8376312  27.3004570  58.0486221  88.8062515
  40.7151756  57.5132828  22.5676613  41.3835258  56.8733444  22.3226719
  41.2112999  58.2727432  22.8731327  46.9153404  56.9306335  27.5110474
  47.8215866  56.7113876  27.2945347  46.8011436  57.8241158  27.1871910
  50.0998230   9.0538235  80.1501236  50.8515930   8.8164053  79.6072540
  49.3636398   8.5838137  79.7585144  75.7455826  40.0349579   8.8709316
  76.2302704  40.6710587   9.3969460  74.8254700  40.2204208   9.0586224
  21.0078793  46.2094803   2.0600934  21.3775806  45.5654488   2.6640601
  21.0702820  45.7944946   1.1997888  84.1420135   2.4064643  57.5071259
  84.8285065   1.9094878  57.9520607  84.6025543   3.1414318  57.1022110
  73.1781921  70.9227829  60.7744675  73.2657013  71.4783783  61.5489960
  72.8727112  71.5155487  60.0877762  63.2417755  14.1027040  30.5904140
  62.4521027  14.0193605  30.0559025  63.6140060  14.9475679  30.3376713
  67.8164444  33.8800507  36.8800545  67.7968597  34.4043732  37.6806374
  67.0727310  33.2836304  36.9661064  59.6476440  10.0739737  69.2772064
  59.6063042   9.1649733  68.9801483  60.5217018  10.1622257  69.6572876
  21.2710056  28.0832176   2.4146857  20.5495453  27.6364918   1.9717820
  20.8845425  28.8950653   2.7429850  58.7802353  68.0315399  21.5820084
  58.1207008  67.5691376  22.0991478  58.2938995  68.3914948  20.8402958
  14.1063223   4.6047235  11.4121733  14.4233513   3.9600065  12.0446787
  14.4759111   5.4354925  11.7112684  47.1397858  58.4597359  72.6156464
  46.3901176  58.2016144  72.0793610  47.0509415  57.9426270  73.4162369
  78.8204193  49.4476967  30.8887272  79.6233063  49.2302246  31.3623409
  78.8232803  48.8626213  30.1311588  51.6970215  14.5813179  20.5266571
  51.5550499  14.4729452  21.4670467  51.7798996  13.6881943  20.1924496
  68.0242615  39.0896301  62.7815552  68.2449036  38.4141808  62.1402168
  68.6341324  38.9419518  63.5043793  -0.3410140  62.7601013  10.5652933
   0.2674934  62.0701904  10.8298273   0.1781089  63.5635567  10.5999231
  59.6836243  48.7084999  69.3016434  60.2784805  49.4008255  69.5898438
  59.2648239  49.0635872  68.5175781   4.5771489  53.3508301  27.2299366
   5.5223832  53.4776306  27.3117046   4.4737864  52.4114838  27.0776939
  57.1942062  44.0163116  13.1116800  58.1412811  44.1147804  13.0137701
  56.8584404  44.9126778  13.1068478  29.8675690  50.8798447  87.5629501
  29.7491093  50.0524979  87.0963669  29.3464432  51.5112610  87.0669937
  86.3140106  28.1140766  62.8415184  86.9500351  27.8866711  62.1632957
  86.4424438  27.4529228  63.5216751  47.4582939   0.1410861  41.6320953
  48.2380028  -0.4094329  41.5598793  47.7935944   0.9977217  41.8966331
  20.5211487  41.8864098  81.9092941  20.2079067  42.7469330  81.6307144
  20.2638111  41.2968483  81.2004776   8.5030098  54.5152779  79.5706482
   7.7647138  55.0827103  79.3488998   8.2567959  54.1171913  80.4056015
  10.6690102  60.4908829  74.7691650  11.0980959  61.1497345  74.2232437
  11.0070896  60.6525536  75.6499557  38.9238586  37.5888519  68.1393890
  38.4039116  38.3921356  68.1144104  39.6446648  37.7510796  67.5308228
  64.3100433  39.6339226   1.3545897  64.8828278  38.8813324   1.5020757
  64.7151260  40.1040344   0.6258002  70.2996368  64.0994186  82.0063171
  69.3677826  64.0506973  81.7929840  70.6481171  64.7602234  81.4078751
  33.9952621  43.0672493  57.8608704  34.6929779  42.9416046  57.2177238
  34.1394424  43.9501839  58.2012596  40.0649223  18.3474331  86.2766266
  40.2867165  19.2569752  86.0771942  39.1822891  18.2333374  85.9242477
  72.3233032  67.4647369  21.7805004  71.8940659  67.8007812  22.5673084
  71.6778793  66.8767548  21.3881435  22.9291992  62.9342804  77.6442337
  23.8351135  62.6251678  77.6441422  22.4793377  62.3577385  77.0266190
  70.6502762   1.4278058  27.2948208  71.2665024   1.1416363  26.6205788
  70.6632462   0.7253085  27.9448681  84.7099762  39.1314774  43.4239006
  83.9006882  38.6203270  43.4207191  85.4063721  38.4770699  43.4788895
  43.2844696  56.0516090  88.2858124  43.4979057  55.6401749  89.1233063
  44.1222305  56.3809433  87.9603500  48.4669762  10.2999048  50.3636169
  47.9646072  10.9781132  50.8151588  48.5422249   9.5917616  51.0032272
  38.8132782  52.6298218  43.1736069  37.8595276  52.7101364  43.1855774
  39.0057755  51.9629898  43.8327827  75.9188080  70.4762573  19.1270218
  76.4364395  71.1027679  19.6327667  75.5803452  69.8631973  19.7795792
  11.1133652  51.3217888  21.7944183  10.9955788  50.4315338  21.4630547
  10.5073242  51.8520851  21.2769928  58.0164452  34.0132561  56.6101494
  57.6518745  33.9268913  57.4909821  57.6337929  33.2854576  56.1201324
  14.6873970  42.3661575  86.7991104  14.1075115  43.0805054  86.5351562
  14.1498365  41.5784454  86.7168350  79.2204590  67.5370483  71.9005508
  80.1579285  67.5975494  72.0841980  79.1421661  66.8002930  71.2945099
  57.6353302  13.6212435  46.2710495  57.8312378  12.6962776  46.4203491
  57.2096596  13.9092855  47.0785561  56.1068001  44.0909767  87.5224915
  55.8570175  43.3492546  86.9714127  57.0539627  44.0022964  87.6285553
  12.3304291  42.5047760  11.4828186  11.7741280  42.2862206  12.2304783
  12.0150194  43.3603058  11.1915855  38.6560402  54.0270462   5.4047256
  38.4133263  54.4481087   6.2293639  37.8444939  54.0081253   4.8975115
  51.2851791   0.4963270   4.7287965  50.4654007   0.9597728   4.9002857
  51.3709335   0.5060774   3.7754955   1.5551646  49.0587120  31.6866093
   1.0895816  48.4042549  32.2073288   0.8628567  49.5471878  31.2412624
   1.0562785  16.9228954  51.0174103   1.2619787  17.6914425  50.4851913
   0.1107071  16.8103333  50.9201698  85.7560272  18.8945808  74.8453217
  86.4972153  18.9602356  74.2431870  85.8497314  19.6513329  75.4239197
   6.1112876  29.0218124  61.1084290   6.0759716  29.0158749  60.1519012
   6.1063094  28.0966721  61.3540344  16.7440529  49.3892708  40.0312729
  16.7976551  48.6522179  40.6396408  17.6512280  49.5540619  39.7741508
  34.4915543  18.3180962   1.1176330  33.7346344  18.9037151   1.1364259
  35.2173347  18.8738060   0.8336175  77.8448715  54.2010803  73.6792984
  78.0585938  54.4113503  72.7702637  78.0949860  54.9831886  74.1712112
  78.9444885  50.4093666  16.2943726  79.7113342  50.1480446  15.7845726
  78.7510147  49.6490707  16.8427773   1.7045609  30.0336933  35.2399025
   1.5681546  29.6754322  36.1169853   1.9740716  29.2813129  34.7131004
  81.8996277  61.5468140  10.9572182  81.2768936  61.0045700  10.4730654
  81.5248260  62.4270668  10.9269562  56.0124130  52.8414383  19.7412586
  55.7743759  51.9479866  19.4936295  56.7590065  53.0543175  19.1813354
  34.6153984  27.9488754  17.4565582  34.7410469  27.9116344  18.4047451
  35.4834290  27.7742481  17.0928841  53.0720024  25.1568069   4.2536926
  52.6570473  24.5580769   4.8746357  52.5145874  25.9349098   4.2622466
  74.6296997  28.0515079   3.5103948  74.8483047  28.0375271   4.4421940
  74.3568726  28.9533958   3.3418908  28.4204731  59.9992523  59.2219467
  28.6675529  59.1061478  58.9820557  28.0297031  59.9142532  60.0916061
  53.8579674  31.9487934  29.8228779  54.7244720  31.7022114  29.4994545
  53.9919586  32.1289253  30.7533779  76.4422073  29.5431099  25.5894127
  77.2970734  29.4979305  25.1611710  76.6175156  29.3051128  26.4998283
  41.7438354   4.1508074  70.2084503  42.6388779   3.9950392  69.9070053
  41.8034821   4.1176891  71.1632156  63.3095245  11.2242794  45.6643066
  62.7668228  11.5643816  46.3756676  62.6858826  10.9988108  44.9740410
  10.3308725  48.4589806  23.7548370  10.1242447  47.8145294  23.0779190
  11.2532997  48.3047829  23.9587536  75.2595444  26.0271664  75.1006775
  75.9829941  26.3402348  75.6436691  74.9616241  26.8040524  74.6274643
  18.7198715  58.5180817  37.3976746  18.6466084  57.5645638  37.3567848
  19.0644226  58.7688026  36.5405540  37.0554314   7.0916357  80.2158203
  36.1058578   7.0746522  80.0964279  37.3546333   7.8070135  79.6546173
  38.3163910  71.3586884  58.7279739  38.3197289  72.2614594  59.0461464
  37.9066010  70.8577118  59.4331856  25.8256207  50.5815277  24.2078915
  26.5440407  50.3802757  24.8075600  25.0367928  50.5035896  24.7444630
   2.9441814  46.4790344  69.0511093   2.2465627  45.8270187  69.1177139
   2.5478165  47.2056236  68.5702820  32.6390457  14.2138805  84.1662445
  31.9437103  14.2667332  83.5105438  32.7186852  15.1062069  84.5033569
  10.6095095  48.0589600  47.3753052  10.4426079  48.2095108  48.3057404
  11.5296011  47.7979355  47.3361855  64.3127747   8.1878366  83.6841736
  64.7612534   8.0781240  84.5226593  63.7705879   7.4037037  83.5981445
  34.6209755   9.5410719  74.1037674  34.4626274   9.3271332  73.1843185
  34.3628387   8.7525282  74.5810471  21.0507565  46.0809097   6.5452590
  21.7752247  46.6012764   6.8925276  20.3084335  46.6849861   6.5285192
  31.2382870  49.5963593  16.2021809  30.8811684  50.2568665  15.6085215
  32.1532555  49.5049553  15.9362640  27.3850822  69.3181458  83.3112183
  26.8389034  69.7208252  82.6361084  27.6181622  70.0412140  83.8935242
  61.4152336  44.4924278   4.2330194  62.0842400  45.0950279   3.9081588
  61.8202209  44.0710182   4.9910622  16.5175076  11.0856142   3.5987575
  17.4313240  11.3585424   3.5170269  16.0182934  11.7968769   3.1973572
  84.7615204  14.3613443  57.6334839  83.8898239  13.9719887  57.5643044
  84.8189468  14.6603470  58.5409698  66.5998764   6.3603320  59.3644638
  66.4547577   5.8880320  60.1842842  65.8121490   6.1908774  58.8477516
  57.0241203  34.0020256  79.2628860  56.9555817  33.4433517  80.0371094
  56.6976776  34.8539276  79.5525970  59.9593353  26.1719913  87.2457581
  60.1576385  26.9063187  87.8268509  60.6270828  25.5174484  87.4504929
  62.1766281  40.1719742  10.7080936  61.7197113  40.0441933   9.8767509
  61.6332779  39.7180519  11.3522673  72.1893005  13.8536949  15.1316404
  71.2471161  13.9833460  15.2398376  72.3094254  12.9061260  15.1942244
  64.4317398  62.8949852   2.5125868  64.4169083  63.5482864   1.8131535
  64.9185410  63.3145714   3.2219563  86.4212875  43.0755005  57.3430557
  85.9455795  42.5970535  58.0220413  87.3429031  42.8824158  57.5150528
  20.8791618  24.5792980  11.0528193  20.1220036  25.1508560  10.9252920
  21.5756779  25.1664429  11.3466883  36.9209290  25.0587559  78.8190994
  37.1295319  25.4934883  77.9922180  37.2637253  24.1709995  78.7160950
  14.1360235  49.9468079  33.8553047  13.2960663  50.3519363  34.0711136
  13.9547348  49.0069389  33.8517494  73.0051346  66.3283920  85.7364960
  72.9212570  65.9619675  84.8561935  72.2894135  66.9605942  85.8019714
  69.7884674  39.7566795  47.8109512  69.5765915  39.7794685  48.7441292
  69.2082901  39.0863876  47.4499168   9.1186647   7.0611916  86.9365463
  10.0291300   6.7670646  86.9087372   8.6705732   6.5146322  86.2910080
  59.4684944   7.4474454  68.6920929  58.5861778   7.5323272  68.3307800
  59.6182632   6.5032024  68.7390518  59.1927910  12.5702171  33.8636551
  58.7529793  12.4660788  34.7074280  59.9873161  12.0420141  33.9408951
  31.1544399  65.9696198  67.2603302  31.4896889  66.7757263  67.6528015
  30.2474499  66.1734848  67.0322113  49.5554161  41.3258629  57.6847916
  50.3674088  40.8191948  57.6985779  49.4293480  41.6010132  58.5928841
  83.3523712  23.4570942  81.4437332  84.1506042  23.8268471  81.0664444
  82.6411972  23.9113579  80.9919434  12.7573910  53.8456078   8.1769133
  13.4700737  54.0394897   7.5680399  12.6237726  52.9012146   8.0963268
  61.4782562  56.2376785  54.2826958  61.1325455  56.9052773  54.8751755
  61.2026215  56.5242653  53.4119911  44.0986671  32.8299751  60.3186913
  44.4783859  33.0644341  59.4718895  44.8011398  32.9903030  60.9488182
  25.6560459  68.3476334  74.2001343  24.8066578  68.0983276  74.5643005
  25.7366161  67.8261642  73.4015045  81.7836914  28.2244167  34.7649803
  81.1926270  27.5746365  35.1453323  82.2321548  27.7568550  34.0603561
  45.9668159   1.9674658  51.7915916  45.2261658   1.3630993  51.8406944
  46.6748390   1.5164920  52.2515411  80.4054489  53.7884750  55.8976402
  80.6981049  54.6976509  55.9607506  79.4500427  53.8449478  55.8818169
  26.4384537  43.0133591  22.7048473  27.2038956  42.6127396  23.1169567
  26.6777325  43.0929298  21.7814598  36.3242149  66.6316376  73.5509796
  36.8291283  67.2918015  73.0761261  36.5017052  66.8125534  74.4740143
  63.0713387  70.7736282  79.4620819  62.4811859  71.2465439  80.0488510
  63.8133392  70.5287628  80.0149918  46.8766251  27.5790462  70.8767090
  46.1795807  27.2191811  71.4252090  46.6010475  28.4782219  70.6984558
  49.0794525   3.6484723  27.3597431  49.9843941   3.9601066  27.3737602
  48.5581093   4.4161477  27.5944939  11.5513582  48.7493629  28.6112080
  12.1702452  48.0288200  28.4927654  12.0031080  49.3597679  29.1939240
  27.5912304  65.7160416  88.4326706  27.0289307  65.3279495  87.7622757
  27.8232708  66.5760117  88.0821915  65.2608490  42.5439644  47.6292114
  65.6673813  43.3767128  47.3894272  65.9945221  41.9351807  47.7149277
  12.3648434  26.6950111  11.8503332  12.7970200  25.9764805  12.3120365
  11.8088226  27.1052761  12.5127192  24.7546101   8.8629961  77.1519775
  24.7438259   8.0888214  76.5891571  25.3884335   8.6519270  77.8375015
  86.3107376  67.4903717  10.5635452  86.4750443  67.5479279  11.5047798
  86.3819122  68.3927765  10.2523651  14.2588348  41.2068748  70.3789673
  14.9052572  41.1187592  71.0793991  13.9167938  40.3213806  70.2559280
  68.9399185  64.3987350   2.9349196  68.4044724  63.6292419   2.7414808
  68.5827942  64.7389526   3.7552500  32.4170914  11.1256142  77.6324387
  32.8586960  11.8414068  77.1754303  33.1031761  10.7209520  78.1632538
  56.7290421  65.2081985  57.2476387  57.1963501  65.9044876  56.7860832
  56.5300255  65.5816422  58.1062241  55.7139053  43.3557625   3.8617189
  55.9863853  43.9401093   3.1542401  56.5334473  43.0697212   4.2651563
  80.8793335  31.5216522   3.4095402  81.3156509  30.8643723   2.8674703
  81.3632202  31.5106125   4.2353501   9.8615656  61.8306465  15.9100399
  10.1577463  62.2943726  15.1267977  10.3851805  61.0295296  15.9264421
  16.7901535  40.9082680  39.2888298  16.5090008  41.7840538  39.5537529
  16.1722012  40.3177643  39.7197266  82.5520782  70.6582108  18.2552471
  82.4919739  70.4022827  17.3348560  83.1623993  71.3955841  18.2594471
  23.6186371  12.3301153  60.7555809  23.8817596  11.5770264  60.2265663
  22.9388504  12.7609978  60.2374458  32.6266098  57.7063408   5.5523834
  31.6699848  57.7388687   5.5585604  32.8483047  57.0522690   6.2151608
  82.2287827  16.5040359  57.7692680  81.9141006  15.8961725  58.4383774
  81.6071320  17.2314396  57.7950935  75.8967056  50.8951187  44.1250114
  76.7348404  50.6588745  44.5224342  75.5784531  51.6265488  44.6541214
  74.0142136  62.4109268  82.9180984  73.8603745  61.9047546  83.7158203
  73.3348694  62.1152267  82.3120575  11.2970552  51.4869308   4.8085389
  11.8634415  51.2227783   4.0835142  11.4691439  50.8416595   5.4942813
  86.5751801  10.4238729   4.0109076  86.2508850   9.8016825   3.3597989
  86.2219620  11.2685843   3.7317481   0.1540898  32.3731842  34.1514626
   0.6288601  31.7476540  34.6987610  -0.2864528  31.8320427  33.4962349
  51.1847191  45.7253036  33.6683388  50.8694038  46.5743217  33.9781418
  51.3534126  45.2262878  34.4675598  24.7746201   5.7440510  71.0671692
  24.7497959   5.7369242  72.0240250  24.3077812   6.5427341  70.8214111
  61.4641151  67.2918091  69.9433517  61.4318123  66.7502594  69.1547394
  60.7903175  67.9573746  69.8046188  59.8295746  18.9686737  76.8900833
  60.3754578  18.6811600  77.6219177  58.9745064  18.5730896  77.0592117
  24.1257305  21.7176266   9.9537468  24.0788441  22.5512810   9.4857149
  23.4400845  21.7775326  10.6189775  86.3787231  43.8073120   5.7940626
  86.6803360  42.9089241   5.9288292  85.6156311  43.8920593   6.3656759
  67.2824326  13.0890913  79.0548553  67.2780838  12.6730471  79.9169006
  68.1153946  13.5593987  79.0200882   3.1338272  46.8172455  55.5725098
   3.3241558  47.5709534  55.0140038   3.6600027  46.1074142  55.2043877
  78.9606171  27.7213116  32.8719406  79.3531876  27.0108833  32.3645859
  78.3800964  27.2802734  33.4921951  80.2378235  16.0458317   5.8673658
  80.1811981  16.8164730   6.4322906  80.2747726  16.4018383   4.9796009
  54.4858551  15.2799768  40.1577339  54.3769989  14.3915749  39.8184357
  53.8862381  15.8114920  39.6341095  20.6508904  61.4368668  22.0110397
  19.7953930  61.4293251  22.4403419  21.2597466  61.1347198  22.6850071
  83.8244019  68.3605652  65.5409241  83.1674805  68.9975662  65.2600098
  84.5874100  68.5461426  64.9935608  70.0015106  16.2569237  52.7069664
  69.3488235  16.4334736  52.0294266  69.9480972  15.3120680  52.8505859
  79.1439056  54.2411041  81.1184921  78.5435028  54.9235229  81.4185715
  79.9840088  54.6886368  81.0176392  83.3590164   8.8689156   7.4570637
  82.4263840   8.9442873   7.6589375  83.5667267   9.6728430   6.9808393
  41.7319107  23.9293118  75.7158051  42.6861992  23.8609581  75.6858902
  41.5600395  24.8704586  75.7463913  31.3041248  66.5217819  26.1796722
  31.3684063  65.5937805  26.4053059  31.5532227  66.9810867  26.9816818
  85.7958221  15.4112358   9.8632946  84.9822693  15.4928532   9.3655949
  86.2794113  14.7146997   9.4192152  39.4111710  68.4643631  42.2374420
  38.9149704  68.1520920  41.4808006  39.9150581  69.2066040  41.9036636
   5.3793430  62.5882416  45.7034569   5.9882665  61.9075127  45.9899025
   5.8793745  63.1072311  45.0734978  20.8023243   5.5303011  11.7921743
  20.8650494   6.4148712  12.1524982  21.6530952   5.3784294  11.3806458
  40.9775429  59.9199753  79.4079285  40.4844666  60.6662216  79.7488403
  40.8221626  59.9414597  78.4636688  14.8368750  40.9426956  43.7751160
  14.6159229  41.5448265  44.4856453  14.4295931  41.3279915  42.9992905
  44.5257912   2.2540805  58.3390427  44.8836060   1.8552840  59.1322403
  43.6676903   1.8439635  58.2309074  29.5543098  57.8273087  62.6732063
  29.6204414  58.3968811  63.4396553  28.6859074  57.4308815  62.7436142
  41.5716972   8.7132082  84.3994675  42.0348129   8.9343729  83.5914841
  40.7568703   9.2133484  84.3530731  17.6412315   1.8022383  86.0758820
  16.7314415   2.0963986  86.0313492  17.5909519   0.8518593  85.9734879
  70.2090836  28.6579285  20.0293636  70.2356491  29.5039101  20.4764004
  70.9382401  28.6912575  19.4101238  45.5801773   5.0347695  85.2122879
  44.9520035   5.0413232  84.4900818  46.2568512   4.4168959  84.9355545
  33.3446274  33.5847778   3.9048183  33.9828758  34.1432266   3.4609644
  32.7678452  33.2775612   3.2054102  10.8582926  25.8823795  20.6265659
  10.3334684  25.9224586  19.8270760  11.3384676  25.0572796  20.5567532
  78.2258301  63.2427063  86.6391373  77.3050919  63.0549965  86.8214417
  78.2287292  64.1480637  86.3284073  31.3978825  35.4226875  84.8121796
  31.8171921  35.8257637  85.5724030  31.1277599  36.1620598  84.2675705
  73.5562973  54.0062828  27.9493332  74.3809433  54.1410179  27.4823875
  73.7008667  53.2142906  28.4671001  84.0943985  32.1529388  34.5429611
  84.1464310  31.3141937  35.0012550  84.9635239  32.5391960  34.6509361
  70.2903748  61.7328224  50.5408401  70.0821304  61.7637253  49.6070786
  70.3683624  62.6511459  50.7993622   5.2405634  60.3325615  17.1882343
   4.2965584  60.4671249  17.2717762   5.3265209  59.6357689  16.5376015
  37.9177017   0.9176235  30.6344357  37.5715294   0.9952059  29.7454052
  38.8047752   1.2727816  30.5778980  41.4770279  52.8599319  83.7494049
  41.3178062  52.7337036  82.8140182  40.8186646  53.4998131  84.0202255
  70.6197662  39.8135757  30.8343639  71.0174332  39.0162888  31.1842499
  69.7736664  39.8737602  31.2779045   1.8479536  39.1291008  23.3166237
   1.5189919  40.0236969  23.2288189   1.1844413  38.5869598  22.8899269
  35.6318626  28.4494228  72.7481766  35.6760712  27.6590118  72.2100983
  35.8248940  29.1636868  72.1408920  22.1571865  27.0369625  12.0779161
  21.6608677  27.1722240  11.2706957  21.5025883  27.0939960  12.7739639
   0.7004595  10.2806520  28.0143967   1.2131170  10.8885612  27.4816113
   0.9109144  10.5176325  28.9176025  67.6282272  64.2348938  19.0830345
  66.7856750  64.1149063  18.6449299  67.4602127  63.9965591  19.9947357
  72.5674820  60.9068909  77.4723511  71.9015121  61.5690918  77.6572952
  73.3967590  61.3831558  77.5136261  20.7737637  34.1740570   5.7642412
  21.6736622  34.2136459   5.4404402  20.8143158  34.5723991   6.6336732
  84.3595886  71.0615158  88.1446609  83.4274750  71.2786865  88.1601105
  84.5247726  70.6543579  88.9950562  72.0362625  25.2460060  78.9758987
  71.3169861  25.8491592  78.7886200  71.6989136  24.3858948  78.7256241
  43.0438423  62.8433952  17.0555897  42.6642265  62.4892578  17.8597717
  43.7073097  63.4640312  17.3570042  69.2691879  20.4722347   6.6810093
  69.9463196  19.9147453   7.0643206  69.0057907  20.0146008   5.8826199
   5.3133101  56.3844643  70.3534775   5.0748253  57.3088951  70.2843018
   6.0477061  56.2806473  69.7483978  14.1000299  60.4843407  74.8999405
  14.0359631  59.9779778  75.7097092  14.7265997  59.9991989  74.3630219
  33.1082687  69.7321548  51.8461761  32.8695908  70.4562683  51.2674484
  33.7346535  70.1136246  52.4612846   0.2226384  33.8123703  49.8265839
   0.9404458  34.2703247  50.2639160   0.5414609  33.6618538  48.9366798
  45.5586395  33.6153946  58.1215591  46.4276810  33.4792252  58.4989929
  45.7249718  33.7963829  57.1964607  40.6916389  19.8193111  68.5321655
  39.9884186  19.7948265  69.1810989  40.6261864  20.6904011  68.1408157
   2.6007552  34.7878227  24.1900616   2.7771430  34.0636024  23.5895443
   1.8350562  34.5038719  24.6893711  55.8074188  31.9480629  76.5732956
  55.1050758  32.4140053  77.0270004  56.5743103  32.5114899  76.6765289
  43.7983360  56.1590881   6.8151793  44.7497482  56.0649071   6.7685199
  43.4732704  55.2635651   6.9079428   4.3035994  37.4493942  65.2338562
   4.4262242  36.6509666  65.7473755   5.0201645  38.0222511  65.5069809
  31.2886524  62.2751732  10.6029797  31.5995140  62.6492271  11.4274073
  30.3855972  62.5829964  10.5257378  17.4907017  52.1824913  21.4057121
  16.8991432  51.9440842  20.6919537  17.2042942  53.0559959  21.6725216
  64.5278702  14.4183540  80.0319214  64.2454987  13.5162592  80.1826630
  65.0824127  14.3688040  79.2532883  21.9385910  41.6569672  18.1827011
  22.2598763  40.7556000  18.1593533  20.9892254  41.5706787  18.2692509
  71.2285995   0.0054934  40.4697227  72.0374069   0.3171761  40.8758240
  71.5016022  -0.3217764  39.6126366  78.8605652  24.7614155  17.5892258
  79.1728363  24.5644913  18.4723663  79.2703247  24.0960655  17.0363789
  81.4177017  17.4127254  33.4264870  80.7856674  18.1229534  33.5375557
  82.2148209  17.8468189  33.1225090  72.7555847  67.7831345  37.9194183
  72.3780746  68.6421509  37.7301826  72.5850449  67.2676468  37.1311150
  78.8350830  45.0519104  52.8737183  78.9686050  45.7185364  53.5475235
  78.4887695  45.5354347  52.1237183  73.0787735  20.8624172  38.7547951
  72.3959198  20.2151356  38.5788231  73.5962601  20.4782734  39.4625168
  18.3738098  28.7485027  14.1322708  18.2138577  29.0435181  15.0287151
  17.7080307  28.0782299  13.9783144  29.5325108  57.0604095  22.0508518
  28.9684010  56.7178268  22.7441387  29.2475872  57.9670143  21.9363213
  51.5559006  17.9653759  74.0729904  51.4090157  18.7336445  74.6247330
  52.4935493  17.7897301  74.1516647  55.8386993  38.7162170  81.2322617
  55.1269951  39.2500610  80.8790970  55.5737648  38.5293770  82.1328964
  43.0623474  42.0416222  74.5126419  43.3230400  42.9621696  74.4832153
  43.5268097  41.6376114  73.7796478  30.0718956  61.7033615  31.9035645
  29.4147739  62.1318207  32.4520531  30.6334114  62.4170036  31.6008339
  28.7093143  67.4790649  37.6623230  29.3852825  68.0778961  37.9796562
  28.0484962  68.0499115  37.2702866   1.6176816  42.1060257  11.0661125
   2.0954247  42.1131935  11.8955355   1.5825438  41.1822281  10.8179255
  58.6935883  69.4338455  16.8301258  58.7819710  69.4097443  17.7829323
  57.9847298  70.0570908  16.6710281  83.2291031  43.6675720  29.9537220
  82.8454666  43.7995033  29.0867443  83.2888718  44.5475426  30.3256226
  34.9936333  44.7545395  74.3188934  35.7028351  44.1633263  74.5713501
  34.2162285  44.1968994  74.2887497  75.1605606  47.1617165  76.4682693
  75.6567841  46.3736992  76.2468643  74.4988861  46.8609810  77.0911484
  54.6280594  40.4095650  19.3560829  54.1227646  40.4070168  20.1690407
  54.1066055  40.9377174  18.7516212  35.4753571  68.0637054  34.4291229
  34.6642303  68.5503311  34.5757866  35.3179245  67.2091599  34.8306122
  27.6512184   2.6832769  84.9047012  28.1989880   2.6177900  84.1224594
  28.2637959   2.5913458  85.6344452  86.3382111  46.5130081  22.2077999
  85.5919266  47.0862503  22.0326443  86.8397446  46.5168953  21.3925228
  59.9859428  37.1748047  48.1075211  59.3964195  37.7426109  47.6112480
  59.7430878  36.2875595  47.8428421   6.1968203  50.6537437  71.1948471
   5.9316850  51.2735329  70.5152893   5.7728748  49.8318176  70.9479828
  84.2800522  60.6482773  39.0770760  83.6109085  59.9763451  39.2074203
  84.6248169  60.4761658  38.2008667  68.3792191  65.3521652  33.8078766
  67.5882187  65.3605042  34.3468437  68.0576782  65.4275818  32.9094543
  20.8841705  11.0719986  23.6025848  20.1404724  10.9587307  24.1944599
  20.5040054  11.4510298  22.8100929  62.3845558  56.9500237   5.7780461
  62.6693573  57.2527313   4.9157891  63.0968361  56.3872299   6.0816159
  15.1505985  52.3500900  27.4643707  14.8666697  53.0131226  26.8350811
  15.2753859  52.8330994  28.2812939  48.6675797  65.6323318  78.2971344
  47.9590912  66.0470963  78.7893219  49.3928261  66.2547150  78.3508224
   2.2945111   8.0777426  59.3042336   2.2656729   8.9019003  59.7901993
   3.1816239   8.0415277  58.9465294  68.2097702  42.3515129  57.6967049
  67.5024033  41.9021530  57.2341652  68.8021469  41.6501961  57.9677582
  26.8805981  48.3646584  33.5036697  26.7156563  48.7517395  32.6439095
  26.6433163  47.4430428  33.4009209   1.3283050  61.5863724  41.5432014
   0.7883911  61.4194336  42.3157654   1.1567156  62.5023041  41.3244476
   2.1778769  21.2692299  76.9169006   2.6209357  22.0917721  77.1251144
   2.6000671  20.6205330  77.4800949  78.9945145  27.1123867  61.7411156
  79.4190292  27.8883953  61.3752937  78.4376755  27.4518719  62.4417686
  15.2726812  65.1369553  54.8822289  15.6160707  64.6231842  54.1512337
  14.3340387  65.2046967  54.7073135  83.2345352   9.8303776  62.6219521
  82.8157043   9.1755552  62.0633659  83.7007217  10.4023848  62.0122757
  63.8357849  69.9351349  24.4970303  64.2959671  69.4487686  25.1810703
  64.5227737  70.1907425  23.8814430  86.1762085   8.8227777   8.6640272
  86.5947952   9.5756712   8.2466984  85.9550858   8.2389965   7.9383998
  61.9638329   4.2256322  75.4473343  61.9124603   3.9608886  74.5289078
  61.2436256   4.8462853  75.5583344  53.2394524  14.9101400  62.6015930
  54.1451797  14.7634277  62.8742943  52.7643166  14.1458979  62.9278030
  83.5229950  32.7445068  19.7911415  82.6099548  32.6130867  19.5355682
  83.9865723  32.8765373  18.9641609  43.1213951  35.3456039  73.7708130
  42.5505867  35.6523628  73.0663223  43.0053291  34.3954811  73.7765656
  10.0309868  37.1877365  66.9151382   9.3095903  37.6897697  67.2943268
   9.6966810  36.8896294  66.0692062  66.6313629  54.5074844  25.2154846
  67.4791946  54.3594437  25.6344070  66.7577286  55.2989311  24.6921520
  78.7308884   5.5444751  51.7978783  78.7149124   5.9699249  52.6551819
  77.8087769   5.4586773  51.5558510  13.9709806  28.3919735   8.0882320
  14.5869846  29.0798435   8.3404293  14.3105478  27.6010551   8.5070086
   7.1460271  60.9261475  60.9319611   7.3267322  60.3554726  61.6788902
   6.5177245  60.4354782  60.4021378  69.2414017  45.3316574  42.4710617
  69.7534866  45.9799843  41.9876671  69.8388824  45.0091972  43.1457977
  21.0772476  69.0822830  18.0275898  20.9329224  68.3034286  17.4902020
  21.5787125  68.7653961  18.7788181  81.1823044  23.1079445  72.3211060
  80.6748962  23.8716450  72.0462799  82.0915756  23.4067020  72.3067245
  65.1756210   3.2966435  32.5411263  65.6370926   3.4862242  33.3580322
  65.6590118   2.5650983  32.1571846  35.8618889  15.8901558  85.6515656
  35.0211716  15.7389526  86.0834961  36.2451744  15.0176916  85.5614014
  67.9504471  13.5486050  17.7587776  67.9053879  14.2020731  18.4567604
  67.0487061  13.4674120  17.4481220  24.0419846  17.1657467   9.0141258
  23.3808842  16.5230179   8.7570677  24.8761959  16.7558975   8.7853308
  71.3381271  43.4163055  75.9800949  70.7122955  43.5297127  75.2647629
  70.9045105  43.8022919  76.7411575  52.8478508  45.3736191   9.6915817
  53.4630966  45.2573051  10.4155836  51.9866142  45.2293320  10.0836077
   6.0586042  30.6038837  43.3375854   5.6893539  29.7211876  43.3104706
   6.7978430  30.5730286  42.7302933   0.4052728  41.2019119  15.4872322
  -0.0333814  42.0074501  15.7609472   1.2359829  41.2080917  15.9627476
   7.6902590  65.8851852  49.0745049   8.0844221  65.1384811  48.6236191
   8.0459127  66.6515961  48.6246567  48.3464470   6.7842541  69.8027191
  48.9596519   6.5147424  69.1189270  48.6373291   6.3141503  70.5841446
  65.5333710  67.6543045   8.2728071  64.7102127  67.4153442   7.8467398
  65.8681870  66.8301620   8.6262455  58.3240509  48.3041153  35.3532257
  58.6586914  47.6112061  35.9225426  59.0256958  48.9547997  35.3300514
  33.8650017  26.4385262  11.8928938  34.7819138  26.6082268  12.1090012
  33.4294853  27.2817192  12.0177355  74.1320724  22.1059551  27.0217018
  74.9922409  22.0385246  26.6072273  74.3232346  22.2298107  27.9514065
   4.4377809  22.9898357   5.3790736   4.2615852  22.2017555   4.8651505
   5.3877840  22.9919586   5.4962144  49.5880852  39.8302612  39.4633636
  49.1532173  39.2836266  40.1178207  49.7086334  39.2519951  38.7101631
  69.8438797  56.5476532  74.2600403  70.6299286  56.7321205  73.7459106
  69.2867355  57.3149719  74.1294556  35.5517006  50.0881729  20.6029148
  35.3158073  49.4850769  19.8980274  35.9159584  50.8508911  20.1536865
  37.7804337  57.7109108  13.3829384  37.8128014  57.6295967  14.3361282
  37.1051750  57.0888176  13.1122780  27.3090000  68.5098953   7.8098955
  27.2492504  68.3537674   6.8674054  27.7382336  67.7272720   8.1555758
  29.6220646  31.9250278  71.0319824  29.9217834  31.0680027  70.7288132
  28.7497997  31.7607307  71.3903046  15.6885166  52.0812263  46.8113670
  15.0773487  51.8791618  47.5197983  15.1736975  51.9705124  46.0120316
  22.1462612  44.2726898  64.0602951  21.5640793  43.5156403  63.9957314
  21.8738079  44.7165489  64.8634109  84.8911133  11.0469141  27.1505737
  85.6664429  10.5275402  27.3635254  84.7074280  11.5415726  27.9491997
   3.5673800  51.6319427  66.5628357   3.2998762  52.5509949  66.5594482
   4.5230942  51.6608276  66.6076431  83.5835800  31.3282318  24.3533478
  84.0537262  31.0429497  25.1368027  84.0186386  30.8715553  23.6333485
  77.2343216  53.1691170  29.6371098  77.2009659  53.7024574  28.8429642
  78.1684113  53.0775452  29.8250618  58.1313972  11.8198624  54.6636963
  58.5728760  11.9080963  55.5084114  58.2478180  12.6714849  54.2424889
  64.4859009  23.1487503  22.0592995  63.8659096  23.6612625  22.5781193
  64.8077850  22.4794788  22.6632004   5.4414454   2.9115365  69.1455002
   5.2398496   2.5936084  70.0255661   5.1501112   3.8233213  69.1476517
  51.4523125  48.2596283  25.7898674  51.2438316  48.7628517  25.0027637
  51.6172371  47.3725471  25.4703102   3.7619319  69.4713058  72.3537979
   3.0599453  69.9363022  71.8985825   4.4724970  70.1098328  72.4139175
  20.3917732  38.3956528  42.5783424  20.5110283  39.3093414  42.8375320
  20.5373821  38.3941002  41.6322823  11.3057098  11.6132755   2.8145368
  11.5176697  10.7998581   2.3566542  12.1318960  11.8856134   3.2138863
   0.4057340  43.1604233  22.8103542  -0.1650510  43.7223320  23.3344669
  -0.0869594  43.0032310  22.0048866  16.4533997  46.5516586  22.6376076
  15.6864729  47.0658951  22.3853874  17.1264553  46.7985306  22.0033493
  67.3447266   5.2675071  62.1712265  66.4466324   5.3859515  62.4804764
  67.8758926   5.7896352  62.7724571  20.8128834  30.0245285   9.9764414
  20.5667248  30.4931717  10.7739449  21.2779388  30.6749954   9.4502754
   5.2707973  40.8099022  80.6834946   5.5053740  40.0759926  81.2514572
   5.7253432  41.5616875  81.0635452  35.8045235  59.5762596  42.0354233
  35.1635475  58.9146233  42.2954674  36.1653137  59.8979568  42.8616028
  48.7671585  63.0341949  71.7104874  48.0655365  62.8877296  72.3449173
  49.5709572  62.9934616  72.2286453  80.2369843  11.2658386  35.4357910
  81.0545044  10.7935247  35.5933228  80.5093842  12.1694536  35.2760696
  69.4741135  56.3542900   3.7215974  69.9667740  56.7348900   4.4486885
  68.8922348  55.7162323   4.1345496  70.7557526  12.5393162  74.8632050
  70.2873306  12.9856339  75.5686188  71.2066116  13.2410507  74.3936005
  34.6732368  29.3250790  10.6433783  34.5597267  29.3297787  11.5938120
  33.9872513  29.9076252  10.3173523  35.5340004  51.8026810  22.7600155
  36.2593727  52.3824081  22.5276814  35.5617676  51.1085587  22.1014900
  74.4835815  41.4189262  79.8465652  75.3109665  41.7020035  79.4573059
  73.9395752  41.1710930  79.0989914  56.5242691  29.7544212  78.4817810
  57.0535240  30.4161758  78.9269791  56.4764786  30.0564289  77.5747299
   5.2078018  54.4928360  30.3613033   5.7301726  53.7225800  30.5850601
   4.4438772  54.1398888  29.9051456  39.7577095  52.9888878  86.9959869
  39.6581917  52.0490570  86.8441772  40.6814499  53.1640244  86.8163681
   6.1626630  42.2047043  55.5386734   6.2401237  41.2997627  55.8408546
   5.9006834  42.1292305  54.6211205  80.1834183  59.2124939  32.1945953
  79.6851425  59.2346077  31.3776131  81.0876999  59.0612335  31.9195938
  37.6569977  33.7484474  21.8756905  38.4118843  33.4904938  22.4046898
  36.9505920  33.1734467  22.1699600  68.9125595  33.8225937  61.4749374
  68.3189240  33.8839684  62.2233124  69.7208939  33.4620018  61.8393631
  19.2063618  54.4691124  68.9495773  18.3546181  54.4927635  68.5134506
  19.0562229  53.9511070  69.7403717  34.6960869  61.9202423  28.0967865
  34.0469131  61.2191086  28.0400906  35.5377579  61.4763184  27.9930611
  66.7724152  16.5236397  10.9336157  66.1964874  17.2366447  11.2095976
  66.2187424  15.7433834  10.9633055  39.3323212  62.8770142  46.8191490
  39.0440941  62.5939178  45.9513855  39.8668823  62.1517639  47.1423950
  47.8132057  67.7940750  86.6450043  46.8879700  67.8065796  86.4000397
  48.0721855  66.8768921  86.5559082  57.4904099  27.5686417  24.8249073
  57.5443306  26.6730881  25.1585350  58.2742233  27.6707172  24.2850494
  54.7166939  21.4356365  57.5801773  54.2309608  22.1197662  58.0408936
  54.4969215  20.6297302  58.0475616   3.4593801  48.6135521   3.8664541
   4.0935512  49.3215408   3.9796264   2.9601855  48.8612785   3.0882082
  68.1266556  15.0614233  81.5959854  68.5975418  15.4923840  82.3092651
  67.7920074  14.2529116  81.9839859  76.9386826  48.1947784   5.1931500
  76.4637756  47.5986214   5.7721920  76.3635635  48.3015709   4.4354782
  26.1168385  60.0711060  61.7356110  25.5583057  60.3602600  61.0140419
  25.8067322  59.1888580  61.9398270   4.9843984  10.9573421  53.7490616
   5.5031705  10.2242632  54.0802765   4.1073895  10.5939960  53.6263199
  51.9996071  46.7746277  62.6037216  51.0929260  47.0180702  62.7905273
  52.2677460  46.2517357  63.3593102  52.1687393  56.5067635  79.3239517
  52.9904823  56.0375328  79.4681473  52.4342918  57.3424225  78.9400406
   0.8446001  22.6409512  16.9576740   0.4743329  22.1918049  17.7175446
   1.7408530  22.8532944  17.2182007  76.9994812  25.4973793  25.8535900
  77.7856674  25.1765785  26.2954350  76.3455963  25.5674992  26.5491104
  75.8761978  38.3166618  44.6035919  75.6654510  38.3392487  45.5370331
  76.0686417  37.3964233  44.4237022  84.7639084  57.7124290   5.1514659
  85.4031982  57.0724144   4.8385386  84.2081451  57.8868790   4.3919115
  69.4575195  19.2297935   4.0138659  69.0569229  19.8805199   3.4374001
  70.3118515  19.0541039   3.6195545   1.2381203  50.5779762  24.6047668
   1.5436176  50.7027702  25.5032825   0.8064592  49.7236977  24.6150284
  64.5285645  54.9401779  22.0943623  64.0904541  55.2157440  22.8995667
  64.8237457  54.0478554  22.2756252  45.5110855   6.3469548  10.6271381
  45.1718063   5.7596989   9.9516735  45.9014626   5.7634354  11.2777863
  33.6337776  62.8361664  58.3931122  32.7568207  62.7651176  58.7701149
  33.6456642  62.1865196  57.6902275  83.4956055  14.5968418  71.5735397
  83.8301315  13.7417374  71.8439484  83.7773209  15.1942434  72.2663422
   7.1250858  22.5154572  11.7477789   7.4605269  21.6473255  11.5240364
   6.1744194  22.4310417  11.6747112   0.3467799  11.9698181  46.3268738
   0.5128917  11.1259975  45.9066277   0.8585648  12.5967941  45.8157883
   4.8755484  40.7165833  10.4234552   4.3578086  40.5820084  11.2172232
   4.2616663  41.1048355   9.8000460  72.0753250  16.3156452  60.9159203
  71.4374695  15.6319246  61.1206360  72.3364716  16.6627235  61.7688980
  49.8710289  65.6525421  71.2999725  49.7591972  64.7584076  71.6228485
  49.5982132  66.2070312  72.0309601  53.0751801  71.8049316  40.3847504
  53.2926025  70.9712830  40.8018684  52.7805252  71.5636902  39.5065651
   4.4049845  70.2335281  85.9657669   4.6769128  70.9692459  85.4171219
   3.5374298  69.9975891  85.6372604  44.8939552  12.1571531  19.6846008
  45.7242661  11.7086926  19.8449116  44.7718697  12.7165375  20.4516830
  67.4957504  59.6795502  63.3027763  67.9679565  59.2168503  63.9949913
  68.1364365  59.7744904  62.5979805  75.6123810  22.2004223  10.4765825
  75.7554779  21.2567081  10.4047680  74.8879700  22.3791428   9.8769770
  10.3288403  29.2578564  80.1268311  10.2814817  29.2071800  81.0815125
  11.2539606  29.4187832  79.9411240  34.0533676  49.9567719  15.1953926
  34.9753113  49.8025780  15.4014883  33.8359871  50.7649040  15.6600418
  20.7479134  41.2270927  42.9504204  21.6533585  40.9473076  42.8157921
  20.7809696  42.1818962  42.8913727  62.6860847  60.7246933  18.6422958
  63.5902176  60.4128342  18.6812916  62.6473885  61.2474976  17.8414135
  61.4881058  42.0248108  66.8521042  61.1742706  42.6017342  67.5484467
  62.3817177  41.8003731  67.1115570  40.6236801  32.0339775   1.5122845
  40.5046082  32.6636620   0.8012635  40.0741577  32.3670578   2.2217288
  78.8177719   1.2646050  22.7875004  79.5620575   0.6641583  22.8291874
  78.6671524   1.5228522  23.6968155  10.2951612  42.8656349  78.0390930
  10.6464510  41.9776230  78.1043930  10.0793209  42.9702797  77.1124344
  38.6400948  69.3574905  29.7400684  39.4337540  69.8412704  29.9687366
  38.0410461  69.5221634  30.4682560  64.6820526  67.2464523  86.3534012
  65.1300583  66.4915466  85.9717789  63.7613907  66.9866943  86.3871765
  29.5811749  57.1716652  14.4325933  29.0011997  56.4630203  14.7113113
  30.1293488  57.3473358  15.1973667  80.5657120  60.6795921  56.9236832
  80.1625824  61.5472565  56.8941612  81.2172165  60.7418289  57.6221809
  30.7988052   7.2173147  82.7037201  30.3031597   7.9410367  83.0868530
  31.6151276   7.1952381  83.2030792  27.3465729  11.8090181  74.8355865
  27.3590679  12.2195292  73.9709702  26.6569614  11.1477938  74.7768326
  47.5893593  40.3232574  76.5335693  47.4543991  40.2484779  75.5888901
  46.7799721  40.7157326  76.8608170   0.2482227  65.6202011  88.8615189
  -0.6249812  65.8680115  89.1653900   0.8425409  65.9856720  89.5168381
  80.9926147  18.1606197   7.3633881  80.6820221  19.0331440   7.6051774
  81.7405014  18.0043087   7.9399848  82.6212769  64.5557022  33.5351486
  81.6720123  64.5728455  33.6569710  82.9694138  64.3299103  34.3977280
  58.5054436  53.1387253  18.3220234  58.2927513  53.6816711  17.5629425
  59.2764168  53.5559273  18.7064381  55.3888168  42.8248863  14.7044678
  56.0396118  42.3946686  15.2590904  55.9055557  43.3231850  14.0712919
  74.9640198  65.7913818  63.5676003  75.9193802  65.7444458  63.6038055
  74.7820206  66.4694901  62.9169960  63.1625633   7.9487872  60.2177849
  63.3667374   7.9187007  61.1524734  63.1945000   7.0345306  59.9361000
  52.4698677  55.0104218   5.0244389  51.9085693  54.8720131   4.2615371
  51.9296379  54.7484856   5.7699404   0.6551582   1.6925523  63.3244858
   0.8593532   0.8916303  63.8072510   1.1402099   1.6077012  62.5036583
  71.4493713  35.6913834  48.1807213  71.0130234  34.9127007  48.5263786
  72.3823318  35.5198174  48.3087234  69.3424301  26.5806770  61.8940353
  69.4382248  25.6284294  61.9108276  70.1782990  26.8995190  61.5536041
  78.5433121  50.0090065  80.5713272  77.9636612  49.8193741  79.8335724
  78.0006714  49.8624229  81.3461075  52.0083008  61.8630638  26.5122280
  51.9848862  61.9661064  27.4635773  52.0004311  60.9159851  26.3736286
  10.1045046  50.4282379  13.4866371   9.3416901  50.9516182  13.7324352
  10.5632725  50.2712517  14.3119373  36.1179085  43.8501396  89.2433624
  36.4055519  43.2297440  88.5735779  36.9040871  44.3520622  89.4583664
  60.3759232   3.2916541  39.2519608  61.0868111   3.5416653  39.8421898
  60.7566490   3.3592618  38.3763428  74.2522507   1.4753721   2.1792524
  74.9056015   2.1629355   2.3081660  74.7456512   0.7419348   1.8120233
  39.4975510  53.2051506  66.0980835  39.0079155  52.6960526  66.7440720
  39.4139404  54.1115646  66.3941498  50.5668373  21.0190411  10.5182285
  51.0456276  20.2210522  10.7422924  50.8965492  21.6762486  11.1310902
  74.1821823  22.5657196  32.3152390  73.6224213  21.7905083  32.2711525
  73.5756302  23.2909260  32.4649124  38.4310799  30.3502083  65.7115860
  38.8518677  30.1884403  64.8671875  37.6239281  30.8154049  65.4917450
  10.6862373  22.7586060  11.7324247   9.8208818  22.6229248  11.3464432
  10.5210476  23.2938976  12.5085735   6.1196609  10.0607834  21.5329971
   5.5236611  10.1814594  22.2722225   5.6672721   9.4426031  20.9590378
  33.1779938  39.6511040   7.5036287  33.2196655  40.5049629   7.0730257
  32.2937469  39.6093941   7.8677683  73.3669586  50.8456802  79.6038055
  74.1340179  50.9785461  80.1607666  73.2160187  49.9007072  79.6254883
  12.9970617  18.5383129  12.0778828  12.8886719  18.4657078  11.1296158
  13.8548145  18.1504765  12.2513027  21.2518673  46.8410912  56.5257072
  20.9544163  45.9499283  56.7089653  22.1647625  46.8527870  56.8133087
  34.4630508  26.8630466  74.6471710  34.0644684  26.4004631  73.9100266
  35.0095520  27.5355835  74.2406464  62.8660355  39.0410881  80.3023300
  63.6390457  38.8221741  80.8226776  62.2004204  38.4149170  80.5871124
  16.3362083  49.2416611  20.2532578  16.5010262  50.0695839  19.8020248
  16.5499954  49.4212036  21.1688423  14.5191469  54.3122444   5.9712782
  14.9611692  55.1350632   6.1806111  15.1418877  53.8395805   5.4189968
  26.4203339  48.8809814  36.8199959  26.5482349  48.3011398  36.0692215
  26.8892040  49.6821442  36.5864792  56.1713829  37.6140137  75.0489197
  56.0429001  36.7524796  75.4457626  56.4662018  38.1688004  75.7710876
  51.7479095  31.9714470  37.5216713  51.5687981  31.1057835  37.1545525
  50.9577408  32.1903076  38.0155983  15.3081036  40.8680573  58.3391228
  15.9039612  41.4129753  57.8250732  14.7812166  40.4074364  57.6860924
  15.4857836   8.0641937  76.9807968  14.9713106   7.4045525  76.5155792
  15.6179266   8.7615910  76.3386078  62.3259430  66.3472443  72.5187225
  63.1264992  66.8191910  72.7480927  62.0914001  66.6802979  71.6525269
  34.2117271  31.8980122   8.6537714  34.4120674  32.3719139   7.8466086
  34.5433235  32.4628906   9.3517599  74.2007446  10.8272066   1.1819348
  74.3701248  11.4837198   0.5062627  74.8752594  10.1621656   1.0441471
  19.5215206  36.4188156  47.0109673  20.3033390  36.8018646  47.4087944
  19.4130726  36.8960266  46.1883240  15.1228886  68.6181946  49.6502037
  15.1743040  68.8556976  50.5760460  14.1906443  68.6733932  49.4401932
  50.3013191  60.4589996  29.7484169  50.2291718  59.9716606  30.5691071
  51.2048073  60.7748909  29.7360706  61.4345436  42.6763802  75.3555450
  62.1747513  43.1961174  75.0421753  61.8276863  42.0267448  75.9383316
   0.9663299  48.1605568  19.0343380   1.3747488  47.9195404  19.8658047
   0.3016086  47.4871178  18.8899136  63.4584961  54.5519180  31.0677509
  63.5471001  54.5510216  30.1146603  63.4761543  55.4780350  31.3090630
  42.8119698  36.2038651  60.4268608  42.0871048  35.6598434  60.1189003
  43.4700928  35.5776558  60.7284737  38.3413239  54.5586052  46.2438202
  37.7169914  54.7043877  45.5330505  38.1403999  55.2421494  46.8830605
  65.6141205  20.8253670  20.1077862  64.8146057  21.1804142  20.4963112
  65.5147858  19.8761330  20.1807289  36.6267128  35.2829094  15.1375351
  35.7376175  34.9283829  15.1303196  37.1836014  34.5290337  15.3318977
  73.9770889  52.7580185  14.5961790  74.5800247  52.3380356  13.9827356
  74.4509201  53.5291748  14.9076719  19.6326618  52.2619133  65.6569138
  19.6976337  52.1836739  64.7051315  19.4973507  53.1967697  65.8116989
  22.2334080  51.1003761  31.6953545  22.8408298  50.9491348  30.9712029
  21.4866924  51.5439186  31.2929630  14.4394245   9.4467850  83.4007645
  13.9588127   8.7174072  83.0092926  14.0586205  10.2276773  82.9989929
  56.8865967  63.1197548  33.1237144  56.1736031  62.5671768  32.8035088
  56.5652504  63.4671288  33.9557610  85.4257889   1.5806100  75.1796112
  85.6265945   0.9808612  75.8980942  85.0834198   1.0170480  74.4857788
  86.5584869  68.6405563  64.8148193  87.1211395  67.8828278  64.9745026
  86.8287354  69.2822189  65.4716721   5.3804684  25.2316990  75.4049606
   6.2942157  25.5153847  75.4335938   4.9631133  25.8303661  74.7855682
   5.5196910  32.4729156  52.6849098   5.5609846  31.6066074  53.0899315
   6.0602903  33.0266876  53.2482224  27.7817879  51.5626526  70.7572021
  28.6791744  51.3424072  71.0070419  27.3767147  50.7200699  70.5517654
  83.8959427  56.5035400  25.3331909  83.2721024  56.5097656  24.6072311
  83.7383957  57.3290100  25.7914581  20.0707340  69.9396286  57.2877350
  20.5113792  69.6506500  56.4886360  19.1613846  70.0783539  57.0230255
  46.1342468  42.7001534  88.4044952  45.2392120  42.8807335  88.1172104
  46.6805878  43.2585983  87.8514252   9.1940832  69.5812607  56.7111053
   8.8322248  68.8631821  57.2303848  10.0320034  69.7803497  57.1288147
  32.4630394  40.8861771  57.1092453  32.7541962  40.8238297  56.1995354
  33.1167755  41.4428215  57.5323410  43.3922386  67.7774048  57.1469498
  43.6110497  68.7087326  57.1784744  43.1649818  67.6156235  56.2313042
  25.2068768  54.1060600  87.8538132  25.0366364  53.5766563  87.0747223
  25.4435787  54.9677734  87.5108109  24.6189137  58.6630211  68.1169357
  24.3524704  58.7534943  67.2020264  24.7579346  59.5616455  68.4159012
  59.9615707  28.1666813  26.7407875  59.2505836  28.1800976  27.3815250
  59.8987236  27.3037739  26.3313103   4.1924391  58.8665619  84.9754486
   4.1828318  59.6582832  85.5133286   5.1097536  58.7588730  84.7241135
  46.7533569  10.6145067  89.0062485  46.9416428  11.2247057  88.2932053
  47.1812820   9.7996235  88.7434235  69.0680313  47.5064545   2.0395176
  70.0210876  47.4357529   1.9854990  68.8816528  47.5194817   2.9783072
   5.6111183  30.4339733  84.2177734   5.0705352  30.2636719  84.9891357
   5.1493211  31.1302204  83.7506409   9.2888641  57.3168030   4.6461916
   8.9875498  56.6547356   4.0240107   9.1206732  58.1511688   4.2082686
  57.5057983  34.8649826  50.0390739  57.6425018  34.0209198  50.4693069
  58.2140732  35.4187546  50.3675842  50.2951622   3.4184091  15.0738010
  51.2072449   3.2494788  15.3100195  49.9323082   2.5529280  14.8853559
  18.8267384  28.9881706  64.2036591  18.9957428  28.0515423  64.1016922
  19.5698776  29.3115883  64.7129440  23.6927452  63.1851616  53.5493355
  24.5893898  63.5018044  53.6588669  23.7646675  62.4799652  52.9060974
  14.7537365  44.8835068   4.7375984  15.3710947  44.6015434   4.0626206
  13.8986788  44.6007729   4.4133000  86.0350952  63.4508591  67.3033447
  85.1881943  63.0208626  67.1846237  86.4084549  63.4917679  66.4229126
  71.6872940   6.2312036  78.1486282  71.7140961   5.9341540  77.2390823
  70.9315720   5.7806249  78.5255737  78.1379318   8.6531858  18.0836449
  77.2125702   8.6914072  17.8418484  78.1427460   8.2432280  18.9485970
  71.9770050   7.2457547  82.3009644  71.4042969   7.4339395  81.5574341
  72.4523926   8.0630836  82.4500046  72.2559128  49.1173286  44.9742546
  71.7051849  48.7570457  45.6693268  71.8100052  49.9213371  44.7078552
  25.6031570  22.0321007  12.6938868  25.2554512  21.3865795  12.0785522
  24.8307266  22.3746185  13.1436214  52.7654648  48.6749191  34.7123375
  53.7081985  48.7385941  34.5592651  52.5840149  47.7351379  34.7016106
  51.0835228   1.7308697  44.4313240  51.3464737   0.8586861  44.1374092
  51.3730431   1.7739034  45.3426743  85.1411057  50.0484962  60.4127350
  85.0636978  49.5348091  59.6087646  84.5116119  50.7612038  60.3031311
  13.3625154  56.4559708  58.9097900  13.1375809  55.6531067  58.4396362
  13.7739859  57.0131340  58.2491112  65.9033966  40.8716812   4.8382487
  64.9770660  40.7303200   4.6428900  66.2050476  41.4661179   4.1513109
  69.6063080  65.2922516  25.7345486  69.6977997  64.3811188  26.0133018
  70.4322128  65.7043686  25.9880886  56.1727943  24.2777786  12.9737940
  55.7240753  24.3019142  13.8189554  55.5952454  24.7600574  12.3821211
   8.3834333  50.8122444  43.2180061   8.3304310  51.7609825  43.3334351
   8.1218958  50.4528465  44.0657463  75.5596008  28.5152550  63.5190697
  74.8569717  27.8653851  63.5046158  75.4102402  29.0116272  64.3237686
  85.0781708  18.1435738  51.0167656  85.2049789  18.4283085  50.1117325
  85.4317245  18.8593864  51.5448227  79.1310654  58.9842377  72.0797806
  79.4561920  59.6611404  71.4862137  78.3447113  59.3656120  72.4702148
  66.6881104  33.1382065   8.6649942  66.3163605  33.5814514   7.9023895
  66.0675049  33.3162766   9.3716545  46.6842079  44.1013641   1.8670230
  46.1098061  43.7152710   1.2057924  46.4573860  45.0312996   1.8677869
  86.6645050  21.1636906  18.9335575  85.7775955  21.3764915  19.2239761
  87.1750259  21.1113644  19.7415581  11.2779436  66.7214279  20.5485382
  11.2598028  66.6022339  21.4981136  12.1171389  66.3499680  20.2765083
  81.0319977  45.9840469  25.4258900  80.4987411  46.7764282  25.4891186
  80.4868546  45.3667679  24.9380245  16.8635635  51.3248215  68.6632843
  17.4057522  50.5361023  68.6495667  17.3926849  51.9710999  69.1308060
  30.3098869  69.3866730  51.3182602  30.3521175  68.9958725  50.4454918
  31.0804482  69.0444870  51.7714462  35.2332191  60.4753609  51.4053307
  35.2535744  59.9084587  52.1763306  35.1181564  61.3571892  51.7594070
  69.6031418  30.4645252  59.9027481  69.1343460  30.3295479  59.0791931
  69.9414215  31.3579063  59.8421478  20.9603138  36.7049561  79.1539612
  20.2594490  36.3221207  79.6816483  21.7387543  36.1986008  79.3860474
  29.8070202  35.1210709   0.7341028  29.3621159  34.3044014   0.5075178
  29.3413353  35.4411316   1.5067153  19.0529938  13.6579180  83.2922668
  19.5821953  14.4228878  83.0664368  18.4104347  13.5941420  82.5856628
  14.0828991  44.7423248  74.6520691  13.4312124  45.0525017  75.2808151
  13.5698833  44.4609108  73.8945312   0.7943416  55.6370163  39.8446388
   0.3341108  54.9837036  40.3715210   0.8687369  56.3989372  40.4192467
  43.3971519  70.3946152  14.0160341  43.7972794  70.8025284  13.2480917
  42.9844780  71.1199722  14.4848480  72.4019241  21.3089828  49.2246170
  72.2780991  21.4989662  50.1545677  71.9508514  22.0218945  48.7723808
  13.7830143  57.0803757  52.4384422  13.0162802  57.5674057  52.1365280
  14.5288963  57.6141624  52.1646461   5.0052600  39.5758247  43.1933365
   5.3494058  40.2424240  42.5988235   5.5910940  38.8275146  43.0790405
  84.7405396  54.5108185  15.9632912  85.4491196  54.0178680  16.3769855
  84.4150085  53.9305000  15.2751827  60.0782814  55.3650856  39.7762680
  59.1815033  55.0404282  39.6949005  59.9847221  56.3161736  39.8302078
  56.7689896   6.6562638  38.8063278  57.0698280   7.2941732  39.4534760
  57.5296745   6.0966411  38.6500854  83.4978561  32.9231071  63.2082520
  83.5775681  32.3175125  63.9452286  82.6318970  33.3169060  63.3144264
  30.9991455   1.0418977  43.6135101  30.0564041   0.9693456  43.4644966
  31.0914955   1.7899028  44.2035866  37.4408569  22.4085121  65.5679169
  36.7329597  22.9808750  65.2720947  38.1598930  22.5834656  64.9607849
   5.4246302  41.0886993  26.2351627   5.9592323  40.7837563  26.9682693
   4.6783919  40.4894943  26.2173748  75.5458374  37.0601921   4.0896530
  76.0073395  37.3808289   3.3147721  74.6412354  36.9445229   3.7988939
  35.7406769   1.3319551  61.1459274  35.6996689   0.3764226  61.1070976
  36.0325470   1.5231373  62.0372696  36.6705437  21.2841454   4.4899106
  36.2187119  20.8385754   5.2065306  36.3445282  22.1834850   4.5236187
  54.9826965   0.7695418  27.1791668  55.5820885   1.4577488  26.8904934
  55.4916344   0.2564144  27.8067894  80.5760880  32.1843071   8.1712132
  80.7501144  31.2436466   8.2045288  81.1448898  32.5571136   8.8447981
  17.4184628  41.0735817  60.1608925  18.1029491  40.9877625  59.4973068
  16.6076145  40.8649216  59.6969795  44.8405762  59.3409576  76.2637787
  44.2288704  59.2668800  75.5312805  44.2907486  59.5715981  77.0125961
   9.8169889  14.7578497  75.0070953  10.0840483  13.9968138  74.4916000
   9.1527176  14.4193544  75.6074295  22.7687016  10.9714193  35.1469955
  23.5165253  10.6785698  34.6261940  22.6396275  10.2765837  35.7925758
  39.3172874  43.5666618  37.3901978  39.4850883  44.3868942  37.8541985
  38.5406609  43.2046700  37.8168640  22.9568539  70.7073593  54.7112160
  23.5192223  70.1634521  54.1597328  22.2911701  70.1046219  55.0425758
  82.0434723  65.6476746  75.5695572  82.6583481  65.8041382  76.2862701
  81.9875336  64.6942368  75.5058136  54.1439972  62.4154587  73.5951462
  54.3418732  62.9267769  74.3797684  54.5453072  61.5618477  73.7580261
  40.6256142  48.0709229  34.5346909  40.0323448  47.5323868  35.0583725
  40.4887962  47.7728844  33.6354179  22.6098042  21.9793739  58.0749893
  22.3414249  22.6623058  58.6896477  22.3801193  22.3284836  57.2138252
  77.8956604  53.9179916  42.3590469  77.1980133  53.5165215  42.8770638
  77.5068588  54.7228661  42.0166359   8.9361238  40.3450623  69.6685028
   8.9022331  41.2954750  69.5598755   9.7444925  40.1884537  70.1566086
   3.9559708   2.6357040  43.9875183   4.3209333   2.0505116  43.3237534
   3.0087974   2.5803871  43.8608932  49.4355011  50.6043167  79.6546326
  48.7873535  50.6287422  78.9506912  50.1707268  51.1186218  79.3212128
  69.7930832  61.3965721  37.4244881  70.1138382  62.1269646  37.9535179
  69.6583481  61.7720795  36.5543900  53.9529114  25.5261097  19.2245846
  53.9265518  25.5282707  20.1814194  53.0372200  25.4382896  18.9599514
  77.6234207   0.4680392  55.1037598  78.0847321   1.1567925  54.6251717
  77.1192322   0.0070135  54.4333305  61.2001839  62.0035095  80.5253067
  61.7588043  61.3853188  80.9964905  60.6133842  62.3546257  81.1950912
  12.9342222  57.9658890  10.1645002  12.9481945  57.0092278  10.1934090
  12.0153599  58.1962662  10.3017941  77.3705063  32.7703705  69.6938095
  77.4560928  31.8695698  70.0059967  76.8332138  33.2036629  70.3569870
  35.9794846  41.4034119  21.2366962  36.0902367  42.3532372  21.1942863
  36.5883865  41.0618057  20.5818901  64.8439713  13.5772181  19.4674664
  65.4130325  13.0963402  20.0684319  63.9786377  13.5390987  19.8748684
   7.2033520  69.1855850  86.6205139   7.6875100  69.8913193  87.0491867
   6.3719578  69.5857849  86.3658447  13.9407854   6.0628457  74.9605103
  13.3203754   6.2222438  74.2492294  13.3984289   5.7562137  75.6871872
  39.7566109  61.0418930   8.4237528  39.7629814  60.1923637   8.8647642
  39.0041466  61.5002899   8.7977924  35.6583557  37.9999275  26.1948605
  35.7542076  38.9270134  25.9767838  34.9686432  37.9800034  26.8582859
  48.3716927  19.4775696  43.3188171  48.1737251  20.3640518  43.6207962
  48.8413124  19.6046371  42.4944763  20.5437069  34.9786148  67.7553482
  21.4706326  35.1899300  67.8666382  20.3526688  35.2103539  66.8464813
  70.4701004  21.8467045  79.9635239  70.0297012  22.4109097  79.3279572
  69.8109360  21.6866150  80.6388779  66.4125290  48.8712883  20.7565899
  67.0173187  48.8546677  21.4983330  66.9138947  49.2742729  20.0477409
   7.5562530  69.6718903  28.3164120   6.9051318  68.9970703  28.5084667
   7.0613637  70.3646011  27.8788338  76.0894547  71.2951660  53.0355377
  75.1808701  71.5500336  52.8750610  76.5036392  71.3292465  52.1732635
  39.1370621  33.4618340  65.9334564  38.7460899  34.0983047  65.3348923
  40.0288620  33.7804527  66.0727692  83.9673462  17.0608177  42.0237656
  84.0222244  17.9764290  42.2974014  84.6768570  16.9574165  41.3896255
  85.6747742  60.4106255  75.2170258  86.5387802  60.2430153  75.5933685
  85.6799393  61.3456917  75.0124359  77.1927414  22.5554314  36.2716179
  77.3689728  22.9024296  37.1461296  77.9933319  22.0878048  36.0336723
  52.1963387   9.0215635  88.5557709  51.6611252   8.2610388  88.7824402
  53.0985222   8.7115755  88.6345062  11.8725462  46.6762161   3.1261878
  12.3091736  47.0000572   3.9140413  11.2196598  46.0565453   3.4517355
  27.1305885  58.3603020  80.7512741  27.5055752  58.2801743  81.6283112
  27.3172436  59.2627640  80.4925156  58.1488609  52.9374123  56.1066704
  58.2368698  53.8461914  55.8192635  57.7544785  52.9984856  56.9767075
  57.1517448  51.6325569   6.6443377  58.0805931  51.4035835   6.6120234
  56.9613380  51.7297401   7.5773611  22.7572994  40.1176491   8.1725235
  21.8688869  40.4737282   8.1852045  23.2518654  40.6867332   8.7622499
  82.0965729  37.5538330  85.0285645  82.7129059  36.8465385  85.2185669
  81.5487518  37.6109009  85.8114243  25.3016567  44.8041496  11.2149744
  25.0629673  44.0333099  11.7298212  26.1492863  45.0747795  11.5678406
  26.5503025  65.3729324  27.3066139  26.7237778  64.5731735  27.8031273
  27.2732430  65.9576111  27.5340691  82.2455826  31.8942947  71.2838974
  82.3410797  31.8352795  72.2344894  82.4700546  31.0198174  70.9658813
  51.8104515  12.5364046  62.9057198  52.0227356  11.6079502  62.8101196
  51.2892647  12.7440224  62.1301613  52.3556099   8.0262556  69.7415924
  52.9707108   8.3603077  69.0886841  51.5858688   8.5886478  69.6553040
   1.7751395   6.5333996  72.2083054   2.6947520   6.2824531  72.1212921
   1.2921580   5.8241134  71.7841873   9.6482029  56.8102036  12.4445086
   8.7686195  57.1751862  12.3477831   9.6988373  56.1269379  11.7760687
  47.7003784  22.9940681  24.3512726  47.4382172  22.0744400  24.3935318
  48.5793495  23.0101948  24.7299309  45.1524696  48.2215691  29.4943600
  45.3367844  48.2619057  28.5559387  44.5974922  48.9831429  29.6623955
  60.0955734   3.4781241  15.4473906  60.9955559   3.5940154  15.7520723
  59.6000137   3.2676234  16.2388077   4.8467984   1.1718386  66.8103790
   4.8492360   1.8416872  67.4941406   5.2108865   1.6121749  66.0424118
  16.1847687  44.9258804  84.5693741  17.0709915  45.2253876  84.3665466
  15.7251415  45.7148819  84.8565140   7.8075156  29.8708992  47.0510216
   7.1982989  30.5005436  46.6654892   7.2468204  29.1783466  47.4006271
  74.4023819  39.4246292  15.1728945  73.9649734  38.9256020  15.8627357
  74.3034592  40.3387337  15.4390850  49.0476494  16.3467522  15.2064295
  49.3198357  15.4762230  15.4968195  49.3950424  16.9406967  15.8718472
  74.7168350  23.3909149  53.4576111  75.2985382  24.1284943  53.2736931
  73.8622513  23.7929401  53.6134834  30.1641006  36.9900093  23.5220814
  30.7207203  36.5405922  22.8861332  30.7574615  37.5833664  23.9826088
  72.8180084  47.0742874  26.1936169  73.2297668  46.9527664  25.3380947
  72.6016541  48.0061874  26.2250919  61.4737434  46.9940681  56.3762131
  61.3220825  46.5439034  57.2072258  61.9609718  46.3624878  55.8471146
   5.2052870  48.3493233  51.8712730   5.5832639  47.7070923  51.2705231
   5.9458833  48.6490326  52.3984604   5.6338983  37.5864220  72.7068024
   5.8070254  36.6616783  72.8831787   4.8685389  37.5814133  72.1319733
   9.4100714  29.7613068  72.9704437  10.2493916  30.0487156  73.3298416
   8.8430395  29.6630516  73.7353287  69.7807846  54.1332855  39.0838585
  70.5843430  54.0580139  39.5984955  69.0844498  53.8755646  39.6879501
  33.5103073  25.0335960   9.5881233  33.8880386  25.7338810   9.0560045
  33.6694870  25.3068504  10.4915752  10.6087952  51.0745659   1.3316760
  11.3691092  51.1544380   1.9076749  10.9778843  50.8494110   0.4776799
  76.7638550  69.7667847  25.5593910  76.1171646  69.5773163  26.2391911
  76.2511292  69.8380356  24.7542439   2.4169433  20.6893463  63.5283966
   2.4957025  21.5079823  64.0181503   3.2465613  20.6112785  63.0573616
  85.2541428  52.3983574  66.0589447  85.7498550  53.0325584  65.5409698
  85.9225998  51.8517418  66.4720001  83.9380722  19.4027824   7.4108443
  83.2735062  20.0911865   7.3846841  84.4488678  19.5324936   6.6117887
  62.6946030  28.4953098  84.4959641  62.6251068  28.5207634  85.4502945
  63.3374100  29.1722965  84.2844849  72.8758392  43.0807610  23.5104446
  73.8273087  43.1055527  23.4088802  72.6896515  42.1895790  23.8060131
  55.0636406  19.2511997   7.9392147  55.7092628  18.6879292   7.5124488
  54.7898674  18.7583370   8.7127562  39.1755066   4.5804391  86.0525818
  38.9597626   5.3297729  85.4974365  40.1275101   4.5025845  85.9905014
  22.1508121   2.8729203  77.1155167  21.8371105   2.9783661  78.0136871
  22.4869766   3.7366264  76.8762741  38.5665665  58.8423538  40.2749977
  38.9265671  59.0972328  39.4254875  37.6594543  59.1470642  40.2518845
  75.7235565   4.5508690  79.5101471  75.1193771   5.2921014  79.5522842
  76.5595932   4.9058571  79.8122253  84.4092331   6.1737523  44.2222519
  85.0729980   6.5321355  44.8114929  83.7689209   6.8786769  44.1257248
  12.7147942   6.3014770  14.9034166  13.2182684   6.6955671  15.6157637
  12.3494654   5.5018916  15.2821388  15.9385233  34.4268074  60.3003120
  15.6628428  33.7443199  59.6883965  15.6010351  35.2385635  59.9216461
  24.1106167  68.8368759  77.0410004  23.5754700  68.5487518  76.3015137
  24.4311600  69.7009430  76.7823944  79.8914719  69.9719849  71.1316147
  79.4675369  69.1419525  71.3497009  79.4687729  70.6139679  71.7020721
  65.3530884  26.4488907  13.6864061  65.1463928  25.5734749  13.3590555
  65.9953842  26.2996750  14.3802528  43.8431358  59.8387070  79.3629227
  43.7502022  60.7732544  79.5478973  42.9491959  59.5361328  79.2030640
  23.8975525   8.7042103  63.5740623  24.6911087   8.8174314  64.0972137
  23.2404613   9.2417555  64.0162277  65.8265076  11.9878178  42.4179001
  65.7000351  12.4996862  43.2167892  65.7011185  11.0796118  42.6929855
   4.0931215   7.1422734  87.4147797   3.3498878   6.7186151  87.8441391
   4.4074030   7.7807961  88.0549011  16.6330128  59.8520699  13.0425901
  16.2066994  59.0671043  12.6986179  15.9311790  60.5004997  13.0991888
  56.5166397  58.8822632  55.5609779  56.6453934  59.0744133  56.4898109
  55.9876823  58.0845413  55.5524979  77.7987900  18.6593094  17.0417557
  77.2877197  17.9235611  17.3789692  77.6060333  19.3797932  17.6417389
  81.3530350  49.5627403   9.1503611  81.2622757  48.7067375   8.7317295
  80.8729172  50.1613159   8.5781498  58.0420151  27.5550995  65.0185547
  58.9295120  27.2845039  65.2538376  57.9026031  27.1865883  64.1462021
  50.4339104  18.7223225  87.8653336  50.9942780  18.1578197  87.3328323
  49.5449028  18.4179039  87.6830597  40.6082726  50.0896187  10.2016745
  39.8630257  50.1905098   9.6095076  40.5209732  49.2012978  10.5473518
  69.5272522  38.1453629  17.8426380  68.6006775  38.3851547  17.8563175
  69.9781647  38.9468002  17.5769100  86.4027252  24.0167084  25.1204910
  85.8398590  23.9127922  25.8877048  87.2414322  23.6393890  25.3858814
  42.5254898  50.7889442  85.9114914  42.6115074  51.7375755  85.8169861
  42.1550865  50.6679535  86.7857819   3.8349299  54.8320389  13.0249529
   2.9714100  54.5636864  13.3388805   3.9229615  55.7404976  13.3133774
  86.3985977   3.6424363  12.7720995  86.8340302   3.8869936  11.9555063
  85.6277008   3.1480188  12.4937162  73.5640411  66.8588715  65.7759094
  74.2134933  66.6390991  66.4438477  73.8563385  66.3900986  64.9942245
  24.8227253   9.0671577  81.2205811  25.5707550   8.5726662  80.8856812
  24.9121532   9.0213642  82.1724930  60.2100754  46.7607155  82.9531860
  60.2766457  46.6363258  82.0064392  59.7255821  47.5801125  83.0536194
  82.0604401  62.8792305  75.9381561  81.5041046  62.1337929  75.7122269
  82.7577820  62.5034752  76.4755173   1.0570877   8.1402149  38.3677826
   0.5275702   8.2835436  39.1521950   1.3312240   9.0174398  38.1002808
  60.8064079  31.6749382  25.6752663  60.6539497  31.0513096  26.3852501
  61.2986183  31.1781521  25.0216885  16.5212688  39.3720856  16.1557636
  16.6167183  38.5238457  16.5889053  15.5781574  39.4688683  16.0238304
  81.1765594  53.7439270  58.6541519  80.9349136  53.3332825  57.8239670
  80.4927826  54.3961563  58.8067207  70.5576782  55.5515556  54.7658119
  71.1529999  55.5035896  55.5138206  69.6831284  55.5434418  55.1548271
   7.0379767  51.4024239  33.7639084   7.1626568  52.2423286  34.2057762
   6.2081232  51.0717545  34.1077576  74.3067474  15.4582090   3.8456080
  74.5712509  15.6630964   2.9487848  74.8351288  14.6961737   4.0829859
  23.3774776  40.7692223  42.3995209  23.7416744  40.8966866  43.2755013
  24.0771751  41.0439568  41.8069191  10.0980072  32.4067764  12.3435946
  10.6663132  31.9217663  11.7452421   9.9249859  31.7944927  13.0587187
  62.0056305   2.1083639  63.2187195  61.8739433   1.6879952  62.3689079
  61.4668617   1.5988693  63.8240089  75.5335464  67.0413132  32.7620583
  75.6113510  67.9617996  32.5112762  74.6212769  66.9437103  33.0349541
  61.5859299  42.5772285  26.5030975  61.0810432  43.1433105  27.0869408
  62.1347504  43.1796227  26.0009518  81.8790359  64.9194336  26.4883080
  82.4833145  64.2958221  26.8910351  81.9812851  64.7783127  25.5471039
  47.1012459  65.9372864  82.7877502  47.2443466  65.1977386  82.1971359
  47.5522957  65.6899109  83.5949631   3.2451608  50.6515160  82.9885483
   2.2936063  50.5479393  82.9815979   3.3961785  51.5048447  82.5820312
  21.8735847  47.9920387  39.2386246  21.7779102  48.4730911  40.0606117
  21.7886372  48.6603928  38.5586853  16.5320435  57.7056198   1.1051998
  16.2794323  57.1921158   1.8724900  15.8046160  58.3137703   0.9739205
  71.9052963  31.6109238  70.6735535  72.4561615  32.1068726  71.2792053
  72.5068817  31.3145390  69.9905548  84.4784164  32.3977890  49.2322235
  85.0580063  32.6668358  49.9449081  83.8655243  31.7859402  49.6399460
  10.3396664   8.5765734   3.4471505   9.9893007   7.9607491   4.0907626
  10.7192354   8.0212040   2.7661777  36.6773911  60.2209740  27.1295624
  36.5419464  60.1765137  26.1830387  37.5817795  59.9339714  27.2558403
  55.0920601  46.1511765  50.1674004  55.7033463  46.8833351  50.2480507
  55.2238274  45.6400681  50.9659195  57.3738365  10.6646891  67.2789841
  57.5458603  10.0050735  66.6070099  58.0092316  10.4747887  67.9692307
  36.2357101   2.2460742   7.3683152  36.2640190   2.3550887   6.4177642
  37.0777931   2.5838685   7.6733179  63.1820564  19.1622562   8.3831739
  63.3999748  18.2821026   8.6898842  62.3916245  19.0435085   7.8565359
  27.8323021  58.0643044  43.9518166  28.2971630  58.7378120  44.4483299
  28.2960720  58.0202446  43.1156311  71.4322510  37.1621895  87.6153488
  71.4558411  36.7871208  88.4956894  72.3392487  37.4102440  87.4363098
  18.8234901   2.0622227  88.6374893  18.1818981   2.0874050  87.9275894
  19.0604038   2.9788063  88.7788315  59.7019424  34.6497459  35.5183716
  59.1380768  34.6551476  34.7449036  60.1953239  33.8324013  35.4493904
  64.8952866  51.2123222   8.2936029  64.0273743  51.4517174   7.9685593
  65.4298553  51.1216469   7.5047770  69.7642746   7.3363538  80.2823792
  69.4631500   6.6135445  79.7318268  68.9904480   7.8877420  80.3981323
  53.0957146  36.1403961  68.5042419  52.1734772  35.8886566  68.4559479
  53.2029228  36.4885445  69.3894196   7.5620518  67.5984802  57.7629738
   6.8201175  68.1993866  57.8313751   7.5225778  67.0769653  58.5646553
  32.6661339   0.2431620  32.7567749  33.5252266   0.3390759  32.3456917
  32.0683174   0.7120462  32.1745377  47.4631271   4.0753555  81.6469879
  47.2669907   3.5463643  82.4202499  47.3548622   3.4730220  80.9109879
  14.6703930  68.8457489  29.1265621  14.5443211  68.5256882  30.0198135
  14.2185907  68.2055740  28.5767574  19.6017895  54.8755684  65.5594940
  19.6504459  55.3551903  64.7325516  19.7174873  55.5462723  66.2325439
  36.6280937  36.9859428  12.1290989  35.7681465  36.8313370  12.5200148
  37.1887627  37.2202644  12.8686762  32.6006508  39.4706612  67.8376541
  33.1536026  38.9192963  67.2840500  31.8792057  38.8990936  68.1004410
  84.5153580  67.8542328  38.9131775  85.1144180  68.2585373  38.2855682
  84.8046951  68.1809311  39.7651062  13.4279013  40.7114754  56.4019814
  13.6354656  40.9210129  55.4913521  13.0156479  41.5054245  56.7424622
  50.4611588  48.9866486  72.9234543  49.9178848  49.7204323  73.2109451
  49.8628273  48.4236870  72.4322205  74.7310257  36.4368134  79.5570984
  75.2254257  37.2535400  79.6261063  73.8385086  36.6752090  79.8077164
  68.2501831   1.7046696  46.7398186  67.8817215   1.2764577  45.9670944
  68.1824570   1.0478381  47.4327965  72.6971588  24.8670464  28.2747211
  72.6231842  25.5996265  28.8863468  71.8535538  24.8461285  27.8229122
  75.5550003  47.9840584  27.0255032  76.0971146  47.7043495  27.7631340
  74.6697769  47.7050018  27.2594700  10.0532122  17.1763325  85.1875000
  10.1529093  16.6559067  84.3903503  10.9415436  17.4635639  85.3986816
  21.4435272  63.5827637  31.9388504  20.5848484  63.1607018  31.9111919
  21.6706715  63.7240601  31.0197887  49.3802223  61.6476326  63.2881165
  48.8715515  61.7609673  64.0910110  48.7244606  61.4848747  62.6100960
  63.3894806  19.6310596  75.6392899  62.4830894  19.7331486  75.3490067
  63.8373184  19.2353458  74.8915710  24.4764290  62.4644470  43.5727386
  24.6358128  62.9506874  42.7637863  24.9907475  61.6630096  43.4757538
  26.2895889   0.2658773  68.7129822  26.8415413  -0.0725063  69.4180145
  26.5180073   1.1935651  68.6542282  48.3418770  13.1623945  62.8480721
  48.3081360  14.0054512  63.3001213  49.1081352  13.2267771  62.2780380
  11.0376406  38.8524246  52.7609024  11.9879675  38.8927650  52.8680611
  10.9106731  38.5394516  51.8652687   2.5160768  62.4732933  13.6362371
   1.6209332  62.6389198  13.9320707   3.0097444  63.2407036  13.9253836
  46.6465187  69.2252350  27.2169132  46.6294441  68.6796417  28.0032139
  47.4542999  69.7327881  27.2950630  47.7042198  54.1788750  79.2396927
  47.2450714  54.1040077  80.0762405  48.6108932  53.9487076  79.4426804
  35.6261253  68.2230606  21.0116959  35.7190895  68.4900970  20.0972118
  34.8893051  67.6120682  21.0090752  16.7763023  21.2842579  88.1229019
  16.6336365  21.9871674  88.7567749  17.6532326  20.9563713  88.3221893
  37.8473587  58.2419472  73.6832809  37.5931931  59.1341209  73.9192047
  38.7677116  58.1795998  73.9388199  33.4669838  38.8090858  73.5101395
  33.7666016  37.9627876  73.8421555  33.3348465  38.6655579  72.5730286
  32.9997597  63.8259201  17.0941563  33.3658562  63.8358307  17.9785252
  32.5440102  64.6638489  17.0141926  53.0103226  56.6034927  21.6904240
  53.2388535  57.0349998  20.8671360  52.0570755  56.5215759  21.6613522
  79.2215500  38.9456367  71.3226547  78.6912537  39.2373238  70.5810776
  78.6568298  38.3339157  71.7950211  34.5847130  44.2312241   2.1207750
  34.2223740  45.0734062   1.8456926  35.0478516  43.9060974   1.3487480
  13.4312944  64.2406769  45.0828400  12.8085718  64.8961868  44.7685890
  12.9009132  63.4575119  45.2297554  84.1267319  52.2991676  29.9883900
  84.4624786  51.9116859  29.1800785  83.2901306  51.8580894  30.1359615
  82.8780212  55.2652779  30.5627670  83.7597656  54.9596024  30.7756634
  82.5086594  55.5354080  31.4035034  77.0612030  39.1426888  18.5772076
  77.3556747  40.0118179  18.3049355  76.9160385  38.6711311  17.7569675
  82.3892899  60.3695564  30.6969566  82.7957382  61.1190338  31.1320591
  83.0996323  59.7355461  30.5985851  19.1731319   3.0311327  64.9742355
  19.5464382   3.4644206  65.7417908  19.2594109   3.6742485  64.2705383
  25.3256493  41.7996330  53.6246223  25.7116013  42.1891594  54.4091911
  25.6836491  40.9123383  53.5968246  26.6176319  12.8166924  78.3550034
  25.8860893  12.2247705  78.1797791  26.4256020  13.1861963  79.2168808
  79.2716064  47.2365227  60.4270477  79.6395035  46.5365295  60.9663925
  79.9855728  47.8671761  60.3334694  57.7933388  12.3673754  31.3362923
  58.2142944  12.3186741  32.1945801  57.0250244  12.9205599  31.4773922
   5.3486524  71.5329514   9.9806604   5.5065804  71.0371628  10.7840834
   5.1357293  70.8674240   9.3264685   3.5448792  59.1086693  82.0130920
   3.5615892  58.7265625  82.8905640   3.7644017  60.0303879  82.1490173
  13.6462440  57.9675331  87.0141830  13.1631651  57.8516808  86.1959839
  13.5727797  58.9025650  87.2053604  48.0329361  25.4559078  22.7862720
  47.1233406  25.6156082  23.0379982  48.1473961  24.5110931  22.8885136
  79.8870697  32.4109306  15.6891022  79.7682114  31.4611588  15.6828890
  79.0556564  32.7542152  16.0164261  28.9585094  46.1110115  68.6410751
  28.1821728  45.8183136  68.1637268  28.6923275  46.1009026  69.5604630
  64.9567795  68.7961426  26.7315464  64.7505264  68.8755417  27.6628819
  65.7638016  69.2989120  26.6212425  46.8011971   9.2040071   4.1153188
  46.1941376   9.6599798   3.5323966  46.2365837   8.7222977   4.7198038
   7.1369305  52.9118195  50.0288353   7.4028211  53.7866440  50.3120689
   6.9530649  53.0081635  49.0944138  71.8766937  11.8503895  80.8935318
  72.4297791  12.6309643  80.8614883  71.1534653  12.0928745  81.4717865
  86.0530090  39.9249840  46.7801208  86.7757416  39.5946846  47.3137779
  86.1276855  40.8774567  46.8389053  85.1169052  36.4955444  82.9040527
  84.2608337  36.5958519  82.4877396  85.6295090  35.9846725  82.2775726
  36.6523819  26.2342319  12.9814034  36.8246574  25.7304382  12.1859503
  37.5120468  26.3398609  13.3888988  72.6494217  10.0679398  17.6626091
  72.4588852  10.6405115  18.4056358  72.0469208   9.3315191  17.7670383
  78.0240784  46.4222336   8.4655828  77.9079285  45.6460533   9.0135670
  77.3081589  46.3772850   7.8318043  83.3977432  53.3556709  20.8635902
  83.1107559  53.9461899  20.1670570  82.5886688  53.0892258  21.3002071
  78.1214905  25.0332241  57.6241989  78.9746475  25.4389858  57.7781830
  77.6758118  25.0844250  58.4697609  35.5665817  19.6045456  12.2606983
  36.0948563  19.8394642  13.0235682  35.2825165  18.7069111  12.4333038
  72.6716766  66.0100250  29.3633614  72.5406265  66.9305649  29.1360683
  73.5781860  65.9651031  29.6674309  19.5868912  45.6361923  17.6133060
  18.8873196  46.2702522  17.7707767  19.6960869  45.6312637  16.6623669
   8.1728497  44.9345436  35.3024178   8.0133057  45.3097153  34.4363785
   9.0164728  44.4900208  35.2191582  70.0386658   9.2883902  41.5727882
  69.0850525   9.2593470  41.4952011  70.2612152  10.2108297  41.4470558
  74.3018723   5.0842099  83.5689087  73.9616852   5.9779434  83.5271072
  73.5375900   4.5464735  83.7761383  49.5706444  30.7910080  26.7774773
  49.2922478  30.0548172  27.3222237  50.4789314  30.9493103  27.0347462
  81.0063782   9.8139563  40.4671288  80.1498795   9.3946066  40.5494995
  81.2461472  10.0471230  41.3639984  25.3728409  61.6869125  77.1230469
  25.8259106  61.1391144  76.4820480  25.8741703  62.5021858  77.1383209
  63.7843399  19.7619152  87.8340149  64.2245483  19.6792126  88.6799545
  64.0112686  18.9581661  87.3663330  55.5873337  52.8398094  75.5121613
  55.6781464  52.7442932  76.4602432  56.0058823  53.6776886  75.3146744
  80.0792465  59.7110481  63.5336647  79.4321899  60.4079437  63.6426659
  79.8152390  59.0387039  64.1617432   6.8272452  31.5951042  72.5225830
   6.4866543  31.0171833  71.8397675   7.6914802  31.2389488  72.7287064
  70.3142776  32.9827957  36.3992424  69.5490112  33.5421181  36.5324707
  70.1251755  32.1933594  36.9064522  14.1409178  54.4720154  52.2699890
  14.4108486  55.3886375  52.2136421  13.5470848  54.3512268  51.5290413
  69.7896347  66.2005310  52.1315804  70.0704498  65.4493103  52.6541100
  69.9077911  65.9188843  51.2244186  12.5186052  20.4001637  67.8022156
  13.2087717  19.9148445  68.2542877  11.8406820  19.7470150  67.6288681
  69.7802887  63.0189400   7.5524592  69.7855835  62.5546227   6.7154336
  69.3821793  63.8664322   7.3537169  31.9671249  46.0386925  47.0457764
  31.2261810  45.5666885  46.6657104  32.1330681  45.5944176  47.8772278
  67.4673080  61.8989067  76.5978165  67.9126434  62.2460632  75.8249054
  66.8127289  62.5625610  76.8153534  59.8412704   5.7533679  82.9354553
  59.6246529   6.6762176  82.8025818  59.1073570   5.2768126  82.5475159
  81.2189026  46.3350983  69.9724350  81.0649338  47.1588326  70.4350204
  81.5501480  46.6004906  69.1144943  62.8071098  54.2005577  42.8116264
  63.7541351  54.0653152  42.8445511  62.5202904  54.1084862  43.7201881
  50.6183548  55.6591721  14.1021900  49.9003296  55.0577087  13.9049330
  50.3381157  56.1145058  14.8961477  84.4097443  48.4033089  21.2051125
  83.7316895  49.0276871  21.4632359  84.5979385  48.6181870  20.2915249
  77.1114578  45.8890266  50.7002640  76.1700897  45.7880325  50.8412170
  77.2937775  46.7970657  50.9420395  69.9650040   4.8560152  59.8150101
  69.3516617   5.3075852  60.3947754  69.8142242   5.2479048  58.9548225
  36.8960304  33.0037498  82.6229095  37.1049995  33.6450157  81.9436874
  37.5941963  33.1041107  83.2699966  40.4160767  58.2989044  50.8587227
  41.0695000  58.0972862  51.5285110  39.6333084  57.8234062  51.1369476
  69.6353760  34.7595901  73.9395981  69.5534668  33.8844299  74.3185730
  68.7831879  35.1676674  74.0928421  66.5852585  70.0651169  41.7710724
  67.1968765  69.6676941  42.3909187  66.6429367  71.0043335  41.9464836
  73.1973877  27.2705002  55.8060646  73.8833084  27.9310455  55.7090111
  72.3929825  27.7759342  55.9231071  48.9323425  67.9467545  53.1024742
  48.9285927  68.2399445  52.1912918  48.4640083  67.1120834  53.0874329
  30.3101044   5.3852830  70.2838821  29.4552441   5.3146262  70.7086868
  30.8635120   4.7617230  70.7541428  53.5300598  66.9236069  85.7249680
  53.3374939  67.4322433  86.5126419  54.2836113  66.3848343  85.9660339
  51.8502159   3.3234003  63.8211746  52.5250854   3.7987301  63.3365669
  52.3368568   2.7004337  64.3609238  33.4463730  68.5532761  84.3808594
  34.0988579  69.1323013  84.7748566  32.6166534  68.8256226  84.7728043
  53.7008247  32.6732063  16.5899010  53.5770378  31.7253761  16.5396614
  52.8170242  33.0341911  16.5204639  33.5535164  64.3445129  68.0501480
  32.6411972  64.6167221  67.9511108  33.5600929  63.4261475  67.7803497
   5.5584941   2.9150879  39.1415825   6.4990530   3.0714662  39.2259979
   5.4326525   2.7054830  38.2161293   8.3335857  56.2383690  84.7159729
   9.1850376  55.8030090  84.6744766   7.7091603  55.5291824  84.8688736
  71.9530029  20.9479179  86.3853149  71.5168304  20.2030621  85.9715805
  72.8327179  20.9501286  86.0080490  52.1594467  51.7281265   7.3843589
  51.9072571  50.9337845   7.8551593  53.0587730  51.5632973   7.1010308
  77.3261795  50.4298019  67.6107941  77.5463257  49.5795937  67.2301102
  76.8215027  50.2172546  68.3958740  14.1483889  14.1190805  78.0676270
  13.9406509  14.5148411  77.2211914  14.8831921  14.6350546  78.3993912
  16.1812611   1.6067637  59.0635223  16.2310925   2.3057661  58.4114914
  17.0864525   1.4789565  59.3472977  61.9478416  22.3838825   5.4554691
  61.5914268  21.5008430   5.5526395  62.6193733  22.2980022   4.7787862
  72.8792648  19.0447922  55.4418144  72.2028275  19.0542393  56.1189995
  73.4336853  19.7977333  55.6465683   4.9254532  68.5013962  57.0701485
   4.8578157  67.9962463  57.8803864   4.2496152  68.1330414  56.5011253
  67.4062653  11.9473810  81.3945770  68.1816483  11.6165657  81.8479919
  66.6712189  11.6596518  81.9360123  14.6139975  45.7715225  14.2137356
  14.6741085  45.7300491  13.2593260  13.8333559  45.2602997  14.4269962
  61.6514053  40.1410561  30.0840511  61.2129097  39.4669228  29.5649261
  61.6334801  39.8032608  30.9794865  25.1816730  62.7850571   5.2983932
  24.3205166  62.7576027   4.8813968  25.0066357  63.0866966   6.1898017
  59.6183701  12.7957211  88.2969894  60.0024376  11.9260073  88.1859818
  59.1669464  12.7523842  89.1399460  23.0709858  67.0018463  69.1622009
  23.5185089  67.1186752  68.3241653  22.8674812  67.8914261  69.4511108
  20.3807907  35.5905190  62.7329674  19.5731964  35.1728134  62.4337273
  20.8632908  34.8909492  63.1734543  86.4662628  64.5443115  27.5520325
  86.5237579  64.7353973  26.6158638  87.3442688  64.7249680  27.8877258
  60.2458611  46.8377991  80.1709366  60.9350662  46.7239304  79.5165176
  59.5248032  47.2451820  79.6909943  68.3990555  38.2640343  33.6808128
  68.5453339  39.1798477  33.9177094  67.5178223  38.0715904  34.0011597
  74.4500275  11.0381031  57.2934265  74.6030807  11.2211876  58.2204018
  73.6910629  11.5749521  57.0653877  81.2332535  65.5548782  85.1682129
  81.5056000  64.6889191  85.4718094  80.6594772  65.3778305  84.4227753
  80.1530991  70.3437500  29.8743572  79.7044144  70.8275146  29.1809044
  80.3869324  71.0112534  30.5193329  65.0767441  19.1287327  61.0457649
  64.5603638  18.9593296  60.2578011  64.4285889  19.3546734  61.7129059
  69.1568985  31.6175022  26.0818787  68.2439957  31.7008114  26.3573837
  69.5678558  32.4345169  26.3644218  76.3033752  33.1601372  55.2912178
  76.7759476  32.4337234  55.6977043  75.7638702  32.7473869  54.6168289
  81.5563736   7.8857722  61.0998039  82.3668518   7.5059004  61.4389992
  81.1299133   7.1652231  60.6359367  27.3529873  43.4750633  74.4072037
  27.8514614  43.3473778  75.2143326  27.4945183  42.6704178  73.9084549
  84.1216049  43.8985863  55.8860397  85.0529480  43.8518753  56.1020279
  84.0985794  43.9244232  54.9294662  65.3270187  25.9317532  59.4460068
  65.3237228  25.2072601  60.0715714  65.7879257  26.6375980  59.8994179
  45.9056396  70.4911499  78.5893097  46.0056839  69.6013565  78.2509613
  44.9989853  70.7232437  78.3884506  56.0956192  53.4914818  46.4784279
  55.6304054  52.6755257  46.2939758  55.5672951  54.1690521  46.0565147
  78.2443390  43.4227791  74.6378708  78.2465439  43.1988678  75.5685120
  79.0481873  43.0317802  74.2955475  77.0490341  55.0371933  39.3592186
  77.7082672  55.0469933  38.6652832  76.5511093  54.2343254  39.2052345
  30.8776321  16.7013607  69.0360794  30.5761776  15.8667297  68.6772614
  31.1570816  16.4919643  69.9273071  25.2661324  20.3942738  71.8135910
  25.8931484  20.9837646  71.3945618  24.4091835  20.7536602  71.5839996
  42.3716049  47.5523796  74.4197540  43.1262283  47.6301498  73.8360367
  42.7350769  47.6674728  75.2977448  71.0784454  11.9147043  60.0353355
  70.4293213  12.6178236  60.0132446  71.7896729  12.2276945  59.4763870
  46.3442688  36.6559143  75.8460464  46.9729881  36.1734772  76.3828812
  45.8945274  37.2324219  76.4637909   4.6154094  22.1116943  57.2131958
   5.2125793  21.7562408  56.5549583   4.1315484  22.7970963  56.7523956
  81.4037247   5.8035374  17.4422588  81.3756180   5.7278042  18.3960438
  81.0722275   6.6832180  17.2619686  61.0951805  49.6906128  23.3527355
  60.4105873  49.0770569  23.6194057  60.9545822  49.8130913  22.4138718
  70.6653366  16.9247208  11.5325947  70.0433044  16.6194763  10.8721962
  71.2838821  17.4691296  11.0455055  62.8892593  45.4106560  54.7795219
  63.3548889  46.1587868  54.4057274  63.2646751  44.6494408  54.3369713
  82.8909454  33.2521744  54.8568993  82.7839050  32.6716423  54.1034012
  82.0733109  33.1624527  55.3464394  48.4789619   7.6340971  78.2878494
  47.5715408   7.4132876  78.0779495  48.8314133   6.8407135  78.6910248
  13.8947430   7.1797886  62.3003235  12.9887075   7.2809124  62.0085945
  13.9786053   6.2480035  62.5027466   8.0667686   2.7273157  61.8170624
   7.5982394   3.5473652  61.6613998   7.4238443   2.1615813  62.2446442
  42.5569534  20.6186752  79.8289948  43.1182137  21.2753773  79.4167328
  43.0726547  20.2915268  80.5660553  48.8641739  13.3661003  13.1464424
  48.8632240  13.3593445  14.1036186  48.6848297  12.4586306  12.9003420
   3.5515690  15.5095291  26.7251110   3.7916510  15.4624538  25.7997055
   4.2985678  15.9360981  27.1449509  27.4588604  53.5906677  53.7734375
  27.4656067  52.7623062  54.2530212  26.7249489  53.5088577  53.1644096
  66.6153946  33.2616348  70.7253952  67.2523270  33.9309692  70.4753113
  67.1102295  32.4424095  70.7097778  63.6246147  62.4339523  41.3199234
  63.4127769  62.0788002  42.1831856  64.1205368  61.7375031  40.8895149
  82.6462173  16.3193283  39.8442650  81.7459335  15.9942064  39.8395233
  82.7929382  16.6050529  40.7459679   1.9331056  41.7034760  24.5942459
   1.6892700  41.8223457  25.5122032   1.1768839  42.0232620  24.1022110
  35.8907433  30.4218178  18.7016792  35.1093559  30.0203705  19.0818176
  36.6166344  30.0641003  19.2129040  58.7917252   4.3413639  47.8913651
  58.0740395   4.5266480  47.2857018  58.8837662   3.3888514  47.8694420
   6.6458707  31.4848633   2.7445962   6.4346795  31.2235069   1.8483133
   6.0445037  32.2056274   2.9319115  23.6750641  41.8508949  85.1341095
  23.7379303  40.9061470  84.9936600  24.3153515  42.2260513  84.5295258
  21.4333038  52.7310677  39.0049477  21.3724136  52.1872597  39.7903137
  21.0339222  53.5632553  39.2582932   6.4112997  46.2691917   6.6523728
   5.7333770  46.3375664   7.3246660   6.3644452  47.1001663   6.1795993
  34.9951515   5.2130051   4.2931056  35.3090248   4.3119974   4.3699193
  35.3713531   5.5284543   3.4714026  11.6312666  50.4763908  58.3146286
  12.1164131  50.7727928  57.5445557  10.7217007  50.7099266  58.1292000
  84.3923950  34.8056602  37.2398872  84.2335205  33.9300079  37.5923424
  83.5412216  35.2409782  37.2872620  54.4869041  53.1370926   4.6247845
  53.7509079  53.7019997   4.8602099  54.3551216  52.3434296   5.1433988
  12.7460108  43.8841667  15.0276680  12.3809328  44.1019402  15.8852959
  12.0097408  43.5136032  14.5410261  42.1394348  48.4931145  44.8071976
  42.6577072  48.1829796  44.0646057  42.3786087  47.9089928  45.5268059
  28.6854706  50.1658936  11.1817245  28.6550274  50.1221123  10.2260113
  29.2580967  49.4424210  11.4365110  49.8358574   1.9091748  33.8711014
  49.5850334   1.8374748  32.9501343  49.8160896   1.0088426  34.1955109
  32.5705719  22.0944729   1.8327330  32.3389969  21.9325523   2.7472746
  31.9879742  21.5223579   1.3332340  81.2385712  28.9632359  52.6114464
  80.9066620  28.8766289  53.5050735  80.6274261  29.5648232  52.1862106
  63.2227898  40.1157074  47.7922707  63.5685120  41.0080185  47.8144188
  63.9937973  39.5575409  47.8934174  81.4096451   3.4559157  45.5542107
  80.5792618   3.1311181  45.9023590  81.8778534   3.7864828  46.3208466
  22.7609386  19.3433514  57.8384590  21.9849377  19.1233845  57.3230286
  22.6874199  20.2852993  57.9919472   3.6882668  15.1305857  24.0874290
   3.0653005  14.4183969  24.2321091   3.2046344  15.7690706  23.5633392
  70.2189255  37.5431175   7.4174080  69.6207886  37.7044640   6.6877341
  71.0368881  37.2714500   7.0010209  67.0457230  10.2584105  26.4296188
  67.5521393  10.4741173  27.2127190  67.2118301   9.3267260  26.2860756
  80.0849152  62.9317436  62.0134697  79.6482849  63.3751602  61.2861633
  81.0130234  62.9450836  61.7796478  36.8736610  62.8067627  79.8138962
  36.0670357  62.4103813  79.4845505  36.6936302  62.9844513  80.7370682
  83.0572205  45.2806816  78.3828735  83.2086792  45.0509262  77.4660797
  82.3294830  44.7206497  78.6530609  25.1981487  68.7641144  89.2773056
  24.4654922  68.7918549  88.6619339  25.9736309  68.6786880  88.7227249
  84.3289642  27.4178715  60.8624268  85.0871582  27.4864197  61.4426651
  84.7029648  27.3916225  59.9817085   3.7403841  28.4613056  16.2504959
   4.1926274  27.6896267  15.9095879   3.4155006  28.1888809  17.1086712
  59.8393593  66.4354401  11.1163769  59.5476952  65.6998444  10.5778008
  59.5996628  66.1882324  12.0094995  83.9804382  30.5668430  42.3940315
  84.8174362  30.6752148  41.9424553  83.9781799  29.6527920  42.6781769
   5.9101210  35.4125557  88.5431824   6.3891587  35.2386475  89.3534393
   5.4041662  36.2035446  88.7291412  58.0659904  53.4740677  39.3788261
  57.6943588  53.0049210  40.1258354  57.3554916  53.5054588  38.7381706
  45.6622772  46.3368645   0.2863939  46.1523209  47.1551170   0.2054773
  45.9695816  45.8003731  -0.4443404   4.2879834  59.7708855  22.3198929
   5.1128101  59.6511230  21.8492031   4.3583050  60.6429024  22.7083187
  49.6498909  70.9005814  67.9806366  50.1820793  70.1908188  67.6211243
  49.3102646  70.5515366  68.8046799  41.3256187  16.6359425  80.9786758
  40.7999763  17.2704697  81.4658203  42.1483536  16.5828209  81.4650116
   0.5341009  18.8942032  26.1877728   0.0854870  19.5759869  25.6876259
   1.4474881  19.1791534  26.2153206  68.5870285  52.3532448  32.2262039
  68.5658112  51.3982315  32.2872543  69.4730988  52.5910721  32.4992485
  42.6307144  11.8427982   9.7743759  43.5585594  11.9197454   9.5520802
  42.5422440  10.9586897  10.1304054  77.8478088  52.0840759  65.5246735
  77.7231216  51.5324173  66.2969131  77.7896194  52.9794655  65.8580322
  25.9314728  43.8901367  60.2784500  26.2780037  44.7528305  60.5062943
  25.0462399  44.0644112  59.9587250  48.6265068   0.7454689  56.8076973
  48.2366714   1.0585843  57.6239204  48.4654694  -0.1980782  56.8118629
  70.0777740  32.8235283  33.7725143  70.6460876  33.5929909  33.7380486
  69.8885117  32.7070732  34.7035637  71.5497742  45.4986610  53.2538261
  71.2618103  44.5902214  53.3435173  71.6620255  45.6223907  52.3113174
  30.1734352  55.4457474  58.8109818  31.0526390  55.3734436  58.4394951
  29.9237652  54.5439758  59.0127411  55.8143272  36.6175385   7.1068559
  56.7297478  36.6843491   7.3784647  55.3333397  36.4676514   7.9207458
  59.3559418  46.1869698  36.9790382  58.8614426  45.3942299  37.1870384
  60.1752701  46.0925560  37.4648514  38.2687988  44.4681892  59.1814308
  38.4121780  45.0016937  58.3997345  37.3498268  44.6142883  59.4058723
  76.3641510  17.7565365  40.8291664  75.9410629  17.4360657  40.0325966
  77.2906570  17.8231010  40.5980911  75.1861725  27.8009434  33.6696930
  76.0410767  27.8837585  34.0921974  75.3370056  27.2006741  32.9395142
  64.1893768   1.2588089  74.8218155  63.7262344   1.2211698  75.6586685
  63.5419083   1.5999677  74.2048721  58.3037949   8.1629267  59.0873070
  57.3470383   8.1344614  59.0810051  58.5631714   7.3885884  59.5866623
  66.1445389  35.3556404  73.9319534  66.0728149  35.3493347  74.8864365
  65.5879898  34.6316071  73.6451492  60.6755447  61.5774956  83.2568436
  61.2500534  61.7634354  83.9995422  60.7027512  60.6250458  83.1655655
  23.0311661  55.5893669  48.4613571  22.3265285  56.1123390  48.8437386
  22.7361813  55.4056587  47.5694656  70.0604630  39.6893501   8.9367628
  70.0835266  38.9159088   8.3732996  70.8362961  39.6051064   9.4910374
  69.4073105  25.0736408  -0.0898599  69.6432571  24.2129211   0.2561533
  68.4508514  25.0911560  -0.0566739  66.6552887  56.0607948  35.3057556
  67.5929184  55.9913826  35.1261330  66.4022522  55.1856117  35.5994492
  20.3633099   9.1035900  85.1233292  19.9156227   9.9495888  85.1136169
  21.2253876   9.2930441  85.4936829  28.8114738  65.4824753  54.7352982
  28.8244591  65.8248596  53.8415222  29.1966038  64.6091766  54.6628685
  40.1317711  71.2205811   5.7412539  40.0689316  70.6258316   4.9938884
  40.8753738  71.7868729   5.5348406  61.2694588  42.5249596  21.3016567
  62.1646271  42.8495941  21.3992100  61.0846176  42.6095276  20.3662872
  70.0493469  69.2768631  72.7089157  70.3001709  70.1620712  72.4448471
  69.2986450  69.0650711  72.1540985  40.1734848  60.8055954  21.4355125
  41.1189880  60.6752129  21.5079861  40.0764351  61.4950790  20.7786808
  59.2793465   8.6868944  63.0027924  59.9788322   8.9827147  62.4201736
  59.0362167   7.8243484  62.6664391  24.2568932  57.1171227   7.3647332
  23.9609756  56.2076836   7.3249373  23.5513916  57.6167564   6.9537997
  74.0551300  20.1651592  67.2967453  73.2991486  20.1756229  66.7097015
  73.7209396  19.7887821  68.1109314  12.1272984  44.0311470   8.1274920
  11.9001360  43.1089058   8.2462463  11.6424789  44.4876900   8.8150587
  76.6518707  61.5365334  78.2311783  76.5085754  61.7156792  79.1604843
  75.9425507  61.9999046  77.7857819  53.9305992  27.5278473  40.1486168
  54.0885124  27.9270496  41.0041466  54.6062317  27.9004059  39.5820923
   8.7702436  55.2180786  33.6123199   8.2021255  54.7241135  34.2034836
   8.9591894  54.6097946  32.8978157  66.3228226  49.8878860  85.5282822
  66.1041718  50.3864937  84.7409973  66.7890015  50.5115623  86.0849991
  54.6337585  34.4892998  49.7383156  55.5535736  34.2983170  49.9218788
  54.3951759  33.8741341  49.0448570  34.2468643  54.9347115  35.4891815
  34.3107834  53.9858513  35.5978432  33.7375870  55.0501556  34.6869736
  56.0856628   5.8837967  29.6864147  55.7507858   5.1621847  30.2187347
  56.9288445   6.1027989  30.0830479  86.2611313   8.8087816  79.6614685
  86.8469467   8.7176065  80.4129562  86.7362823   9.3767052  79.0549011
  21.7684860  52.1215897  47.1260452  21.4122963  51.5392723  46.4550285
  22.6905632  51.8736610  47.1934052  28.5578651  47.5615463  77.5331345
  27.9959641  48.3358498  77.5639801  27.9966488  46.8462677  77.8325424
  63.3743057  55.0645676  14.8086891  62.4530296  55.2161293  14.5977182
  63.3680687  54.2827988  15.3609838  54.1466751  32.4974327  81.0441666
  54.0249023  31.5554714  81.1629639  54.8335991  32.7307701  81.6686020
   5.7479477  32.9745140  78.8856125   6.0855403  33.3044510  78.0529022
   5.4821696  33.7596741  79.3642807  24.0852985   7.6056581  66.8795319
  24.9348431   7.1660662  66.8439941  23.5055275   7.0487394  66.3599701
  85.1993256  59.2242737  60.5892487  85.1684494  59.2145042  59.6325951
  84.4682465  58.6680031  60.8581734  71.8912430  16.5250301  55.2369690
  72.3057556  17.3808708  55.3462830  71.6499405  16.4922638  54.3112640
  23.4005184  28.9541302  85.7732544  23.5027103  29.3033524  86.6585999
  22.9703617  29.6572475  85.2866135  63.4005470  48.3081169  78.8369370
  62.7897339  49.0291710  78.9893112  64.1048889  48.4533272  79.4686432
   8.8116283   6.3065515  65.3132172   8.4123020   7.0206332  65.8100662
   8.3976879   6.3536286  64.4514313  28.7957249  45.9959679  26.9107494
  28.2176094  45.3195419  27.2635422  28.2764664  46.4234810  26.2296963
  39.7378845  68.4687653  79.6488571  40.4609184  68.0147552  79.2160339
  39.0200577  67.8355789  79.6435928   5.4435320  32.0107689  65.5862732
   5.8513722  31.9121799  66.4466095   5.6513262  31.1965065  65.1279831
  72.7929382  31.0152702  38.0556030  72.1000366  31.1988411  38.6899681
  72.8850784  31.8286533  37.5594711  78.5119247   4.1642036  49.2416153
  78.8308792   4.6357799  50.0111008  78.7544098   4.7211375  48.5018463
  66.8756790  52.7827415  19.0198059  67.1157150  52.2387848  19.7699528
  67.3988113  52.4374313  18.2963924   6.9451399  33.7010994  54.7506447
   7.1031528  33.9948959  55.6478348   6.5326333  34.4510880  54.3221703
  61.9079781  11.3858242   9.0817299  62.1160774  12.0104675   8.3869295
  62.5494423  10.6837826   8.9726677  14.3361855  28.1382427  66.3369522
  14.8162193  28.9055996  66.0255661  14.3566589  27.5276508  65.6000748
  78.2201614  32.9524345   8.7480707  79.0161057  32.5746994   8.3738747
  77.6916046  33.1978645   7.9887133  21.5189495  71.8835297  80.2848358
  21.5082340  70.9969559  80.6455460  22.4397278  72.0483856  80.0818100
   4.7732978  56.6707726  17.2256737   4.1082835  55.9950867  17.0936317
   4.4005866  57.2463951  17.8934917  26.8996124  50.9126167  55.3822746
  26.0788593  50.4589043  55.1905937  27.4856758  50.6589890  54.6692276
  77.0153198  47.1137238  79.9668350  77.9347076  46.8945732  80.1182632
  76.6375961  46.3173218  79.5935974  77.2438202  52.0313911   1.3892491
  77.6011200  51.2790565   0.9174843  78.0061493  52.5771484   1.5822365
  15.1630201   4.4077959   4.9945574  14.5896816   4.3038497   5.7539721
  14.5760403   4.3456984   4.2410126  85.7126999  26.0908222  42.1404915
  85.5507278  25.1509533  42.2220154  85.7830048  26.2408600  41.1977425
  72.6309738  12.8954620  49.3233833  72.2474518  13.1411839  48.4815063
  72.8366623  13.7295923  49.7454643  85.8195114  26.7585430  29.5170860
  85.7539597  26.1407185  28.7889194  85.0099335  27.2673512  29.4731045
  59.9724350  52.1251564  26.4756947  59.6647339  52.4539032  27.3203678
  60.1029663  51.1874504  26.6167812  69.1487045  55.3251991  16.5552082
  69.2775803  55.4019890  15.6098366  68.2593842  55.6470909  16.7026272
  42.0085106   5.5549345  17.9511261  41.1007690   5.5880451  18.2530231
  42.3912277   4.8156319  18.4235554  62.1300430  46.5291061  29.0829258
  62.2927399  46.9577484  29.9231796  62.0712624  47.2486420  28.4543991
  47.9177437   7.6822996   6.5846772  47.5917244   8.3082123   7.2313442
  48.3903275   8.2192917   5.9486475  16.2144012  37.2012596  13.0751429
  15.8615217  36.3467484  13.3231726  15.8666000  37.3583832  12.1973171
  29.8779488  48.3232269  86.6574783  30.7514000  48.1624756  86.3004456
  29.4025745  47.5066566  86.5042953   0.3659519  69.5569839  62.2332649
  -0.2694858  68.8887177  61.9766121   0.3565811  69.5414124  63.1902924
  31.1265888   5.7281079  76.0959854  31.9793224   5.3470402  75.8865433
  31.3302135   6.6015029  76.4305725  64.8073959  13.3454609  84.6377716
  65.5846405  13.1665173  85.1670151  65.0849152  14.0293541  84.0282593
  42.0706825   8.7797756  46.6352730  41.9583511   8.7405443  47.5850487
  42.0607224   7.8646092  46.3549118   9.7479897   7.7498393  59.4385223
   8.8563757   8.0813465  59.3319435   9.8369074   7.0795808  58.7609711
  23.3036499  50.3630333  64.0500336  23.8689976  50.1138878  64.7811584
  23.8382645  50.2100296  63.2709274  13.3827620  51.7381516  37.5860863
  14.1729851  51.3273888  37.2352982  13.4049454  51.5395355  38.5221901
  85.6015396  63.3516388  78.0614853  84.9954300  63.4209328  78.7990875
  86.4342880  63.6758156  78.4045105   4.5071635  59.9731560   4.2591362
   4.5077014  60.7716560   4.7869930   5.4298701  59.7260361   4.1976991
  32.3341026   4.9666891  64.9996948  32.2911911   5.1296840  65.9419327
  31.7553711   5.6255641  64.6160431  15.5954323  65.1746521   0.9249991
  16.2630520  65.0897751   1.6056685  15.9766188  64.7428894   0.1604654
  56.8717613  62.8541260   2.5675087  56.7828865  63.6530457   2.0478368
  57.6930733  62.4639740   2.2684095  67.5522614  17.6089039   5.3472667
  68.2859573  18.1552620   5.0654669  66.9638901  18.2130032   5.8001609
   2.7807689   0.3009187   1.9970481   2.1276674   0.0579815   1.3407922
   3.5774150   0.4656197   1.4926076  52.8755074  25.6094322  57.5651398
  51.9576416  25.3385715  57.5454063  53.2755127  25.0517330  58.2323723
   5.6754389  28.6541615  79.3337631   6.3680477  29.3072319  79.4338837
   5.7592273  28.3529472  78.4290619  21.7703857  50.1114731  28.4320583
  21.4748516  50.6379013  27.6892471  22.5626202  50.5528488  28.7383003
  68.3652191  24.5492268   9.0311022  67.5594940  24.2135506   8.6382093
  68.8675766  23.7655239   9.2539740  83.5989990  32.9390526  15.3100710
  83.3258362  32.2074585  15.8635893  84.2468643  33.4082603  15.8357630
  17.4926014  27.2963161  27.4418087  17.2408428  28.0732498  27.9410324
  18.1403599  27.6150112  26.8132591  21.9195213  48.6131020   9.2446871
  22.3384094  47.8615417   9.6641159  22.2654228  49.3725739   9.7135000
  26.2592678  60.8331337  55.3444138  27.1720333  60.6227570  55.5414734
  26.0228710  60.2339859  54.6363373  54.1689796  49.0352173   1.7672708
  54.6869545  48.6771698   2.4881980  54.2054253  49.9832993   1.8939387
  83.2260056  40.9907112  62.9332352  82.6367493  40.2569275  63.1080742
  83.9861221  40.5918388  62.5097198  59.4003487  47.4680061  65.3374863
  58.7590370  46.7613144  65.2630844  59.9681702  47.3574257  64.5748672
  78.1701508   6.8254128   1.9840751  78.2601013   6.6831160   1.0417945
  78.4739151   7.7227693   2.1208634  37.6674271  45.9528160  66.2601013
  38.5814476  46.1174698  66.0283966  37.1922035  46.7066193  65.9105682
  36.9088478  55.9197998  59.3756180  37.3696175  55.1711197  58.9969330
  36.3541985  55.5399971  60.0570450  12.8974628  18.0151901   9.0097504
  12.7935781  18.3284569   8.1112499  13.7992115  17.6966057   9.0495739
   7.6683774  46.2336807  79.9410477   7.8744802  47.1645126  80.0265350
   7.1932249  46.1686783  79.1126480  65.8086700  21.1751175  23.3308830
  66.6902924  21.5454197  23.2878323  65.8403168  20.5664692  24.0689754
  45.9027977  32.9688797  40.2898445  46.0400314  32.2591438  39.6624107
  46.5624123  33.6231346  40.0594292  34.9832726  54.4016724  17.7103958
  35.6856537  55.0488586  17.7739677  34.3522987  54.6664696  18.3797131
  50.0807533  36.0250511  84.9859772  50.9791069  36.3248596  84.8470078
  49.6211662  36.7939072  85.3234253  76.1943359   9.7721128  39.0508156
  75.7151260  10.2790041  39.7062912  75.8396072  10.0683994  38.2125931
  24.6333065  65.7703323  34.7430038  24.3634777  65.0264435  34.2044334
  23.8403015  66.2980957  34.8370323  68.7308502  13.7291880  25.8672848
  69.1753235  12.9781780  26.2605515  69.2358627  14.4873075  26.1613102
  56.4334946  26.4808922  83.6240082  56.3000145  26.8116856  82.7357559
  55.6049118  26.0577698  83.8490524  45.7363167  68.8360367  61.2046204
  44.8751221  68.7258453  61.6076508  46.3109474  68.2569580  61.7053223
  46.7212944  70.4653397   9.9928532  47.0649414  70.8543701   9.1886177
  46.4317207  69.5912628   9.7313728  22.0649490  53.4405212  81.9212570
  22.9454193  53.5756950  81.5709305  21.8952885  52.5077553  81.7893677
  25.3173885  30.2224884  70.1854630  24.4657307  30.4842300  70.5353241
  25.4934216  29.3745003  70.5930939  65.4599075  41.1684952  23.6886978
  66.2562180  41.1612206  24.2198009  65.0768738  40.3010750  23.8194485
  76.5697250  32.2468414  60.7929878  76.4995728  32.1061668  59.8487854
  76.8982468  31.4154797  61.1352501  53.6548195  22.1015224   7.7211599
  52.7135963  21.9987202   7.8617535  53.9804916  21.2074738   7.6170115
  43.1573372  32.5978127  74.7203903  43.2651825  31.6831055  74.9809952
  43.9339828  33.0383072  75.0653839   2.6319056  26.0010567  38.4230003
   3.1909125  26.0926266  39.1945953   3.2367685  25.7849236  37.7133102
  73.2931213  27.4926033  35.6800690  73.9451294  27.2852211  35.0106583
  73.5105972  26.9164581  36.4128647  53.4136047  52.6564178  14.5584803
  53.7160263  51.7545166  14.6649895  52.8064919  52.6197548  13.8193588
  35.6971626  70.9187012  88.1593628  36.1649399  70.2068100  88.5959625
  36.3723679  71.5719147  87.9759293  79.7593155  10.0836754  23.0437927
  79.3766937   9.3196564  23.4751911  79.1838684  10.8090305  23.2865963
  85.9232407   1.5396644  66.3074188  85.1544647   0.9728002  66.2450867
  85.5771942   2.3805206  66.6064911  61.1270294  41.1468430  42.5911598
  61.7316017  41.2237549  43.3292732  60.5700874  41.9226379  42.6558952
  32.0619545   9.1562986  14.0838184  32.4906235   8.3517933  14.3757868
  32.7504425   9.6440954  13.6318541  17.9688072  15.8544283  19.7502632
  17.7091312  16.7399311  19.4959316  18.3782825  15.9621687  20.6087246
  80.4666138   8.4971371   8.1517296  80.4034424   9.0246353   8.9479628
  79.9545822   7.7115006   8.3436518  10.8278494  29.5605183  88.9897156
  10.1508150  30.0456371  88.5179977  10.4165049  28.7235451  89.2053604
  80.5991669  60.6630707  16.8549404  79.7371368  60.4597359  16.4919128
  81.1130066  59.8683281  16.7114639  37.7525978  70.3626938  69.0441818
  38.5081177  69.9560242  69.4684906  37.7873993  71.2786865  69.3198242
  16.3007584  29.6462460  65.3294830  17.1924210  29.4950581  65.0159378
  16.3960056  29.7643661  66.2745819  67.7725372  34.2539253   3.4465837
  67.0239944  34.8293877   3.6039004  68.5234146  34.7385063   3.7895107
  63.6698265  43.7304764  74.0396042  64.3591156  43.0663414  74.0335541
  64.0704193  44.4875488  74.4669189  56.5026436  30.7769737  45.0680351
  57.3968430  30.9039745  44.7510033  56.4585686  31.2924595  45.8733673
  63.4334717   4.9806566  80.4954681  63.9359436   5.4665160  81.1494522
  64.0590286   4.3560929  80.1282730  58.7639389  21.3219528  31.4162579
  58.1452179  21.0279274  32.0848122  59.5412178  21.5857334  31.9086876
  75.1197357   0.4966738  21.4136715  74.3356171   0.6739774  20.8940907
  75.8389435   0.5370674  20.7833214  49.2895317   0.5476587  20.5809364
  50.0846863   0.3050907  20.1064663  49.5386162   1.3218086  21.0857925
  36.9308167  68.3904724  23.3063469  36.5199394  68.3243103  22.4443531
  36.5894623  67.6399841  23.7926292  48.4723091  39.9635696  13.7239370
  47.9338379  39.2185211  13.9907293  48.2919731  40.6366234  14.3802214
  70.7147751  68.2435150  86.0256348  70.2251205  69.0072708  85.7204361
  70.0451202  67.6494980  86.3646698  20.8985710  31.7390404   0.3391080
  20.2354584  32.0722733   0.9436494  20.4398117  31.0774536  -0.1786531
  58.8344574  51.2305260  21.4574490  58.2153244  50.6539688  21.9052105
  58.6385307  52.1032639  21.7982903  83.0979462  44.7101517  43.6159554
  82.9859543  43.7603836  43.6563263  82.2227097  45.0616837  43.7790833
   0.0596599  28.3475552  67.6830597   0.6387740  28.4207802  66.9244461
  -0.6709796  27.8109570  67.3757172  50.6701622  28.4972820  69.2429657
  49.8343773  28.0723839  69.0501938  50.8634377  29.0121155  68.4594955
  74.9392548  55.2255554  81.5381699  75.1943359  56.0725670  81.1724625
  74.5548553  54.7521095  80.8003922  53.7400856  70.9179764  20.8899288
  54.6161766  71.2648315  20.7214680  53.5263977  71.2247086  21.7711124
  64.5413437  37.9571190  65.0712357  63.8095245  38.2647934  65.6060410
  64.9739075  38.7575874  64.7739639  83.4365387   2.8769660  37.1739960
  84.3732758   2.9064364  37.3686485  83.3726959   3.1573110  36.2609978
  55.6297760  23.7954636  78.2643509  55.8039131  22.9484806  78.6748657
  54.7299042  23.7265530  77.9454193  30.4570122  40.1123924  62.1305542
  29.5064354  40.1799393  62.2204170  30.6249924  39.1724930  62.0627251
  46.7238960  41.5999374  27.5320816  46.5149994  42.2004204  26.8165283
  46.8232613  42.1653938  28.2979927  32.0032654  21.9772720   4.4760237
  32.0606041  21.0218678   4.4880934  32.8896751  22.2730541   4.6834345
  71.9675598  27.1998653  61.0368156  72.3849411  28.0612736  61.0388069
  71.8954239  26.9708157  60.1102295  39.4073105  17.0027733  75.8727188
  39.7742195  16.1808205  75.5471420  40.0386581  17.3048782  76.5256882
  77.5600739  65.0713501   1.2117075  78.0810471  64.3462677   1.5567801
  78.1476364  65.5205154   0.6040485  59.6872940  45.4303665  13.1960545
  59.6452370  45.0180817  14.0588903  60.2858887  46.1682320  13.3120928
  41.9815865  64.3762817  44.6209755  42.5180893  63.5853615  44.5676880
  41.1259079  64.1082916  44.2859726  24.7698593  10.1547613  33.8077240
  25.2155838   9.3308086  34.0043564  25.4782429  10.7856646  33.6797180
  66.8913879   4.2799854  37.2399254  67.8150482   4.4039388  37.0214729
  66.5115585   5.1566119  37.1808434  32.6129265  29.9259262  75.9305801
  32.4697838  29.1157074  76.4197540  33.5583496  30.0687962  75.9751968
  71.7436218  46.7301865  77.8814545  71.4375458  47.2123947  78.6495895
  72.5922241  46.3740730  78.1446915  59.5057220  67.2986832  58.8271637
  60.2169991  67.9259186  58.9571304  59.3409538  66.9393845  59.6989365
  14.8799906  20.1736813  27.3669930  14.7471437  20.5781517  28.2243061
  14.8666544  20.9067631  26.7516499  41.5454597  50.9149704  62.6534309
  42.2505569  51.1145821  62.0376205  41.8328400  51.3022003  63.4802895
   6.2224565   6.4242206  82.6341858   6.4294462   5.5283647  82.3680496
   5.9526081   6.3459473  83.5492249   2.1133981  42.3018227  57.8991928
   2.1494997  42.0137215  58.8112946   2.7222571  41.7226830  57.4408073
  54.8729019  32.7207718  57.4929123  55.5265350  32.2151947  57.0098076
  54.3508682  32.0618820  57.9507103   4.5292234  33.2263107  61.3413315
   4.3350930  32.3007393  61.4891930   3.9982977  33.4639244  60.5811424
  85.9962082  26.4900551   1.2833990  86.3468857  25.6424675   1.0098093
  86.7105026  27.1072254   1.1249239  16.7007103  66.9383469  52.1767845
  16.0933475  66.3631897  51.7114563  16.4485092  67.8214645  51.9070930
  56.6293564  48.6249657  64.7839050  56.8761673  48.5908394  65.7081070
  55.8196068  48.1170502  64.7333298  85.5005035  39.3239059  49.6797638
  86.2348633  38.8103867  49.3432388  84.7248230  38.8137016  49.4468689
  54.2064743  22.3354301  38.6079521  54.1062164  21.5570774  39.1559944
  54.5565987  23.0014591  39.1996040  70.2230759  24.1351681  50.4229202
  70.6593781  23.5245609  49.8287544  69.6058197  24.6106319  49.8668938
   6.0861831  69.3285828  59.6418915   6.0606909  70.2620468  59.4315872
   5.7474670  69.2750702  60.5355568  31.8213539  59.8314056  41.9120178
  31.9936886  60.1225471  41.0166016  32.4782867  60.2834511  42.4414749
  44.7596016  43.5654144  82.1964340  45.3628349  43.4963455  82.9364166
  45.2046967  44.1445961  81.5778351  59.9463730  53.1191444  67.4050980
  60.5567322  52.3834534  67.3555603  59.2098503  52.8569069  66.8528290
  54.7387352  59.5008583  84.9123993  55.1371231  60.3459053  85.1207581
  55.3984756  59.0480499  84.3871002  49.1703835  24.8073215  65.5982742
  49.4636650  24.5342216  66.4675446  48.9857178  25.7420006  65.6904831
  45.7825851   2.4912271  74.6237030  46.5309372   2.9016535  74.1903992
  45.1720886   2.2954078  73.9129410  76.8731079  40.0117760  34.7713432
  77.6133575  39.9111099  34.1729050  76.1827087  39.4680786  34.3918953
  56.0111580  46.4742050  82.1383743  55.1456833  46.1016235  82.3068085
  56.6184959  45.7526588  82.3019028  14.1467018  49.3431549  55.8209763
  14.8162155  48.6606636  55.8677254  14.3586855  49.9363899  56.5416489
  82.5774078  65.5284424  72.8276443  82.2419739  65.6700134  73.7128983
  83.4846878  65.8313522  72.8640060  54.2566566  70.8599396  72.5883255
  54.7143631  71.0183563  71.7627029  53.7611275  71.6636658  72.7455063
  78.8251190  67.5122833   9.8776293  78.9126434  66.6151428   9.5555706
  78.2797012  67.9493866   9.2236481  41.5401230  65.4098129  79.0178528
  41.6955566  65.6225815  79.9380646  41.9887009  66.1024399  78.5327988
  52.1530914  28.5315437  54.9860077  52.1413727  29.1915379  55.6791916
  52.3726082  27.7156353  55.4358253  71.8197784  70.1805496  13.6195240
  71.5814209  70.9286041  14.1670933  70.9943466  69.7187424  13.4724169
  12.3041840  33.9211655  65.6705780  12.2625656  33.8923683  64.7147217
  11.8201771  33.1458244  65.9548569  61.1119537  49.8413887  62.5230637
  60.1755066  49.7775040  62.7107391  61.5373573  49.6494293  63.3587761
  80.2252808  40.9737663  42.2948647  79.4676895  40.4127769  42.4608917
  79.9184875  41.8571815  42.4990387  81.0004578  25.0641441  84.0003815
  81.2564774  24.2023563  84.3290253  80.4877319  24.8779011  83.2138367
  61.5342979  32.9182434  49.1386909  62.0899734  33.3769035  48.5085411
  62.0236931  32.9545860  49.9605179  10.7516689  17.4994545  13.8578815
  10.4496593  16.8319931  13.2418299  11.4520483  17.9561310  13.3918915
   0.7863907  55.4296417  32.7600174  -0.1228927  55.4315987  32.4609680
   0.7367164  55.1558838  33.6758881  19.0051041  59.1012840  88.4198761
  19.0030766  59.1688118  89.3746872  18.3178616  58.4646492  88.2233276
  59.0304832  52.7502975  28.9607830  58.4901581  52.1978149  29.5256252
  58.9598999  53.6250381  29.3429813  69.4534149   6.7612953  30.4516716
  69.0318146   7.5941553  30.6634064  68.7275467   6.1666484  30.2626247
  47.7541237  14.2530537  77.3217392  48.4517212  13.8988695  77.8732376
  47.2476692  14.8154125  77.9078217  81.5821762  37.6661186  66.5856934
  81.8252258  38.5699425  66.7863541  82.2828064  37.1388397  66.9695206
  67.8989334  47.0529137  36.9804573  68.1508789  46.6278992  36.1606331
  68.6477356  47.6058617  37.2035675   6.4554734  69.6385040  11.7681122
   6.7451992  68.9955215  11.1209173   7.0293474  69.4959946  12.5208349
  16.6164112  50.8295708  56.6171303  17.1078300  51.6479836  56.5468292
  16.7067909  50.4212151  55.7561378  36.9051056  58.1381035  70.3759155
  37.0143051  57.8781891  71.2906570  36.4470215  58.9774971  70.4184799
   2.5926702   8.3474522  30.8209095   3.4215257   8.1754065  31.2677097
   1.9817264   8.5650244  31.5249271  67.0993881  17.7373562  31.3605785
  66.8918457  17.7951450  30.4279366  66.3455811  18.1324883  31.7986221
  33.1892853  55.8800125  63.5891762  33.1470108  56.4855576  64.3292847
  32.2882156  55.8281097  63.2704086  25.0428925  17.8428059  58.9008408
  25.6009674  17.5983276  58.1625900  24.2426052  18.1769829  58.4957504
  68.1874313  26.0373497  18.2382221  68.5265121  25.4931393  18.9489174
  68.9057007  26.0819397  17.6070843  40.0721359  49.5809174  47.0704536
  40.1209793  49.0047798  47.8332863  39.8846016  48.9935379  46.3382988
  86.3952713  39.9830475  80.2250214  85.4462204  39.9665718  80.3485107
  86.7071152  39.1889915  80.6591492  65.1323471  63.2250519  30.1707058
  64.8790512  62.7113075  30.9376068  65.6326675  63.9585342  30.5283661
  34.3054161   9.8482418  78.9411469  35.2275505  10.0427237  78.7735901
  34.2316017   8.9034328  78.8065338   9.2700462  31.1192169  87.2924042
   8.5109968  31.5634747  86.9146271  10.0191450  31.6456604  87.0132217
  83.8732758  61.3830452  23.7513905  84.3559418  61.5703583  24.5564880
  84.5130386  61.5165596  23.0520248   9.4854622  20.9855442  74.3207397
   9.7197123  20.1016388  74.6036987   9.1600389  21.4123917  75.1132889
  65.8283463  51.1741714  63.5284119  65.7459030  50.6696472  62.7191582
  65.1593781  50.8090172  64.1075211  11.8198299  54.1565285   4.9194331
  11.5930748  53.2276535   4.8746848  12.7533703  54.1652679   5.1307597
  36.4615631   2.5353405  73.8067703  36.5746918   3.4465797  73.5364380
  36.8619995   2.4916308  74.6750793  72.1851654  11.2641916   9.3760386
  72.7350998  10.5733337   9.0065517  72.2605209  11.9883604   8.7546415
   3.4187362  58.7659264  46.6271629   3.7037051  58.4730301  47.4927483
   3.6245196  59.7005997  46.6108246   9.5930157  36.7686882  57.2063828
   9.5660295  35.8262291  57.3715363   9.2211819  36.8690338  56.3300819
  22.5601463  18.2751007  13.0104818  22.8368969  18.2918491  12.0943155
  22.8696232  19.1067410  13.3694105   8.6343355  56.8187866   7.4202318
   8.8653507  57.2209854   6.5829139   9.2518740  56.0937500   7.5161505
  15.7556734  62.5118065  60.6288490  15.9345388  63.0463371  61.4024887
  16.4283218  61.8310471  60.6473503   4.6661077  10.0121317  35.2700615
   5.5034661   9.6604786  34.9677315   4.1275306  10.0606565  34.4802437
  71.4165802   6.6266832  28.4578819  70.7410507   6.8112097  29.1104546
  71.3940887   5.6755981  28.3522243  63.1633759  29.2881832  46.1802711
  62.6798935  28.9202862  46.9199524  63.6962967  29.9841385  46.5648117
  27.3755264  58.0434456  65.3776245  27.9384308  57.3260651  65.6687164
  27.9265537  58.8231430  65.4459915  50.1754074   3.0639634  21.4577847
  51.0506439   2.9214034  21.8181610  50.0819664   4.0160336  21.4251823
  72.6648865  59.6254234  67.4602356  72.4433136  60.2610626  66.7797165
  71.9465790  58.9930687  67.4403458  76.8662033  64.6922684  26.4087353
  77.5033569  64.0392914  26.6983662  77.0569153  64.8171005  25.4790707
  44.3763428  68.7565460  52.5266914  43.5214119  68.7674713  52.9570465
  44.1848335  68.9482574  51.6086502  24.4865036  48.4019508  27.2200203
  25.1860313  48.1912613  26.6015530  24.9076672  48.9537315  27.8791065
  76.6977844  68.8976898  78.2172165  77.5747681  68.9804306  78.5917664
  76.1069717  69.0633392  78.9518814  60.9076309  67.2735977  41.4511795
  60.0743904  67.7252655  41.5851250  61.0021210  67.2223969  40.5000305
  77.7925262  19.8346634  50.0880051  77.3311691  19.3847866  49.3801956
  78.7160492  19.7854576  49.8412209  47.9597931  24.0493660  71.7027130
  48.2715378  23.1664886  71.9016495  47.3123512  24.2337570  72.3831863
  71.0673218  51.6746788  71.2531738  70.2508850  51.2411575  71.0047379
  70.8146210  52.2798538  71.9504166  71.2134094  16.2781296  18.3806210
  71.8218002  15.5874090  18.6432877  71.6324005  16.6921864  17.6261463
  82.4855576  15.9860334  43.7314644  82.9637451  16.4487591  43.0433846
  81.5667648  16.0538540  43.4717445  86.7828979  16.4147415  59.4546585
  86.0817642  17.0633183  59.3914528  86.8887787  16.0886250  58.5609741
  50.6154938  54.0533638  35.0202827  50.5919838  54.7582359  34.3731079
  51.1254120  53.3602104  34.6010590   5.0709362  56.3501549  87.5760727
   5.7057247  57.0308876  87.7994080   4.2190614  56.7512283  87.7483521
  27.8226986  29.2241802  85.8012085  27.1383114  29.5892658  85.2403564
  27.4280682  29.1954117  86.6728058  27.9538174   8.2114763   6.7265129
  28.7422295   8.5149813   7.1765389  27.7856827   8.8790274   6.0614276
  46.7135849  42.9749641  60.7763290  47.4116249  43.2741203  61.3589783
  46.1616478  43.7464142  60.6480026  65.2809753  51.0196533  48.8469124
  65.3802338  50.3767242  49.5490685  64.4835663  50.7533264  48.3892670
  82.7260208  16.6847210  22.0382576  82.5769119  17.2623367  21.2896862
  81.8796387  16.2635098  22.1880951  14.6753092  51.1220589  40.1252365
  15.2326546  50.3461189  40.0659676  15.2264681  51.8376160  39.8083267
  41.2943611  66.2305069  40.2711143  41.5951271  66.9072342  39.6646385
  42.0784874  65.7168503  40.4648476  27.9275455  45.5539093  89.0132828
  28.8042526  45.5060387  88.6320648  27.3714504  45.8609390  88.2972336
  78.8386612  12.2485981  79.5979767  77.8826828  12.2026472  79.6129761
  79.1119080  11.8173103  80.4076462  73.7043381  46.8534393  17.7847443
  72.8761978  47.2085838  18.1076736  74.3377914  47.5571289  17.9253864
  34.7819176  38.4937515  87.4975967  35.6933098  38.7265663  87.3204193
  34.3192711  39.3315849  87.5126495  80.6663666  16.6797009   3.2685900
  80.9129410  17.5924530   3.4179702  81.4998016  16.2199478   3.1673443
  80.2279510  26.2476006  23.3942795  81.0783157  26.4180908  23.7993107
  79.7127686  27.0328178  23.5793514  69.4049683  15.6017532  56.3958015
  69.2173309  16.1175041  57.1800385  70.2736435  15.8936491  56.1193428
  49.8582878  12.4852533  52.6176376  48.9826660  12.6678572  52.2767944
  49.7876129  12.6469078  53.5584373  51.8139191  66.4852295  69.3595047
  52.4229202  67.0688705  69.8119507  51.2350807  66.1613922  70.0496597
  80.6452942  56.3719940  27.2816868  80.5873947  55.8654785  26.4715500
  80.3156281  57.2391891  27.0460472  72.1370621  37.2378654  51.4391708
  72.5866776  36.4728355  51.7980690  72.0146255  37.8180809  52.1905594
  20.7055149  59.4007988  31.9088554  20.5921593  59.4026718  30.9583931
  20.7611561  58.4739952  32.1416016  57.8492661  17.6621304   5.4562082
  58.6542664  17.1736050   5.2843018  58.1297150  18.5759583   5.5062013
  25.8013039   5.9179626  59.6360474  26.7500000   5.9500022  59.5128365
  25.4525585   5.7343636  58.7637520  30.5889168  51.8623734  22.2710762
  31.1994877  52.4355316  22.7346745  30.7335243  50.9976349  22.6551971
  17.7792473  26.0376873  17.1394005  18.1080933  25.3895721  17.7623291
  17.2264328  25.5354996  16.5407066  80.4487991  51.3545837  74.7639618
  80.6332703  52.2894325  74.6730804  79.7816010  51.3075714  75.4487076
  12.1620836  63.9050903  28.9029579  11.5132570  64.6088028  28.8964996
  12.3063850  63.7208672  29.8311138  76.7682495  61.3199615  55.0462456
  76.4027328  61.7051468  55.8426514  76.1225739  61.5158463  54.3673019
  43.8126259  42.5305672   7.2729139  43.7439384  43.4143791   7.6340127
  42.9464035  42.1474075   7.4110560  83.1864166  57.8018494   2.9156744
  83.2705460  57.1685753   2.2028503  82.2867813  57.6961288   3.2250466
  40.5800056  37.7219048  57.8072014  40.4985313  36.7781219  57.9445572
  41.1422920  38.0203171  58.5220566  31.0592861  10.3733492  68.1474915
  31.4263935  11.2033148  67.8431473  31.3116970   9.7393427  67.4762497
   0.7760251  59.1908531  51.0021896   0.4858745  58.4668846  50.4472923
   0.6979272  59.9655571  50.4454422  54.1297607  10.6775742  22.6312256
  54.5676003   9.8270245  22.5981789  54.4594498  11.0857277  23.4318180
  52.3658867   8.4593630  78.8173523  52.3245316   8.8499279  77.9444427
  52.9705620   9.0207853  79.3025436  54.4309273  57.3661118  28.9471874
  54.7993851  58.2267494  28.7477551  55.0865517  56.7453690  28.6292744
  19.7972240  31.1299686  12.4335136  19.6413231  30.2914677  12.8680725
  20.6571846  31.4072361  12.7494593  56.2606010  28.0730324  30.4142590
  55.3768845  28.2369881  30.0850258  56.2623978  27.1435452  30.6429119
  79.1448364  70.6899261  26.8655510  78.4508743  70.6391373  26.2082310
  79.8906174  71.0659256  26.3979282  27.5388718  50.5299301  82.9953995
  27.7290325  51.4680481  82.9927902  28.3281078  50.1245689  82.6362076
  65.3426437  21.2781162  80.9425049  64.7266159  20.6485138  81.3171310
  64.8347168  22.0841351  80.8499146  25.5557365  41.7061882  58.4414368
  25.5995693  42.4742432  59.0109978  26.1056347  41.9325409  57.6913643
  20.3150826  63.1171303  19.7128563  19.7769547  62.5524940  20.2676868
  21.2153282  62.9175034  19.9696369  78.0150986  54.5544968  70.6036758
  77.2980347  53.9265289  70.6914673  78.7494965  54.0352058  70.2762222
  84.6453323   8.5387011  34.0924072  85.1653366   9.1666164  33.5908585
  84.5656586   8.9332476  34.9608612  11.1576691   9.9120502   5.8588758
  10.9641438   9.7215862   4.9409957  10.4456787  10.4870062   6.1394582
  54.9207993  50.7645569  32.3630562  55.5739594  51.3878326  32.0450363
  54.5571632  50.3726730  31.5690632  16.6366749  65.2986374  57.0104027
  16.0805931  65.3310242  56.2319717  17.5181599  65.4769287  56.6826363
  62.4170494  13.9246902  71.2361450  62.5649910  14.8092480  70.9016266
  63.1813774  13.7446852  71.7835388  59.5538788  13.8372240  41.3004875
  58.7201424  13.6337099  41.7243919  59.6517639  13.1627569  40.6283684
  74.5005112  65.2170258   4.7960296  74.9441605  65.7512512   5.4548273
  74.2256775  64.4319687   5.2697186   5.5781245   6.2596068  65.6420364
   4.7018151   5.8928094  65.7593994   6.0323005   6.0616202  66.4610367
   2.6604180  21.1042557   3.4373775   2.5142257  21.1991901   2.4961829
   2.4829838  20.1806374   3.6153605  23.0637836   5.2252984  19.6479549
  23.2109947   4.7741542  20.4792366  23.5119419   6.0650978  19.7485657
  87.0294189  46.9385681  32.9378052  86.1969757  47.2618408  33.2824249
  86.8993988  45.9949226  32.8436699   8.5768070  15.1225042  54.8683319
   8.1470804  15.1280546  55.7236290   8.2044668  14.3642750  54.4181290
  48.7955933   8.8572645  62.5392723  48.1855125   8.2659073  62.0984459
  48.2418327   9.3925295  63.1076698  53.7220726  62.9680405  86.4865723
  54.1813354  62.5874825  85.7379150  54.0779381  63.8535080  86.5610046
   7.0511379  65.6525497   0.5467272   6.5610323  64.8303680   0.5398669
   7.2294822  65.8173599   1.4726126  76.6510696  50.3761139  34.3544197
  75.7208099  50.5934105  34.4146423  77.1004028  51.2140350  34.4649658
  60.4598503  21.1680737  17.9295616  60.2801857  21.8592682  17.2922192
  61.1972847  20.6846390  17.5571136  79.3123550  31.2572041  30.0622444
  79.3916779  31.6291065  30.9406681  79.7582474  30.4120941  30.1187820
   1.1005505  46.5696793   8.7375546   1.4836506  45.8005714   8.3157282
   0.6807041  46.2261086   9.5261736  86.0410309   3.7670894   2.5154912
  85.8350906   4.4456639   3.1584194  86.9878616   3.6471817   2.5887446
  83.7892914  40.9478035  72.1535721  83.5107803  41.1652069  71.2639694
  84.6911240  41.2642822  72.2062912  33.0471458   2.1922619  36.9058151
  32.8381119   2.9831855  37.4027824  32.2563438   2.0129976  36.3971672
  51.8907318  15.7934866  25.3533821  51.7414780  15.1274128  26.0244274
  51.4982147  15.4272442  24.5609016  14.7597284  70.6546326  56.1199570
  15.3324060  71.3660812  55.8334007  14.1712370  71.0620728  56.7554893
  82.6095428  47.1186523  54.6607285  82.5956573  47.9449959  54.1778297
  83.4877548  46.7685318  54.5111122   3.1955583  28.4190235  63.9850616
   4.0856681  28.7321911  64.1458817   3.3134942  27.5885048  63.5240211
  18.2275200  53.2318840   0.3606315  18.4401646  54.1579514   0.4764528
  18.9316368  52.7662048   0.8118494  50.8012695  15.3339872  29.0584583
  50.2061691  15.7529907  28.4367466  50.3585548  15.4119711  29.9035358
  17.5209370  60.3779373   8.0487337  17.1758499  61.1234436   8.5400257
  17.4784260  59.6455498   8.6635799  16.5757465   6.7462115  87.2628937
  17.0478420   7.4782820  86.8661194  16.9735794   6.6451645  88.1276169
  60.1559219  25.9432125   6.0066538  60.0910645  26.4186363   6.8349042
  60.9409752  25.4037457   6.1009865  59.2027664  49.3646851  47.7711563
  58.5376587  49.9345131  48.1573715  59.2598343  48.6217346  48.3719826
  30.3264313  30.7062359  85.2311325  29.7977524  31.4800129  85.0362015
  29.6914501  29.9931984  85.2990036  37.2932816  42.5826645  80.6359100
  38.0247879  43.1953659  80.5602570  37.1600456  42.2576065  79.7455139
  24.8409042  30.4366150   8.9199171  24.5613384  29.7535400   9.5294113
  24.5569592  31.2538643   9.3294401   1.2369817  19.7664261  53.5202446
   1.7996646  20.4034729  53.0800323   0.3733958  19.8991795  53.1293144
  16.6002960  11.5729446  70.1510620  16.6947613  12.5136232  70.0012817
  15.6816177  11.4603472  70.3951569  54.9006691  32.2009430  43.3465729
  55.1241074  33.0569801  43.7119598  55.0524673  31.5868683  44.0649757
   1.4173329  70.3705444  70.8950577   1.7442107  70.9078293  70.1734543
   0.5516558  70.0820999  70.6058578  57.4311523  40.9356804  72.9553909
  57.6890945  40.5327148  72.1263504  58.1258202  40.6912308  73.5668793
  64.5630188   5.8995266  62.1051140  64.0683746   5.2966199  62.6601524
  64.1429367   5.8348570  61.2474518  12.1812162  47.8086815  41.0957642
  12.7252312  47.6084023  41.8574524  11.2828636  47.6999550  41.4078102
  64.9371490   0.6436528  68.5992661  65.1744385   1.4235297  69.1009827
  64.8423309  -0.0448760  69.2574234  38.6137047  17.1934433   1.9911124
  38.9782562  17.8820992   2.5470688  39.3790283  16.7296352   1.6514150
  36.7137833   1.2694627  69.7444611  36.2741585   0.9693664  68.9489059
  37.2255821   2.0280461  69.4636688  59.6744461  10.2516918  42.0395241
  59.3728561   9.6733150  41.3389854  60.4456787  10.6865416  41.6757431
  45.9446144  51.6014709  35.2173157  45.3194313  52.2380066  35.5640144
  46.7347908  51.7318420  35.7415810  26.2312355  27.9979172   7.6691141
  25.7104073  27.2029209   7.7829237  26.1303883  28.4706421   8.4953051
  53.2672768  54.8228951  74.8129959  53.8368225  54.7886314  74.0444412
  52.5448799  55.3934059  74.5505219  44.5567474   1.7788115  84.0118866
  44.1574287   1.4251757  84.8066940  44.2000084   1.2410469  83.3049316
  57.3332977  39.0883331  39.5138931  57.3424644  39.3500900  38.5932274
  57.8515167  38.2839546  39.5393753  49.7444153  56.4193001  80.6056595
  50.5839996  56.3649673  80.1491776  49.1693802  56.8808784  79.9953156
   0.3022123   5.2136955  47.2930756   0.9563814   4.7907043  47.8492889
   0.8059788   5.5772009  46.5648499  23.9890480  29.5159626  17.6525555
  23.5272350  30.3519497  17.7164822  24.1798477  29.2777481  18.5597935
  43.5820618  68.4400940  25.1056728  42.7282944  68.8139267  25.3237610
  43.8143349  67.9117966  25.8693314  32.1642609  19.4501457  89.3432007
  31.9324856  20.1662121  88.7517853  31.6409950  18.7088566  89.0383759
  82.4018021  42.5904427  74.1617432  81.5371246  42.2221565  73.9803009
  83.0156326  41.9367065  73.8269653  28.5121536  45.4649506  82.1874847
  28.8565598  45.9293098  81.4245987  29.1913509  45.5636482  82.8546982
  84.8368149  64.7591476  30.2635727  84.7272415  65.6248169  30.6570778
  85.0645676  64.9378738  29.3512039  47.2886543  22.2675838  74.6672516
  47.9011765  21.9521618  75.3317490  47.5403786  21.8024654  73.8694229
  56.6953316  46.7925072  28.4976463  56.9522362  46.3035889  29.2794304
  55.7544479  46.9341125  28.6021385  76.9732285  56.9793739  45.0588074
  76.9010849  57.1863518  44.1270409  77.7198639  56.3830109  45.1145782
  55.1964722  70.4552765  64.5326767  55.8395615  70.4141388  65.2404709
  54.8678093  69.5596085  64.4553223  43.2116776  60.8605003  27.5468254
  44.1420441  61.0080986  27.7167244  43.0221519  60.0205765  27.9649620
  15.6127577  65.2830124  27.9332886  15.9125948  66.0965271  27.5276756
  14.6586733  65.3591385  27.9459076  45.0562401  64.5159149  17.6671715
  44.9293976  65.4608231  17.5817280  45.7399940  64.3075104  17.0305576
   8.4656363  43.1259918  70.0654907   9.2444582  43.4388046  69.6052551
   7.8038292  43.7974739  69.9000931  67.8288803  14.5641184  33.4152679
  67.4547806  15.4332418  33.5598450  67.2131195  13.9650650  33.8374100
   8.5069456  17.1814632  10.9848089   8.8094063  16.2833843  11.1197243
   8.7230635  17.3724117  10.0720854  30.5016785  56.4954491   9.4293919
  30.9138908  56.0234795   8.7058191  31.0152054  56.2499008  10.1989546
  60.8641815  22.1681480   9.2625790  60.8558006  21.5491219   8.5325317
  60.3941803  21.7174625   9.9641581  64.5214081  57.9043503  13.3050880
  64.3919296  57.0362358  12.9231920  64.5152206  57.7535439  14.2503138
   2.2852855   0.3736397  30.7864780   1.4882976   0.8688731  30.5973053
   2.0143921  -0.2783580  31.4328117  40.0752106  31.3869934  42.7026329
  40.0623627  32.2308388  43.1542854  40.5408821  31.5602894  41.8844948
  51.2064209  34.7295761  16.2559032  50.3041611  34.4946327  16.0392017
  51.6723785  34.6861267  15.4209013  28.6098118  40.2910080   0.7342303
  28.0221329  40.6288376   0.0584071  28.0773010  40.2769814   1.5295088
  11.5712128  26.7425117  23.1136475  11.4614239  26.5825233  22.1763210
  12.4881439  26.5295486  23.2871876  15.5963097  55.1534348  15.2341204
  15.8169670  54.3761024  14.7209949  15.3732090  54.8131180  16.1005173
  46.8627586  12.5710888  22.9235573  46.6225166  11.6775160  23.1685963
  46.0742874  12.9273729  22.5141602  26.5160770  58.2214508  20.6773758
  26.9648323  57.7298203  21.3652363  25.6283360  57.8636131  20.6674824
  15.2119493  63.2667580  21.0420666  14.9514713  62.3456841  21.0435734
  15.0207338  63.5711899  21.9291916  70.8425903   6.6925807  19.8104000
  71.7860794   6.6283388  19.6622982  70.5061798   5.8233881  19.5923080
  11.8454952  40.1933289  84.8573532  11.1701794  39.6310005  84.4779205
  12.5598936  40.1727257  84.2206039  51.3706131  49.1216507   8.0002127
  50.9211121  49.2258415   8.8388577  50.9407806  48.3713646   7.5896721
  18.6186123  57.6002464  21.5252037  18.0074100  57.8198929  20.8220539
  18.1371746  56.9840508  22.0772476  60.7719803   4.0025158  54.3597717
  60.9192238   4.2312465  53.4420395  59.9825745   4.4859476  54.6034164
  24.7959480  14.6930161  12.9932470  25.7313900  14.5397511  13.1262531
  24.3668442  13.9789639  13.4646616  67.3843842  46.9757042  47.3318672
  67.2720795  46.0864143  46.9960327  66.8154449  47.0150414  48.1006241
  71.0549545  60.9248466  56.6802368  70.9068756  61.5707512  55.9895020
  70.3630600  60.2756653  56.5534286  64.2013474   5.0534024   9.2223244
  64.2938232   5.1131649   8.2714777  63.4224739   4.5127287   9.3537016
   2.0477693   6.0768328  88.8876114   2.1986964   5.1326442  88.8433304
   2.0410364   6.2746458  89.8241272  17.0808868  27.0674114  52.3271370
  16.7731457  26.6195374  51.5391426  17.0148048  26.4085617  53.0183563
  11.8890810  57.1498375  60.9986038  11.9107552  58.0959854  60.8551941
  12.5122862  56.7969894  60.3635101  29.0049953  55.2155991  51.1399994
  29.6658554  55.5956345  51.7188492  28.5729904  55.9709663  50.7412224
  76.8477936  45.8039780  45.9975662  76.1046295  45.9519691  45.4127197
  76.8156967  46.5345345  46.6152153  46.3392982  48.5410805  74.1826477
  46.9394264  48.9290161  74.8195038  45.7832451  49.2684975  73.9035492
  31.1537685  69.6894531  30.6683712  30.8031788  69.5574570  31.5492210
  31.9208717  69.1183624  30.6278400  60.8011055   2.5541012  45.7024651
  60.0863342   2.7378702  45.0929031  61.4740028   3.1988297  45.4839096
  10.3184090  10.2271633  88.4778595  11.1320362   9.8488760  88.1444855
  10.5317602  10.5078287  89.3677750  10.5879450   2.1764948   6.2447448
  10.2706976   2.9425933   5.7665410  10.5934534   2.4517598   7.1614947
   0.2685056  59.2783661  40.5227318   0.8252449  59.9700470  40.8802986
  -0.6156482  59.5127602  40.8048058  59.4380226  36.3248596  51.4722977
  60.1969299  36.5169067  50.9214745  59.8062897  35.9041138  52.2492027
  37.4477234  48.2658577  22.0527210  36.9911308  48.9983292  21.6389103
  38.3762093  48.4793434  21.9601536  62.3234329  21.2615967  20.3299236
  61.7919655  21.2636490  21.1260223  62.5549011  22.1804047  20.1941032
  65.6346436  59.1799698  33.3791771  66.3691025  59.6362305  33.7898178
  65.2888260  59.8063889  32.7433777  71.1662216  28.7577477  58.3373413
  70.9079132  29.2986450  59.0836220  71.4091263  29.3869781  57.6581535
  21.6441708  71.0249405  33.5841560  21.5271339  71.6692963  32.8860550
  22.5147877  71.2092361  33.9367104  26.8625679   8.4732695  86.1632233
  27.6781235   8.2047176  85.7401581  26.7944107   7.9079170  86.9326096
  69.0470963   1.0348630  50.9780693  68.8127823   1.1158074  51.9026108
  68.2948608   0.5989635  50.5776138  41.4061050   2.2378430  47.7229271
  40.8199883   2.7195303  47.1392517  42.2293205   2.1764474  47.2383842
  34.5767670  41.4929276  61.9875145  34.4970779  40.6736183  62.4759941
  33.8540154  41.4691391  61.3603821   0.7649873  16.5595932  47.3793793
   1.1622096  16.7293472  46.5251961   1.3462123  16.9931526  48.0042305
  27.0478134  39.7643623  65.5606155  26.5940533  38.9449959  65.7580261
  27.7234745  39.8325157  66.2351990  79.1189651   4.3247910  33.4783821
  79.3477707   4.7470345  34.3063850  78.2926483   3.8764601  33.6584587
  77.5168686  28.1038589  17.4617653  77.3187637  27.6525593  16.6412086
  76.8030853  28.7327862  17.5675869  43.6230736  55.2827606  73.8711014
  42.6948471  55.3383064  73.6440811  44.0513573  55.9036331  73.2817688
  55.9491577  21.0885696  32.9274826  55.9230919  20.2117996  33.3106651
  55.4639626  21.0056934  32.1065369   6.5606856  38.6541176  65.4982605
   6.5812860  38.8233795  66.4401550   6.2905231  39.4868050  65.1111298
  69.0829315  31.6183910   8.4920244  68.7090683  30.7408409   8.5718060
  68.3720398  32.2058220   8.7485075  74.8482895  33.2832069  68.1710434
  75.6489868  32.7772179  68.3091965  74.8830872  33.9724579  68.8343353
  53.2985115  48.2921410  52.2825127  53.8492928  47.8824043  51.6154366
  53.9185066  48.6583595  52.9131622  42.8424416  69.5542908  47.3970337
  43.6584282  70.0404587  47.2785378  42.9718819  68.7449646  46.9025993
  73.9928436   5.2376323  26.7471066  74.2631149   4.9801149  27.6285095
  73.1197739   5.6121769  26.8641415  40.2509613  62.2618103  11.5077696
  40.0897675  62.7800064  12.2962637  39.3929634  62.1884804  11.0898018
  76.0764160  12.0559444  78.4147263  75.2519455  11.7961855  78.8258362
  76.3905487  11.2606506  77.9845352  44.3734932  28.1842594  59.7491646
  44.3084373  27.9821625  60.6825218  44.6585770  29.0975914  59.7211647
  55.5081558  23.2889500  34.5206528  55.0750198  23.0506592  35.3403091
  55.5765991  22.4653645  34.0376854  10.1975832  58.3398514   1.5095712
  10.4895973  57.8985939   0.7119173   9.5807886  57.7271843   1.9101117
  73.4679794  51.7383690  82.9711380  73.7202911  50.9225578  83.4036026
  74.1907425  51.9253693  82.3720779   1.5181274  30.5504150  83.3661804
   2.4410412  30.7957287  83.4316254   1.5261176  29.5937099  83.3365173
  34.2731285   8.7713919  86.9298019  34.5908813   7.8995452  86.6949692
  34.8960876   9.3717194  86.5202179  42.0603294  50.1092415  71.9644241
  41.3795662  50.1715660  71.2944183  42.7685356  49.6233521  71.5418320
  76.5782700  62.3212242  46.7169724  77.0303879  61.6436920  46.2142143
  76.6128845  62.0111961  47.6219139  53.6000175  53.6599007  53.0564957
  54.3757362  53.2322426  52.6937332  52.8824730  53.3740234  52.4911346
  27.9796829  20.4631081   6.8340316  28.5501633  20.9927635   7.3910308
  27.3362694  20.0897751   7.4364228  25.1298847  37.9569855  81.3027496
  25.6693039  38.7119331  81.0675583  24.5554199  38.2800255  81.9969177
  47.6486130   0.5005539  66.1949768  46.8428230   0.3264394  66.6814194
  48.3347588   0.0725632  66.7070923   6.6769857  32.0212746  36.1653900
   7.1013708  31.1800747  35.9965248   7.2207170  32.4333496  36.8367920
  80.1055756  57.4587517  65.1734695  79.5485687  57.4858246  65.9514465
  80.9321518  57.0887566  65.4834671  84.8521652  51.0293388  27.6717377
  84.9554443  51.6668739  26.9652557  85.2052002  50.2151108  27.3130875
  39.9405022  35.5209312  74.9553375  39.4608040  34.7797318  74.5855484
  40.4403114  35.1451950  75.6800766  45.7889023  69.6201782   1.8799367
  45.0906601  69.0494843   2.2008643  46.5914001  69.2424469   2.2398627
  40.2674675  41.6334724  59.2467270  40.6599960  40.8766594  59.6819115
  39.6530952  41.9874878  59.8897324  84.8865051  44.5809860  69.3297195
  84.4086685  43.7882462  69.5735931  84.7684860  45.1704636  70.0745850
  29.9829216   9.6390362  79.4249954  30.5589199  10.1328278  80.0086288
  30.5671635   9.0351439  78.9665146  82.6612625  18.8475113  80.1218185
  82.4385605  19.2043819  80.9816360  83.1825943  18.0680180  80.3137436
  46.2387199   1.7100337  77.2506714  45.8855362   2.0370383  76.4232941
  47.1531258   1.9930372  77.2492828  72.7039337   6.4156218  13.7511301
  72.0057068   6.6536684  14.3610821  73.2383957   7.2063818  13.6784668
  53.0873871  40.0537300  46.4960938  52.7795029  39.1664467  46.6809387
  52.8479004  40.2047272  45.5817223  27.3079643  63.1082077  40.8849945
  27.1664181  62.3098335  40.3762779  28.0347729  62.8938560  41.4698334
  46.6260414  71.0788269  15.5497770  46.2682457  70.1919098  15.5895557
  46.2357635  71.5283813  16.2993240  56.0147362   3.8503234  47.3200455
  56.0461617   3.1708281  46.6465988  55.6016541   3.4242611  48.0710869
  66.5038757   9.6595345  85.2509003  67.2930069   9.2369032  84.9119492
  66.1438751   9.0293055  85.8749542  66.5358658   6.8448496  32.9724922
  66.2193069   7.6397066  32.5432816  66.6101837   6.2041221  32.2652626
  13.5276604   2.6294703  67.3491974  14.3015213   2.8838947  67.8518295
  13.8748922   2.1234863  66.6145935  51.4246750  60.2571640  81.4143295
  50.6842041  59.9215355  80.9090652  51.1187210  61.0960083  81.7592392
  79.3083878  27.5352669  76.4647141  79.8993378  26.7823029  76.4718857
  79.8670883  28.2759895  76.2293091  25.1243725  16.6944370  77.1192551
  24.3599281  16.1187534  77.0981369  24.7729454  17.5503368  77.3645401
  55.7817688  57.2324867  71.7282562  55.6123810  57.4848213  70.8205872
  56.6979561  56.9553375  71.7328110  64.7717133  64.8013535  47.1394653
  64.4599075  64.7257919  48.0412979  64.9132538  65.7395172  47.0127869
   2.2526412   6.9189987  14.6593122   1.6022058   7.5053005  14.2727680
   3.0062842   7.4815674  14.8375559   0.9705623   3.6395857  82.7028809
   0.7439603   3.4822555  83.6194687   0.3526314   3.1018360  82.2076874
  26.1590366  47.3377953   9.0073462  26.2384224  47.0699310   9.9228668
  25.7934666  48.2215385   9.0471983  18.2820568  48.8243332  67.2860260
  17.9174385  48.0255089  67.6670380  19.1604118  48.8892021  67.6608810
  68.4276733  37.2661781  39.3248329  67.8024826  36.5450706  39.2515373
  68.0447388  37.8495140  39.9800491  17.9667091  19.4601307  29.8896275
  18.0485287  20.2856731  29.4121170  18.2841434  18.7966366  29.2770557
  50.5775299  35.4902496  76.3155899  51.5048409  35.5999870  76.1051483
  50.5273857  35.6363792  77.2602386  47.7298241  51.7365494  71.2548370
  48.4959183  52.1484489  70.8552551  48.0599174  51.3552399  72.0683899
  27.3735237  70.1459885  23.7280750  27.2021255  69.4599457  24.3732109
  26.9243126  70.9173660  24.0736485  61.3499832  30.3646278   5.5177641
  60.3929672  30.3650379   5.4991045  61.5757065  29.7475777   6.2138467
  52.9102020  18.0991116  63.1040649  52.8113022  18.8168564  63.7295990
  52.9497871  17.3118629  63.6471138  73.3969345  52.1754417   4.7490287
  73.0295715  53.0539894   4.8461418  74.2502518  52.3166313   4.3389812
  78.6005325  11.1044626  12.0098877  79.1079102  11.3339767  12.7884235
  78.0848770  10.3431644  12.2758999   2.6030583  68.1821060  44.5404510
   2.6530490  69.0482483  44.9448509   2.7204165  67.5710373  45.2678108
  51.9933777  16.4354324  35.2616310  52.2465706  15.7826538  34.6089439
  51.3927269  17.0181942  34.7970428  63.2123451  38.5921707  72.1806030
  63.4444847  38.6080742  73.1090927  62.5540619  37.9008484  72.1101151
  66.7942734  45.2318878   5.6435943  65.8628082  45.1417770   5.4423952
  66.9733658  46.1659660   5.5356030  53.5559616  60.9043655  17.2907658
  53.4058342  61.3790359  16.4732189  53.9153175  60.0609589  17.0155182
  47.9824486  30.9805202   7.3806763  47.2803650  30.4182281   7.7079940
  47.7795067  31.1016998   6.4531198  63.9691124  30.1135540  71.3752899
  64.7356873  30.4177113  71.8611755  64.1580811  29.1957760  71.1798248
   7.0301857  53.2339745  60.8875542   6.9567304  52.5525208  60.2193794
   7.6520300  52.8799744  61.5233421  24.6816311  62.0202904  38.3688660
  25.6006660  61.8763962  38.5944786  24.6882019  62.1742821  37.4241562
  63.7853889  57.0296745  29.0654812  63.1650238  56.3279839  28.8679752
  64.6395798  56.5978699  29.0773315   5.4045525  68.0876770  63.1170311
   5.1927409  67.1563416  63.1802025   6.3578773  68.1223679  63.1957703
   9.4564543  42.7016144  16.2997684   9.0978708  43.3205795  16.9357986
   8.6870623  42.3169556  15.8798809  48.5964699  34.8009338  62.3760071
  48.6426697  35.7445564  62.2221489  49.5105782  34.5211258  62.4244576
   1.9824041  11.5083790  56.0766640   1.0699036  11.7927084  56.1289253
   1.9330920  10.5540895  56.0206871  79.6076126  56.8229218  48.7776108
  78.7173691  57.1352692  48.6159630  79.7584381  56.9993896  49.7062378
  75.9449387  58.7619629  75.9697647  75.7600403  59.1738510  76.8137970
  75.0848389  58.6474686  75.5655899  45.9371490  56.7022514  58.2217979
  45.0650101  57.0403519  58.4249916  45.9149323  55.7910957  58.5142632
   2.0511816  13.5631332  61.1735954   1.6234496  14.3813753  61.4260979
   1.9942386  13.5480032  60.2182121  69.5641556  14.4824944  59.4245682
  70.2480087  15.1250668  59.2356949  68.8759003  14.9859800  59.8593521
  46.6709862  70.7148514  22.0195026  46.7869987  70.0617447  22.7095966
  47.5349045  70.7914276  21.6145248  16.5673294  57.7553825  28.4126320
  16.8992157  56.8622208  28.3212910  15.6172247  57.6533127  28.4684582
  77.7725830  39.0400925  42.8745003  77.1080933  38.9109421  43.5512581
  77.4226227  38.5892143  42.1060791  51.7075157  15.4535589  32.7964859
  52.3679733  15.8656855  32.2395477  50.9147682  15.4428892  32.2601395
  24.5220528  54.4984436  27.8621559  23.6357021  54.2971306  27.5620136
  24.7668476  53.7493935  28.4055042  20.9972534  58.6893311  21.0162964
  20.1210670  58.3267479  21.1469212  21.2648849  58.9880142  21.8854294
  52.1614952  19.8887291  41.9903412  51.8468323  20.1096706  41.1137581
  53.1139183  19.8542366  41.9013023  42.3997917  61.7941246   7.9309506
  42.8136482  62.2715416   8.6499977  41.4845619  61.7063293   8.1971760
  13.6293936  42.8632889  46.1076736  13.6855326  43.4824219  45.3798294
  12.6963472  42.6620522  46.1795120  30.6504040  17.6091900  10.1877670
  29.8482113  17.5525627  10.7069120  30.3633137  17.9468842   9.3393726
  62.4388390  69.0052261  50.7508049  61.9032822  69.0040436  49.9574509
  62.8361893  69.8758316  50.7702560  45.4737015  39.8784294  23.6710320
  45.5459824  40.4272842  24.4519081  45.6402283  38.9901428  23.9863777
  13.0902786  36.4669418  82.2802505  14.0422573  36.4529533  82.1813965
  12.8367682  37.3560295  82.0322876  66.3934402  58.1923447  60.8082809
  66.2840042  58.6663170  59.9838982  65.9499359  57.3563461  60.6646042
  12.5912676  22.0495644  71.9441299  13.3228340  22.5270004  71.5528564
  12.2723494  21.4825840  71.2419510  17.9167843  39.8095055  27.2583179
  17.8206120  39.0079460  26.7440338  18.7681351  39.7187576  27.6863346
  27.2608013  11.2817678  82.9376755  26.3090916  11.1796246  82.9446030
  27.5300598  11.0782194  83.8333893   7.7256184  65.0385590  20.8194523
   7.4206619  64.7477341  21.6789017   8.1597672  64.2710648  20.4470348
  17.8492126  63.6501999   7.2254066  17.2174587  63.6135788   6.5072303
  17.3352165  63.4477310   8.0071011  62.7496986   3.4518304  15.9413586
  63.6252937   3.5945063  15.5819073  62.5601044   2.5327904  15.7525415
  44.3468742  23.9681568   6.1333847  43.5517693  23.4695263   6.3215590
  44.5156136  24.4617481   6.9359593  75.2814484  39.5418968  62.6277351
  75.1240387  39.4259148  61.6907196  75.3009109  40.4908409  62.7516785
   7.0012069  12.8289080  53.1126518   6.3665223  12.1496983  53.3408661
   7.8295388  12.3593969  53.0143776  34.0782051  48.3767509   1.3117373
  33.6808014  49.1855011   1.6345760  34.2898483  48.5624657   0.3968886
  56.1597824  21.2645969  64.4785538  55.7435341  22.0482521  64.8375168
  55.9051781  20.5625362  65.0773163  49.2679672  62.0471306  84.4512100
  49.7640495  62.7242584  83.9911728  49.9251709  61.5734596  84.9610596
  40.8240089  37.2959900  66.1126633  41.7712936  37.4147644  66.0435486
  40.5450935  37.0733757  65.2244720  39.6135674  70.1794891  86.1052399
  40.2088623  69.9644623  86.8233032  39.0151558  69.4338531  86.0587692
  24.1028690  59.5772629  35.7160530  24.7809963  59.7955551  36.3553658
  24.3645439  60.0419922  34.9212036  47.6787300  17.9278183   5.1994138
  47.0800858  18.6746635   5.2085404  48.4977608  18.2730103   5.5547442
  53.1452332  22.6231747  51.6943703  52.8544121  21.8176727  51.2667923
  54.0929680  22.6365509  51.5607529  16.8116989  64.8455811  49.6984711
  16.5974884  64.3366776  48.9165726  15.9831905  65.2504578  49.9551430
  62.8968430  16.0071259  12.7808208  62.5641327  15.2306147  13.2308950
  63.7167130  15.7186470  12.3797960   4.9409103  67.0416336  33.4962959
   5.3749118  67.8386536  33.8006516   4.1155305  67.0185318  33.9804955
  81.9941788  47.6515961  28.7651825  82.2279816  47.2733994  27.9175167
  81.1185303  48.0146027  28.6321659  36.8142815  51.4755363  25.0739765
  37.6919708  51.6888390  24.7571278  36.3043022  51.3186913  24.2792740
  32.8557358  15.8671761   2.1055846  32.6151962  15.1896048   1.4737071
  33.2259941  16.5709419   1.5728033  20.4474850   1.2657292   4.1525884
  19.8041687   1.3300552   3.4467287  19.9836025   1.5796956   4.9287772
  63.8618126  23.1187820  56.7311172  64.2216263  23.9968834  56.6057930
  64.5725479  22.5301800  56.4768944  42.9915543  10.3230162  15.1021843
  43.9194870  10.1070366  15.0098381  42.6038475  10.0780087  14.2620134
  32.7761955  60.4541779  36.5406647  32.1800308  61.2030487  36.5437317
  32.8630333  60.2209473  35.6163826  57.7857132  49.4089432  23.0936604
  56.9009628  49.3532104  23.4546871  58.2807312  48.7414742  23.5687103
  31.0549393  57.4813080  35.3353958  30.6706486  58.3523865  35.2365036
  31.0622520  57.3286171  36.2803078  67.2408905  70.3134613  26.5291557
  67.4268494  71.2466812  26.4254818  67.9536285  69.8742218  26.0651398
  62.0985527   7.3603740  80.1819000  62.7651901   7.9946156  80.4456482
  62.4658279   6.5110354  80.4267807  58.9586678  52.2853050  70.1582108
  58.7677498  51.5513802  69.5741425  59.0841522  53.0315399  69.5720215
  72.6000366  41.1862602  35.4288445  71.7926331  40.9099083  35.8623848
  72.7545700  40.5175858  34.7615891  62.9060555  20.5566750  83.7164536
  62.8792572  21.4436378  84.0753555  62.0071754  20.3844719  83.4361191
  83.6434555   3.8660333  21.3173485  82.8713989   3.3673363  21.0500221
  83.9206009   4.3225193  20.5229664  45.5045738  28.2710667   1.5042746
  44.7494278  28.3874569   2.0808508  45.1254997  28.0324650   0.6583407
  47.6320839  32.7200432  76.3660278  46.7763367  33.0275650  76.0671082
  48.1237984  33.5206566  76.5489655  53.3954163  44.4301109  12.3960276
  52.7912979  45.1296768  12.1472740  54.1166344  44.8812408  12.8348455
  82.4702225  23.6325970  59.1110382  82.8554459  22.8462639  58.7243690
  82.6360474  24.3217258  58.4677353  30.4420757  41.9133072  69.8791122
  30.3185043  42.5987549  70.5357132  29.9322319  42.2092972  69.1250000
  47.2267838  55.2225533  44.3245773  47.8853912  54.5859375  44.0467377
  46.4021339  54.7368584  44.3078041  84.4064484  35.9662857   8.0894337
  83.7383957  36.6467972   8.1721430  84.0442505  35.2164536   8.5614491
  83.3819962  11.4116154   6.5731797  82.7338715  11.7858801   7.1699147
  83.5366745  12.0993643   5.9256401  21.8510361  64.5932388  68.6138077
  22.2836075  65.4238892  68.8116379  20.9325237  64.7420883  68.8383255
  59.9943352  15.5721426  57.1933212  59.8169060  16.1095829  57.9652710
  59.4612541  15.9635305  56.5013161  12.1562624  61.6815567  65.7589035
  11.9649448  61.7310562  66.6954880  11.8488159  60.8136826  65.4971848
  84.2339020  65.4435349  19.5672588  84.4855347  64.7438965  18.9644184
  83.2869034  65.3453827  19.6661892  64.3971252  51.0845337   2.1712859
  64.6262054  50.1972351   1.8947760  63.6974373  50.9623108   2.8129461
  33.7345543  71.2275620  67.0644531  33.7689018  72.0361862  67.5755157
  33.4375420  71.5044861  66.1976624   9.1433067  61.0660057  52.6997986
   8.8434868  60.4722748  53.3881493   8.7181997  61.8997574  52.9007263
  11.2045345  62.6978836  45.4303207  10.4801512  62.9459305  44.8558846
  10.8394318  62.0175362  45.9960594  63.8229218  66.0155716  64.5683060
  64.6397400  65.7201538  64.1661148  63.1502113  65.8193741  63.9162331
  29.8307514  13.6310778   2.7025700  29.4111996  14.4820280   2.5757146
  29.1582775  12.9941139   2.4611392  86.1280289  31.6956997  18.5279198
  85.7573318  30.8139877  18.4905338  87.0690536  31.5556183  18.6332016
  15.7925425  26.3401566  14.4239750  15.8963442  26.7035561  13.5445452
  15.2088928  25.5906982  14.3060856  85.5302200   8.3750696  49.6845589
  85.9742508   8.6348066  50.4917831  84.6938248   8.8397942  49.7110901
  55.0151596  56.0434990  64.1520309  55.2867126  55.5906219  64.9504013
  55.7796822  56.5604591  63.8980751  55.7979813  52.8849907  78.4484177
  56.2466583  53.4594994  79.0687943  55.1659698  52.4032936  78.9820404
  34.5236931   9.0680017  21.5621433  35.0666313   9.4671202  22.2419605
  34.7691002   9.5275288  20.7591228  17.6228466  59.4166946  64.1366653
  17.8642731  60.1610680  63.5854378  18.4523735  58.9759789  64.3207474
  50.5754395  46.8098793  42.9575348  49.6589928  46.8136253  42.6812325
  50.8025322  47.7354774  43.0465851  58.3716240  59.4551048  37.8033638
  57.6665039  59.9469986  37.3825607  59.1191368  59.5565109  37.2141495
  67.0034409  41.7856407  77.3385544  66.3567963  41.5274124  76.6817398
  67.2778549  40.9618073  77.7413330  81.1704941  59.8724861  77.9875641
  81.7445221  60.5462914  77.6232605  80.3451691  59.9797020  77.5147324
  63.7354584  60.3226280  69.9031372  63.7367516  60.8079605  69.0781021
  63.9671783  60.9743729  70.5647736  29.7058735  52.4527664  12.8206549
  29.2857761  51.7307205  12.3533230  29.4864464  53.2302475  12.3072329
  60.9070015   0.9624082  23.4851627  60.7914124   0.3590614  22.7511024
  61.2264938   0.4116351  24.1998692  28.2439289  18.7954235  34.8880959
  28.4288464  19.4707012  35.5408096  28.9014988  18.1190281  35.0503387
  47.7472267  70.0309067  62.5291367  46.9482422  70.1731186  62.0215607
  47.4370117  69.7605972  63.3933907  72.3800812  46.4236946  14.4696150
  71.4386902  46.2565079  14.4242916  72.4975891  46.9125481  15.2841396
  53.7742348  58.1220627  77.8961105  54.6081963  58.5877266  77.8337021
  53.9846649  57.2203484  77.6534958  25.1396790  40.7478905  28.9567719
  25.1777210  40.8995399  28.0124264  25.8304863  40.1068726  29.1244335
  53.4651337  32.2759247  20.6676350  53.8647919  31.5947266  20.1268234
  52.5473328  32.0146294  20.7424259  74.6489105  32.1414375  53.5272064
  73.7168884  32.1791229  53.7420197  74.6712265  31.9308414  52.5937271
  81.1924438  23.2737732  42.8662910  81.9606934  23.0321064  43.3836060
  80.4490814  22.9547386  43.3780212  74.2982712  50.3716469  12.7449827
  74.2808914  51.0106812  12.0325460  74.5121078  49.5422630  12.3176317
   7.4110999  13.7552137  76.3686829   6.7537408  13.7839909  75.6735001
   7.1963773  12.9678802  76.8689194   4.2189064  56.3580399  78.0445709
   3.6758931  57.1235580  78.2325897   3.8144114  55.9610863  77.2731781
  53.4376793  32.1786575  48.0767899  52.6884613  32.0222702  48.6516342
  53.1742058  31.8090954  47.2340317  16.9921970  55.4166222  56.0552673
  17.7981453  55.0519295  56.4208870  16.9092922  56.2761345  56.4683037
   7.7937388   3.2960269  53.3902588   6.8827276   3.5494854  53.2417679
   8.0423489   3.7551048  54.1925507  57.3206367   6.7404289  72.6377869
  57.0441399   6.9521604  71.7461853  56.6485863   7.1313210  73.1961594
  85.1895065  27.6324844  58.1902351  86.0847931  27.8561344  57.9359283
  84.9780807  26.8591366  57.6672974  35.9180565   7.6548676   9.0337133
  35.8429413   7.7253027   9.9853582  35.0991554   8.0221863   8.7009802
  79.1021576  64.6089706  59.9136124  78.8234253  65.5122528  59.7632141
  79.1334610  64.2193451  59.0398598  61.1925583  21.9005241  22.9641132
  60.8080750  21.2838669  23.5871220  61.5771637  22.5853043  23.5112762
   8.9771757  70.4237823  52.4169083   8.1783419  70.9312897  52.2736244
   9.4161758  70.8678589  53.1423759   0.7987887   0.2194985   8.2390175
   1.5875394   0.5661797   7.8219848   0.4514566  -0.4107847   7.6078787
   9.0640993  36.8574066  54.4376297   9.5918493  37.6400223  54.2788086
   8.9938498  36.4378281  53.5801659  33.6547432  41.4348602  71.8518219
  33.1832047  41.9198227  71.1745529  33.0818291  40.6971092  72.0609436
   4.6915526  44.6156082  49.1792412   5.2368565  44.0194893  48.6659012
   4.2342439  45.1446915  48.5256577  11.2769613  66.6910553  34.8277855
  10.7117310  67.4570541  34.9277229  12.0082550  67.0010681  34.2936211
  80.6198807  67.1705475  27.8564205  80.9346771  66.3832626  27.4122181
  79.9158554  67.4965591  27.2958012  14.2150640  51.9716148  21.8230553
  15.0441761  51.5552521  22.0585232  13.6167507  51.7308083  22.5303478
  52.9896011  61.2972717  69.8340302  52.9474068  61.3790970  68.8812637
  53.3369370  60.4179688  69.9837570   5.5278358   8.6793175  62.0639648
   5.8763218   8.8361721  62.9415665   4.9528136   7.9209986  62.1665993
   8.3662214  35.5184097  80.8653488   8.7116795  34.8283119  80.2990799
   7.7184649  35.0761414  81.4140167  64.0662918  11.0981112  49.1509743
  64.8705215  10.7826281  48.7387695  64.3386459  11.8692770  49.6483231
  37.0307693  40.1934204  41.5978241  37.3650780  39.9672089  40.7298965
  37.8148537  40.2968254  42.1370354  18.6317463  32.8235207  81.9314346
  18.6219215  32.8060532  80.9744415  17.7249794  33.0071640  82.1769562
  72.4422989  28.4922295  26.9999580  73.0441437  28.6427288  27.7289028
  71.6029282  28.3002682  27.4181023   5.4558983  57.5555992  30.7156734
   5.0031552  56.7502785  30.4652386   4.7612910  58.2111702  30.7787418
  76.0125198  46.7050629  71.7710037  76.5088043  47.3182678  71.2288589
  76.0129700  47.1012230  72.6423721  60.3598671  63.6595383   4.0267582
  60.0353546  62.8519592   4.4251814  60.6733894  64.1817398   4.7651649
  74.4752197  58.8091850  83.3569107  74.5205383  57.9580269  83.7924652
  74.9521332  58.6840935  82.5364609  53.7122154  46.1785431  83.4785461
  52.7815628  46.3758125  83.5843658  54.0143471  45.9677925  84.3620224
   6.2538400  34.4017105  49.3794670   5.9104943  33.5117416  49.4588165
   5.8412933  34.7479210  48.5881538  54.6466331  41.6877060  11.9847441
  54.0259018  41.7518196  11.2589273  54.4763985  42.4662399  12.5149689
  79.8820038   5.8029089  73.1483154  80.5221405   6.5135679  73.1859741
  80.1820526   5.2481909  72.4282532   5.2942948   4.5097518  44.8079414
   4.6231775   3.9450648  44.4245872   5.9004965   3.9049261  45.2356529
  23.5900021  51.7971306  69.3909912  24.4717751  52.1119728  69.5899429
  23.0637569  52.5927696  69.3119125  44.1851044  53.0215302  54.0046425
  44.2579384  52.2666054  53.4206772  44.7816238  53.6708870  53.6321754
  39.7927246  41.4291458  16.5630703  39.8510551  40.6625557  17.1333065
  40.6905899  41.5747833  16.2649670  31.1070328  24.3152161   5.6889815
  31.1036739  23.4374161   5.3072915  30.3811855  24.7665405   5.2580733
  41.8592300  65.8554611  31.8975506  41.2412453  66.5746994  32.0280495
  42.0362358  65.5287399  32.7796783  32.2548218  32.4201241  15.9297256
  32.0267677  33.0450630  15.2414837  33.0139275  31.9501667  15.5845699
   0.6986555  60.3949089  59.9343376   1.1443208  59.6450996  59.5401306
  -0.0607808  60.0163994  60.3773003  71.0009537  59.6302681  47.3171959
  71.1040802  59.2134514  48.1726837  70.2921677  60.2613373  47.4421196
  74.6486053  20.7489204  74.8445282  73.7188339  20.6320934  74.6493225
  74.8155441  21.6750717  74.6695633  52.8034782  37.3722916  54.5404739
  53.6727409  37.1674919  54.1959915  52.9442863  38.1263657  55.1129951
  48.0853233   8.3209820   1.6809655  47.6441154   8.7146034   2.4337142
  48.4541435   7.5050340   2.0192449  69.8286285  26.7378063   8.5367956
  69.6250534  25.8262615   8.7462492  70.0903625  26.7193413   7.6162586
  83.6034698  21.3639545  46.9050293  83.1908722  21.0463371  46.1018410
  83.1701736  22.1987190  47.0829468  83.0712128  57.0607910  18.9724941
  82.8980331  56.1813583  18.6365681  82.8455429  57.6430321  18.2470322
   7.3840795  62.0058212  39.0503387   7.1187534  61.1080246  39.2498360
   7.0878143  62.1489983  38.1514740  31.5476475  43.0752182  77.2650833
  31.2800865  42.1633911  77.1501083  31.9643459  43.0957489  78.1265793
  77.8747787  68.6030731  50.2305336  77.5204620  67.7471771  50.4716492
  77.6036148  68.7269440  49.3209419  62.6047821  15.5754080  16.7903996
  63.4097748  15.8201771  17.2468090  62.1762505  16.4091377  16.5967865
  66.7289963  24.8380947  88.5643387  66.4550858  24.8647518  89.4811249
  66.0988617  24.2535896  88.1429977  61.0420761  23.2372246  80.8078156
  60.8252220  23.6447926  79.9693069  60.7354927  22.3345432  80.7217560
  38.6984138  60.0750580  82.0396042  38.2016106  59.5159874  81.4422302
  38.7363396  60.9234009  81.5979004   8.5818319  43.2702408  80.2474365
   9.1856766  43.2718468  79.5047379   8.4438715  44.1964073  80.4459610
  33.2040863  37.9612808  21.3993893  32.7841835  38.5976791  20.8206787
  32.5804901  37.2369576  21.4514904  80.3251114  48.3280373  44.5887299
  81.0254974  48.9803505  44.5755043  79.5606995  48.8039055  44.9134750
  77.9502716  30.2749214  34.4841537  78.6880493  30.8843555  34.5064468
  78.1691132  29.6594009  33.7845268  76.7580719  56.4063187  78.3395767
  75.8942413  56.2169189  77.9733047  76.5809784  56.9741173  79.0895538
  83.2441635  46.0980644  80.8797455  83.9469604  46.7434196  80.9560852
  83.1126328  45.9975815  79.9369659  49.0194321  47.1240120  71.6318359
  48.9809151  46.1933975  71.8525162  49.4165382  47.1474724  70.7612076
  43.8967667  20.1081581  85.5567169  44.6559181  20.5418301  85.9463959
  43.5022583  19.6204414  86.2797165  20.3651142  47.0682487  45.8841324
  19.4883213  46.6848869  45.8617935  20.2208405  47.9818916  46.1304550
  28.8489609  11.6736193  69.0061035  29.3798981  12.4093342  69.3111649
  29.4860134  11.0353317  68.6851883  70.8895950  48.8779907  68.2581558
  70.1352386  48.9158974  68.8461456  70.6880341  49.5108337  67.5688629
   6.9445848  18.2371368  60.8190498   6.4588757  18.8140717  61.4085083
   7.8148079  18.6315804  60.7611084  28.6337223  42.0665550  45.3207436
  28.9401474  41.2515373  45.7183342  29.4302254  42.4932327  45.0048904
  38.2308121  54.5400276  52.7074890  39.0273361  54.1064758  52.4012032
  38.4556084  55.4703140  52.7237816  70.1424255  36.3390160   2.9046721
  69.6820068  36.6991386   3.6626673  69.7416000  36.7739830   2.1520936
  35.0406685  60.4385147  81.3202057  34.9692612  61.2139168  81.8768845
  34.3813896  59.8355293  81.6637039  39.3909912  30.3708420   7.9985375
  39.7366257  29.4951019   8.1713133  38.4404945  30.2577705   7.9999247
  84.7644958  16.6876240  47.3355103  84.7639923  15.7935343  47.6773186
  85.6593094  16.8246098  47.0244179  24.6622620  59.5601654   3.5439281
  24.8741932  59.9352875   4.3986807  24.2750874  58.7083015   3.7455592
  16.3311138  15.7345676  84.6256180  16.5698280  16.6595173  84.5646591
  17.0072479  15.3489218  85.1827087  43.5034866  69.7168808  71.4146194
  44.4271698  69.5933914  71.1959991  43.2370453  68.8855133  71.8071442
  12.1927967  34.9006157   6.5119958  12.5947399  34.3054276   7.1447868
  11.6153622  35.4544601   7.0374084  59.4097176  58.4645271  85.4054947
  60.3205872  58.7586555  85.3996277  58.8974609  59.2700500  85.3350906
   9.2034893  48.2792892  30.2793865  10.0276442  48.2272835  29.7953453
   9.3676052  48.9292755  30.9626255  33.9833336   1.1850154  78.7387924
  33.3810692   0.5401763  79.1098633  34.4899178   0.6947929  78.0912704
  77.0281677   6.6671553  70.6078568  76.5794907   5.9358034  70.1835403
  76.4726105   7.4256611  70.4282532  37.1206093  50.7460480  61.6905518
  37.3290710  50.4362106  62.5719032  37.5629768  51.5922241  61.6232681
  30.3810425  39.6824875  58.6086617  31.1395855  39.8166580  59.1768532
  30.6917229  39.9186897  57.7346344  44.3209763  50.5255470  73.1984558
  44.1237717  51.1955414  73.8530197  43.4645729  50.1893196  72.9343491
  32.7557831  44.0391655  37.3460846  32.0020866  43.4632263  37.2177505
  32.9493752  43.9754944  38.2813377  55.3350563  18.5224056  81.6347198
  54.7607269  19.1584263  82.0611649  56.1910019  18.9502621  81.6117630
  65.3461380  64.3634949   4.5561390  65.1760330  65.2695694   4.2986178
  64.6576309  64.1612473   5.1896052  10.5775099  70.5425339  12.8099804
  11.2167892  70.5357285  12.0975847   9.9517059  71.2236786  12.5637121
  56.9416122  38.0401077  51.4108925  56.8885307  38.5203781  50.5846024
  57.6598625  37.4206161  51.2821388   5.4746938   8.2016830  26.3349171
   5.9273796   9.0329876  26.4771881   4.7499247   8.2135849  26.9600582
  67.0446091   3.2765403  25.4333611  67.5428772   4.0930681  25.3981018
  66.5593414   3.2562716  24.6085339  41.8952980  15.0350637  46.4096718
  42.2633781  14.2804384  46.8693314  42.2233353  14.9533930  45.5141525
  18.5686474  49.5567436  16.6011410  19.2802753  50.1951485  16.6486282
  18.4257374  49.2893906  17.5090694  77.9341202  48.2114983  52.1307449
  77.1797791  48.2141838  52.7199745  77.8425980  49.0163803  51.6208229
  49.5172729  22.8491650  83.9010773  49.1762581  21.9885445  83.6576080
  50.0028839  22.6939526  84.7112122  56.2655525  38.7584496  29.3396339
  56.8161469  38.4505730  28.6197109  55.4785728  38.2159996  29.2881851
  71.6536255  25.0369415  72.4459076  72.0966797  25.8314037  72.1479797
  71.7501221  25.0516357  73.3981171  25.8849411  33.1913605  82.0236282
  25.8559666  34.0782242  81.6646500  26.8174019  32.9783669  82.0608139
  52.1947937  15.9861288  69.5478439  52.9352455  16.2488136  70.0946121
  51.7563934  15.3004227  70.0516739  35.9038506   9.3923044  37.0855713
  36.8078194   9.3619356  37.3988533  35.9771461   9.6533356  36.1675720
  17.5138760  37.9273682  25.6763554  16.7453957  37.9317856  25.1056976
  18.2205486  37.5932922  25.1238728  74.5460968  35.3931122  26.1167202
  74.9961624  35.1404762  25.3105869  75.1583252  35.1620865  26.8153191
   6.0761404  41.2073441   2.1359789   6.7495189  41.8684845   1.9757062
   6.5656910  40.3995438   2.2909966  51.2762451  28.5109615  39.5695229
  51.9234238  29.0163727  40.0614128  51.5738182  27.6042118  39.6436005
  55.9595604  64.1911774  22.9854374  56.6076965  64.0939102  23.6830711
  56.2517624  63.5887756  22.3013573  69.0407410  23.6803627  65.6011810
  68.2040482  23.9861927  65.9513779  69.0760574  22.7540646  65.8398361
   5.5822849  44.7581596  61.9447136   5.0862355  44.2652626  61.2910957
   6.3612256  45.0594902  61.4770775  65.7352066  58.8102608   2.2348404
  66.1617508  59.4969025   2.7474928  64.8547897  59.1472244   2.0688467
  19.0084915  14.5700741  14.4574728  18.3954563  15.2109308  14.8176413
  19.6116905  14.3848286  15.1772413  46.8076363  60.9698105  39.4650879
  47.0542259  61.8705406  39.2550735  46.7302284  60.9589081  40.4190903
   6.7643151  17.9299755  29.1657391   7.5506864  18.4343109  28.9571743
   6.9412527  17.5565739  30.0291615   1.3374614   8.9028568  55.6837883
   2.1015151   8.3418703  55.5505638   0.8307761   8.4598074  56.3643837
  28.4436207   8.7745981  68.8884735  27.8263168   9.2971411  68.3764954
  28.1924782   8.9310799  69.7987900  82.1756287  56.9574547  14.5957355
  81.9857712  57.5638008  13.8798246  82.8046494  56.3385201  14.2249441
  17.7330437  46.2815285  13.0850792  17.2270794  46.8452415  12.4998808
  17.1922207  45.4988174  13.1904697  64.8406677  29.7575321  80.3731766
  64.5522766  29.6896305  79.4629822  65.7964020  29.7689610  80.3213806
  73.1247177  24.5155830  16.4028339  73.6870117  25.1460094  15.9526997
  72.2977905  24.9805222  16.5303421  49.9876595   5.9894834  25.2477379
  49.2203331   6.1006784  25.8090553  50.7099915   6.3628411  25.7527809
  20.4794865  33.3713989  76.3913651  20.6850090  32.8068161  75.6462173
  21.3114891  33.4691658  76.8544464  28.8787041  51.8055229  51.4058456
  28.8966103  52.0055733  50.4699554  27.9547672  51.8712807  51.6471901
  21.1642113  23.6925392   8.3745317  21.0285301  23.9433270   9.2882757
  20.6508121  22.8918381   8.2671556  47.7779198  66.4086075  19.6779556
  46.9384499  66.3860321  19.2185936  47.5550499  66.6696777  20.5714912
  11.4160690  65.5784988  13.9802914  11.2091017  65.9456406  13.1208744
  11.4061546  66.3315125  14.5711365   3.0057917  13.7199030  82.3431549
   3.4555345  13.3003626  81.6097031   3.6800020  14.2533226  82.7640305
  41.0108490  57.9479980  53.6955948  41.3386230  57.0528297  53.6091805
  40.4972496  57.9380798  54.5032730  43.2152519  69.1887817  50.1163101
  42.8081932  68.8503113  49.3188324  43.4611588  70.0874481  49.8968582
  23.6872635  41.2439957   0.4395439  24.4062233  40.6783752   0.7213274
  23.0522156  41.1981850   1.1542801  54.1350403  70.8014221  25.3941593
  54.3819466  71.4852982  26.0167198  53.8560066  70.0679626  25.9422626
  23.1278858  59.2636566  39.2509956  24.0003090  59.0911446  38.8969460
  23.2642307  59.9570389  39.8966446  60.4766960  33.4698906  12.6176529
  60.6496239  34.2452164  13.1516914  60.2787819  32.7812042  13.2522945
  76.8104630  18.6520367  33.8230629  77.4203491  19.1555958  33.2838936
  76.3358078  19.3122997  34.3280182  36.2737236  19.5745525  17.2140732
  35.5691299  20.0808983  17.6182919  36.2045326  18.7071381  17.6128693
  36.3536873  50.0312614  57.8285408  36.1282196  49.8523026  58.7414322
  37.0098648  49.3695984  57.6097565  86.6456223  17.9715405  23.0943222
  85.9335327  18.2065601  22.4994049  86.3106461  18.1853790  23.9651222
  52.4793472  22.2249203  48.1342125  53.3250694  22.6232662  48.3398857
  51.8649864  22.9588795  48.1242447   1.4315493  44.4368134  19.6396847
   1.7071918  43.9818840  18.8438873   2.2287855  44.5047684  20.1650696
  13.9805822   4.9717240  17.9788246  14.7566309   4.4535341  18.1920357
  13.6572456   4.5934749  17.1611366  85.3748245  17.0245991  31.1872425
  86.2682495  17.3574753  31.1023235  85.2827072  16.8205338  32.1178894
  71.7194061  35.0565414  34.0889130  71.0229645  35.1813850  34.7336006
  71.4461441  35.5813293  33.3364792  73.1672211  62.4224701  54.7344055
  74.0279846  62.5359879  54.3313713  72.7542877  61.7252121  54.2249489
  41.3926201  39.8597298  20.5682907  42.1366081  40.1707230  21.0840416
  41.0190582  40.6529846  20.1843262   5.3934221  55.7153511  52.3819160
   5.1571708  56.6132011  52.1489258   4.9736438  55.5695534  53.2297134
  53.2319489  28.2150269  69.7692719  52.2841034  28.3034821  69.6692886
  53.4208984  28.6100121  70.6204605  25.2970409  36.9996109  70.3717728
  25.1109447  37.8817596  70.0501938  24.8115597  36.9371643  71.1943512
  82.6544189  54.5592155  37.9900818  82.9920197  53.9286079  38.6261597
  83.4207535  54.8154564  37.4769554  24.0870476  17.6758099   6.1042752
  23.7557735  16.9147987   6.5810876  23.9321480  18.4138565   6.6937890
  73.5694656  51.3335571  49.6028824  73.2710037  52.0384407  49.0281754
  74.4957199  51.5227699  49.7528343  25.5346851  68.0243225  33.2265091
  25.3040791  67.6338806  32.3835335  25.8350983  67.2869644  33.7578163
  55.8062477  39.9349480  70.8995590  55.1004982  39.3217621  71.1048737
  56.6088181  39.4457397  71.0806427  42.7882576   1.2322477  68.2656403
  42.3938484   0.3688495  68.1422729  43.0001793   1.2677008  69.1984100
  38.0512314  26.7156906  42.5723267  38.5820274  27.2974968  42.0282784
  38.6640053  26.0454330  42.8747978  71.8375778  20.6645260  74.3318176
  71.2080688  20.4902897  75.0315247  71.3985138  20.3668728  73.5350342
  37.7603760  54.6604271  29.0002937  37.4608574  55.4410439  28.5342941
  37.0509720  54.4587975  29.6104774  71.2099075  28.0179958  14.9609699
  70.6817627  28.6817570  15.4045019  71.0666885  28.1815414  14.0287819
   3.7204006   4.9201889  60.8367195   3.8257842   4.1977830  61.4557953
   3.1392577   5.5356913  61.2835541  55.9015198  36.9075241  19.1389885
  55.0121040  36.5541916  19.1209164  56.3068581  36.4969864  19.9027920
  47.8189850  28.9782791  58.0691071  47.8452644  29.6195698  57.3589745
  47.2766724  29.3888016  58.7426033  49.7196922  28.6859856  33.7127953
  50.0852661  27.9391441  33.2386475  48.8380775  28.4054985  33.9583855
  86.5906219  11.8682108  10.4408474  87.2863770  11.6587954  11.0639887
  85.8943405  11.2423029  10.6400061  29.4098434  31.3646488   0.5595883
  29.0118790  31.9300880  -0.1023288  29.2867146  31.8366413   1.3831741
  69.5205917  11.0854979  82.7053223  69.8139191  11.5762186  83.4730377
  69.4235840  10.1862230  83.0185776  83.8660507  14.8044052  63.1493874
  84.6252213  15.1344881  63.6299477  83.1276245  14.9456577  63.7418404
   3.7361789  40.3321114  12.9706240   4.4241486  39.8746300  13.4539852
   3.0170887  39.7020950  12.9235144  75.2831879  53.9952278  43.0758743
  74.6467514  53.3900490  42.6951714  75.2616959  53.8064842  44.0140343
  23.5391846  64.4978256  71.0909195  23.3892689  64.6297226  72.0270615
  22.7416935  64.8222504  70.6725998  44.1544609  27.8460140  62.5678596
  43.9624252  28.4514847  63.2839317  44.8720436  27.3050690  62.8975296
  66.2099228  70.7525024  20.0205364  65.4040298  71.2592773  19.9207535
  66.1104889  70.0218201  19.4102573  81.8684006  19.6152821  45.4685059
  81.5564957  19.5020885  44.5706558  81.3319168  19.0147095  45.9859314
   6.4143410  26.6085320  58.1971359   5.7147989  26.5876083  57.5441132
   6.6975813  27.5226822  58.2155037  25.4922447  71.7461243  59.7336082
  24.8975239  72.2690277  59.1959152  25.2285862  70.8404617  59.5708542
  82.0940628  63.7077522  21.1805878  81.6349716  62.9153824  21.4591904
  81.7144165  63.9169807  20.3271675  63.6490974  17.5527668  59.0226555
  62.9975815  17.2883587  59.6721497  63.4792900  18.4836578  58.8782997
  78.7879562  68.0956116  62.6099625  78.9977341  68.7575150  63.2688293
  79.6367722  67.8389282  62.2496147  38.9468956  68.6305161   9.8931046
  39.7419968  68.1045609   9.8069973  38.9874153  69.2473145   9.1622505
  53.2038536  59.5267410  72.3189697  53.3216515  58.8723335  71.6304092
  53.4752541  60.3509827  71.9149933  70.4376144  29.5556984  35.4759102
  70.2687912  29.8562946  36.3688660  69.5771713  29.3022575  35.1417999
  12.7240715  36.1429138  53.7264214  12.5175867  36.8095474  54.3815498
  11.8865099  35.9564819  53.3022003  28.7559166  29.2850513  72.9345398
  29.5315933  28.7530918  72.7568436  28.7374229  29.9263535  72.2241745
   2.8958993  30.2888699  50.7800217   2.0517347  29.8517723  50.8921051
   3.5432689  29.6213207  51.0070076  17.7812157  15.9270868  57.9892387
  17.1487598  15.3751640  57.5292282  17.6109772  15.7642870  58.9170036
   2.0388315  37.1181526  78.7137375   1.6815538  36.9689941  77.8383331
   1.4408252  36.6531944  79.2989120  26.5967159  36.5436668  63.0333061
  26.3553696  37.4682884  62.9779739  27.4072914  36.4770889  62.5285568
  54.9917030  15.5672483  57.0246544  55.5034904  16.0797272  56.3988190
  55.3677559  14.6882133  56.9786911  54.2913017  46.0643082  86.1889801
  54.1405907  46.7843666  86.8013763  55.0954208  45.6490669  86.5007553
  52.8457756  39.0801048  59.5003777  52.4198456  39.1716690  60.3526878
  53.7196922  39.4490089  59.6284828  85.5609436   2.0864382   9.5411558
  86.2209320   2.7058637   9.8525391  86.0637894   1.3224111   9.2589483
   5.6726875  41.0070686  64.7282944   5.9254360  41.9300423  64.7066650
   5.3806438  40.8177567  63.8366051  80.3389130  53.4167595   9.6102562
  80.3147049  52.8299828  10.3661270  81.1265869  53.9444771   9.7418337
  50.1809883  66.9326859  40.1730881  50.7177162  66.2925797  40.6404419
  49.5406609  67.2269058  40.8208885  75.8291626  51.6586990  80.5928192
  76.4654770  51.0979691  81.0365677  76.3156052  52.0419769  79.8629532
  72.4729004  68.4045258  28.2894115  73.2421646  68.7116699  28.7691174
  72.5887375  68.7502365  27.4043732  79.4122238   1.4839078  50.2024155
  80.3182831   1.2250208  50.0342636  79.3446350   2.3676698  49.8409920
  84.9643021  40.5493011  14.3207855  84.9154739  39.6764755  14.7106886
  85.7914200  40.9089127  14.6413927  53.8891525  30.3857117  50.4066544
  53.9522705  30.8061600  49.5490570  53.1229591  29.8160572  50.3383102
  84.4115906  10.4088345  82.5536194  85.2851715  10.0574417  82.7256851
  84.1868515  10.0769186  81.6843872  66.7475891  57.3522530  78.7433548
  67.2177048  58.1258736  78.4323349  67.1631927  57.1392708  79.5789108
  47.4749031  15.8479576   7.5312610  47.7667160  14.9906034   7.2213874
  47.1868553  16.3032742   6.7400923   7.6718812  64.8066940  31.9047394
   8.5376091  64.8571777  32.3099518   7.4897118  65.7011719  31.6167221
  34.4819145   6.4462090  42.5090942  33.7480927   6.3038521  43.1069870
  34.8656693   7.2755075  42.7940979   1.1034226   1.8129134   5.4237533
   0.6159471   2.1410830   6.1793351   1.9173208   2.3166926   5.4266253
  38.5399780  18.8452473   9.3672295  37.9388542  19.5879135   9.4249220
  38.7687187  18.6510830  10.2761898  21.6769466   0.5247005  65.8075180
  20.8871422   0.9685186  65.4985428  21.3758659  -0.3453668  66.0693665
  49.5002518  65.7042465  66.9325104  50.1903877  65.0809708  67.1593857
  49.7533798  66.0392456  66.0723190  21.4189167  30.9073372  62.6405220
  21.2073364  31.1189003  61.7312851  21.7716789  30.0182724  62.6037102
  35.0538445  46.6970291  76.1252060  35.4871712  46.2543335  76.8549194
  35.1410446  46.0895042  75.3906708  18.2149925  38.1883354  78.2993774
  19.1031895  38.1437874  77.9453201  18.0673256  37.3248405  78.6851196
  23.5429173  60.7702408  84.3109665  22.6299496  60.5178146  84.1731110
  24.0182457  60.3510704  83.5936127  17.2096405   2.1806593  81.6965637
  18.0796070   2.0261850  81.3284225  16.8164673   2.8327718  81.1165619
  55.5116005  37.9488449  83.9002609  55.5996513  37.1712341  84.4514465
  54.7693596  38.4242096  84.2735367  80.0786514  12.2093363  39.2627754
  80.8104019  11.6328344  39.4828033  79.4672699  12.1094837  39.9924850
   3.1001234  37.4603958  59.7625198   2.3666129  36.8724403  59.5822296
   3.2201636  37.4097824  60.7108154  24.6405239  44.8882980   8.6806993
  24.8717861  45.7592430   8.3578939  24.9673882  44.8716660   9.5802078
  15.0133820  41.5228195  36.7028046  14.6006622  41.1313095  37.4726219
  14.6599665  42.4116898  36.6675758  14.0031147  58.0851555   7.5619841
  13.2057447  58.0543785   7.0333190  13.6901636  58.1662636   8.4629364
  14.5007925  66.6058960  86.0313950  13.8480215  65.9101334  86.1090927
  15.1802998  66.2350159  85.4684143  57.3080864  42.9425392  63.2507744
  57.4839592  42.1356354  62.7668304  57.4210587  42.7000694  64.1698380
   3.0968280  38.6833153  74.9126282   3.6586185  38.3906631  75.6302414
   3.6399419  39.2972832  74.4183578  24.0932217  16.6126499   3.3143818
  23.7239437  15.8601208   3.7765126  24.4732666  17.1551571   4.0053844
  54.3106575  57.4073257  25.6421280  53.9736595  57.2588425  24.7586040
  55.0601158  56.8163757  25.7150650  66.2618179  49.5465622  36.1409569
  66.6394272  48.7788048  36.5701256  65.8979645  49.2087593  35.3225822
  79.8065491  39.7497139  49.5125160  79.8631058  40.6989441  49.6220589
  80.6983490  39.4804535  49.2924652  77.6524506  48.5623550  37.4378395
  77.3827896  47.8275223  37.9887733  76.9149628  49.1715317  37.4732513
   8.9895716  10.0538960  73.6483459   9.5551033   9.5235596  74.2097321
   9.3194160  10.9465866  73.7510071  75.8953934   1.3188443  31.8054447
  76.5802155   1.9099175  31.4925804  75.3327789   1.1796089  31.0436668
  54.4693451   7.4780731  88.5136414  54.6905479   6.5816197  88.7659683
  54.2053299   7.4103913  87.5960617  63.9326210  42.0716476  27.8607025
  64.2438431  41.1670113  27.8924561  63.1584206  42.0390053  27.2987595
  78.2230988  44.6630249  13.4316702  77.8135681  45.4969635  13.2013102
  79.0435181  44.9090500  13.8589964  72.3855362  33.5966454  80.6380005
  72.9156418  33.8122864  81.4052734  72.5133667  32.6559944  80.5152512
  76.4592972  26.9374733  85.9009781  77.2497101  26.3975868  85.8996353
  76.2496109  27.0528316  86.8277817  77.2197723  41.9569626  69.3100128
  77.2167740  41.0065994  69.1958466  77.9105911  42.1188393  69.9525070
  14.2341423  42.8336601  60.5586090  14.9493227  42.2631645  60.2770386
  13.7302151  42.9972572  59.7614098  57.4729195  54.7294235  82.8765259
  56.6315918  55.1399765  83.0761337  57.7677040  55.1641502  82.0763092
  83.9622650  41.2984009  34.2979279  84.6581039  41.2966042  34.9552193
  83.4527130  40.5103226  34.4864120  40.2789383  41.9275131  33.3739395
  39.8782120  42.7696457  33.1583824  41.2200432  42.0823135  33.2927399
  21.7955494  44.6721039   4.1700668  21.6309109  45.1304359   4.9941177
  22.5531368  44.1161880   4.3524098  17.5022469  32.9594688  22.0576172
  17.1685905  33.8203201  22.3102818  16.7211552  32.4103813  21.9895706
  80.3429337   3.5810006  13.1488924  80.0852814   3.7473598  12.2421551
  80.9136353   2.8141685  13.0988789  78.7598343  63.5585403  17.6106968
  78.1879959  62.9440269  17.1506844  78.2062836  64.3212433  17.7783222
  13.2273197  61.6368484  83.8815536  12.9405785  60.9686737  83.2590179
  12.5878048  61.5921440  84.5923615  67.4544296  15.0428772  13.5029078
  67.6241074  15.3702602  12.6195831  66.9774857  15.7522049  13.9337301
  76.9388351   5.0750127  73.0848618  77.1126556   5.8913350  72.6162109
  77.7578888   4.8815656  73.5408859  45.1359444  21.5588245  14.7553892
  45.3896332  20.7502365  14.3103523  45.2545967  22.2424870  14.0960283
  73.2685852  58.3314362  20.8759575  73.6095200  58.1883430  21.7588615
  72.4908142  58.8743477  21.0046158  30.4241486  52.0665474  67.2139282
  30.8150349  52.7094307  66.6222000  29.8040218  52.5713120  67.7401276
  72.0830460  11.1902828  15.1020908  72.5138397  10.6812801  14.4153852
  72.3654480  10.7781734  15.9185743  16.6731701  27.1050396  24.1595955
  16.1698761  27.6884785  24.7275066  16.9437923  27.6585732  23.4270668
   3.3624129  30.1173058  27.6959095   4.1121354  29.5368309  27.8270473
   2.7942457  29.6415577  27.0900364  76.4273605  19.7028732  47.0448837
  76.5767517  18.8535461  46.6294861  75.5021973  19.6901150  47.2901459
  82.2860565  32.4352798  78.0831451  81.9176788  31.9593182  78.8274460
  82.2074661  33.3577805  78.3261414  75.1927567  50.1723328   0.0036522
  75.7965775  50.5963974   0.6134032  75.4802170  49.2596855  -0.0222870
  72.6302795  48.1254272  37.7168770  73.2851257  48.7450867  38.0384827
  73.1085815  47.3024940  37.6157036  19.8961658  49.9152374   5.3639464
  20.3749638  49.4018936   4.7132072  19.5482025  49.2644768   5.9735909
  27.3073044  66.1798096  56.7382736  27.8668690  65.9594193  55.9935951
  27.2100925  67.1309128  56.6916122  50.6501045  52.5171204   0.9649803
  51.1226921  52.9858246   0.2770785  49.7381477  52.5207214   0.6741954
  48.2453766  47.6022835  25.5460567  47.4891586  47.9769478  25.9977188
  48.5408440  48.2966499  24.9571705  38.5920372   1.6151333  21.0013714
  38.1115913   1.0833282  20.3668728  38.9850998   0.9786434  21.5985432
  50.8387756  31.3559799  68.2226410  50.6305466  31.1798706  69.1401749
  51.5940933  31.9429684  68.2568588  17.8401299   0.8750238  61.4867325
  17.4794750   0.2731707  60.8356323  18.7886848   0.7763758  61.4046135
  85.2024460   4.2169414  66.8249054  84.7136688   5.0392900  66.8576965
  86.0125809   4.4007077  67.3004456  30.6935806  57.4801826  38.1035309
  31.2882099  57.4422569  38.8526726  30.1576252  56.6910858  38.1829681
  28.6740704  47.9428215  51.0483856  28.4573822  47.0659599  50.7315331
  29.5874481  48.0710640  50.7924004  32.7502632  46.8452797  62.7918816
  32.3312225  46.0891304  62.3809395  33.0136414  46.5322189  63.6572495
  53.3878517  62.0171776   5.3917680  52.5545349  61.6487236   5.6851254
  53.3516884  62.9351616   5.6605186  22.1864777  43.9293785  56.5726357
  21.9088116  43.7852631  55.6679993  23.1426868  43.9411430  56.5306931
  47.2814407  39.0213470   3.7170787  47.4375572  39.9156265   3.4135578
  46.3443527  38.9941788   3.9103751  48.0563354  30.6386013  61.3903503
  48.9598198  30.5898533  61.0779839  48.0540199  30.1245632  62.1978111
  48.1984749  25.7309437  13.5842409  48.4830284  25.7657452  12.6709776
  47.3717270  26.2132092  13.5960560  70.2877731  13.6747656  47.2215500
  70.7391815  12.8350630  47.1357498  69.8669739  13.8083620  46.3722496
  64.5593948  58.9166412  27.1232891  64.3486481  59.8410110  27.2550354
  64.1590958  58.4709511  27.8698521  70.7489319   0.2845677  56.5988045
  70.4659271   1.1968470  56.5364532  70.6157608  -0.0681820  55.7189941
  44.5995445  23.0989075  83.5351028  44.8349800  22.2083092  83.7951736
  45.3355560  23.6363659  83.8277740  60.0091705  69.7181015  66.6908417
  60.6420059  69.6898651  67.4084473  60.1872215  68.9263763  66.1831970
  38.8034630  28.7761269  17.9999409  38.8921280  29.1969910  18.8550701
  38.9765930  29.4754562  17.3697052  35.9456711  40.9452057  84.2768936
  36.4235268  41.0767784  85.0957794  36.6076279  40.6306458  83.6611862
  54.8803825  62.0878868  84.2058563  54.6361427  61.9744873  83.2873154
  55.5544319  62.7673759  84.1923294  77.8292770  23.8575478  74.7739563
  78.2115250  24.1776104  75.5910797  77.6872330  22.9232063  74.9258118
  40.9900398  33.7133942  70.9761047  40.8679352  32.7777252  71.1368637
  40.2483940  33.9602776  70.4236145  10.3933992  36.1947441  11.0809669
  11.1949816  35.9903526  11.5625505   9.6951246  35.7894783  11.5951681
  35.7749863  43.5821304  60.5930061  35.0048561  44.1142807  60.3931389
  35.4630623  42.9389992  61.2296486  56.3609161  18.8469639  52.8312378
  55.5512619  19.3573380  52.8167953  56.1834946  18.1001186  52.2594185
  30.1329422  49.2915916  31.7789993  30.3120422  50.0001411  31.1608448
  30.4561005  48.5042191  31.3409996  10.7876387  65.6882553   1.4689912
  10.9089708  65.3697433   0.5745318  11.5406361  66.2584076   1.6244167
  80.2345734  60.1358337  80.8200073  80.8023987  59.7364311  81.4790192
  80.5036850  59.7314949  79.9951935  80.1353378  59.7546463  49.8030739
  79.8991241  60.4002533  50.4691238  80.6937943  59.1285019  50.2638474
  85.5516586  44.3344421  79.7109299  84.7646027  44.6072540  79.2393799
  85.2214813  43.9134140  80.5046234   1.2883812   3.7091985  70.9539871
   0.5587419   3.1783876  71.2735138   2.0501769   3.3818674  71.4322662
  76.6342545  56.0432472  24.5943222  76.9547653  56.7590485  25.1430779
  76.3959885  56.4632530  23.7678490  31.4123898  43.8387566  59.1656837
  32.1287575  43.7231064  58.5414429  30.6542015  44.0548401  58.6228294
  41.7798729  58.5777702  40.6141052  41.2494545  58.5566444  39.8175850
  42.1230812  57.6880684  40.6969833  22.6517658  52.9479408  74.5116119
  22.1860485  53.2901688  73.7485809  22.2314129  53.3729019  75.2592392
  25.6348801  67.1056366  71.7493057  25.5970669  66.4404907  71.0619965
  25.8354721  67.9184341  71.2852478  16.9992237  65.5830765  81.6132050
  17.9428024  65.4657288  81.5031204  16.6086788  64.8688431  81.1096420
  29.2686596  13.0066996  81.0533981  28.5796108  13.6044865  80.7634048
  28.8826656  12.5368881  81.7926636  35.3978615  38.2711601   7.6398544
  34.5448570  38.6940117   7.7389026  35.2772064  37.6547852   6.9175267
  26.8589745  40.1706467  19.3415985  26.4980106  39.2843819  19.3633881
  26.1056690  40.7399940  19.4984646  29.9484062  57.2984428   5.6629295
  29.2367592  57.0092239   6.2340198  29.5532093  57.9729996   5.1106396
  18.3710766  44.3578873   8.3085060  18.4597549  43.5856209   7.7499604
  18.2786140  45.0873604   7.6956873  43.7025528  54.2243652  39.1698189
  43.5522652  53.6343002  39.9083748  42.8888969  54.7224693  39.0917892
  80.9288788  25.5275440  20.8517513  81.4149399  24.7937641  21.2279797
  80.5964661  26.0084171  21.6097069  63.4970512  13.5662479  89.1227112
  62.9249382  13.3236971  89.8507767  63.2606850  12.9604788  88.4202805
   8.0060101  27.2633972  87.2365112   7.8896370  28.0697632  86.7340546
   7.7450972  26.5663662  86.6345978  43.1132050  21.0501785  63.5479279
  44.0662613  21.0305614  63.6347122  42.8240852  21.6667099  64.2206345
  23.4382534  41.9284058  60.6493340  22.8032341  42.6397247  60.7330208
  23.6674004  41.7045517  61.5513420   5.7263579  47.9911880  62.3272247
   5.0084314  47.3676300  62.2177391   5.9479437  47.9404793  63.2570419
  72.8681641  68.7509155  16.9365921  72.7628021  68.1291351  17.6566792
  72.0616684  68.6671600  16.4278889  50.9766846  48.0298767  29.9303856
  50.6162186  48.7570801  30.4377995  50.2685966  47.7769279  29.3380508
  58.3950577  30.9343166   8.4111443  58.5051155  31.8141632   8.7716837
  57.4676247  30.7364254   8.5412951  64.1144638  30.6338768  82.9887848
  64.2038269  31.5860672  82.9490738  64.2429504  30.3433857  82.0858231
  27.5881100  20.9114056  82.6147919  28.3112297  20.8080120  81.9962158
  27.4940243  20.0491161  83.0195618  34.7142715  15.6991339   5.0408096
  34.8927193  16.3381519   4.3508496  35.4475975  15.0856771   4.9945889
  31.8823566   8.1533394  69.9217911  31.4920940   7.3239679  69.6459885
  31.3241863   8.8235493  69.5274658  76.8044815  38.3162193  37.9505615
  76.5193634  39.0926285  38.4323540  76.8681488  38.6085358  37.0413170
  71.6550751  24.0426064  39.0080528  71.9561844  24.1396236  39.9114647
  71.3456497  23.1383801  38.9545212   1.4429066  30.0897465  44.2332191
   1.8113300  29.7380390  43.4227905   0.7167188  29.5018196  44.4411278
  76.7193680  67.3865356  82.5487595  77.6453171  67.6272430  82.5186081
  76.4264603  67.6693420  83.4150467  32.7021866  11.6702118   0.2781226
  32.7051353  10.7905254  -0.0992032  33.5669785  12.0233536   0.0691746
  69.9681702  16.0997105  24.3820667  70.2908707  15.2672739  24.0368958
  70.7554779  16.6308918  24.5012970  82.7993622   3.0268118  59.7848129
  82.9692078   2.7616866  58.8808784  82.3507004   2.2763054  60.1742630
  84.4763031  19.2508297  35.8492012  84.6093903  20.0585499  35.3531075
  84.6984177  18.5523033  35.2336082  66.9430161  27.1287594  72.9400787
  66.4197159  27.4043274  72.1874542  66.7399979  26.1992989  73.0455322
  14.6928329  62.8361092  76.4698868  15.4898539  63.1381607  76.0342789
  14.5265503  61.9721413  76.0928650  27.1566067  39.9901466  56.6932411
  27.7554493  40.5654297  56.2171440  26.3944092  39.9104004  56.1197205
  22.3055534  66.9983521  51.1244240  21.9913197  66.0962372  51.1850815
  23.1449318  66.9295197  50.6695175  51.1477432  29.7337227  22.0817814
  51.9285126  29.3607616  21.6724758  50.4214706  29.2275143  21.7177601
  85.3183746  48.6551819  26.5054264  84.7540970  48.7483215  25.7378635
  86.1742020  48.4207573  26.1465015  55.6315002  48.8407631   3.8162169
  55.9423256  47.9462509   3.9557340  56.3178062  49.3937721   4.1895752
  11.9945755  69.6406555  57.6526947  12.5941095  69.3785324  58.3513260
  11.9800901  68.8922119  57.0561600  40.2733688  46.1347122  65.2385330
  39.8547058  46.4199867  64.4263916  40.3525887  45.1852493  65.1464767
  49.5214615  38.4078026  85.9896469  48.8525925  38.7425575  86.5869598
  50.3204041  38.8713837  86.2406769  86.5812225  37.4540215  22.6685562
  86.2150879  36.7370987  23.1864376  85.8171463  37.9004822  22.3037300
  27.9367714  51.1205101  21.9278908  28.8062706  51.5193672  21.9612923
  27.8866081  50.5885696  22.7220936  19.5456886  70.4618912   5.1358628
  20.3507576  70.0437698   5.4412661  19.8367481  71.2868958   4.7474246
  71.0845642  37.0331230  31.8741646  70.2780685  37.2789574  31.4209919
  71.4064026  36.2704506  31.3935604  82.8885498  40.1644287  85.3820724
  82.8560257  39.2367668  85.1483688  81.9808731  40.4605713  85.3138580
  18.6058655  66.7664948  28.9558086  19.0126553  66.7132034  28.0909882
  18.0831432  67.5677948  28.9256573  14.4141674  64.8456650  35.1712303
  15.2159081  64.7045288  34.6677208  13.7109451  64.7802887  34.5251389
  49.7314186  16.7273159  44.1255684  49.3932533  15.9954777  43.6095390
  49.3938789  17.5071945  43.6850128   6.6930590  40.0802155  32.6697922
   5.9432693  39.5477791  32.4041557   6.9393520  39.7356949  33.5282097
  23.2168198  54.1326180  23.2912617  23.5867615  54.7638741  22.6741009
  23.6135979  53.2968483  23.0457191  28.7497616  19.2613182  77.5007324
  29.2559547  19.9574127  77.0818634  28.5190945  18.6690350  76.7850342
  79.3166733  42.0375252  77.4619675  79.1068649  42.4251518  78.3116455
  80.2162323  42.3145142  77.2879028  19.3993092  30.0393581   7.1154480
  19.4374523  30.7168350   6.4403167  20.0991192  30.2703075   7.7263160
  14.2526684  45.0079346  67.0970001  14.7600746  45.7996407  66.9181976
  13.3768435  45.2046051  66.7646103  25.5188046  52.9372902  73.9665146
  24.7003841  53.1957321  74.3903427  25.4607468  51.9845772  73.8944168
  22.2667427  37.0556412  74.9263611  21.5646687  37.2745514  74.3136597
  22.1488667  37.6664619  75.6538467  62.0124779  49.0150986  20.5600491
  61.4503021  48.3551826  20.9658794  61.4802094  49.3817406  19.8540039
  78.0755768  11.0853806  59.8404541  78.4509583  10.2772036  60.1899834
  78.5671768  11.7840967  60.2721443  58.8116493  48.0916824  78.0160294
  58.0038681  48.5248756  77.7402344  59.1309280  47.6550369  77.2263260
  13.5320921  29.8991280  88.8143005  13.4255314  30.0763950  89.7488861
  12.6386328  29.7960911  88.4866714  60.3962135   0.8300175  35.9736366
  59.8203468   1.5826025  35.8386421  61.2791634   1.1793140  35.8527031
   5.6132231  29.8522949  64.0282440   5.7301006  29.8376179  63.0783234
   6.4364748  29.5096111  64.3761826  33.0730553  67.0595016  51.9483833
  33.2800560  66.9791870  52.8794746  32.9615746  67.9997711  51.8080444
  74.0600357  21.1705265  51.5880928  74.3284988  21.4695778  50.7193413
  74.4962921  21.7702732  52.1932526  48.9844894  17.4598255   9.3285379
  48.5537453  17.1256733   8.5417509  49.6952820  16.8404102   9.4938555
  29.0509624  46.0902672  71.6335983  29.4404125  45.2186775  71.7035446
  29.7642498  46.6896400  71.8531647  27.3228054  18.2127209   3.5776346
  27.5864983  19.0324650   3.9956269  27.2370262  18.4335384   2.6502118
  33.8165627  38.7663193  81.4796143  32.9376602  38.9307747  81.8212585
  34.3199615  38.4796295  82.2416077  73.8073196  18.1083221  50.0561981
  74.7329483  17.8810406  49.9679718  73.6543961  18.1275120  51.0009079
  46.4841003   3.7789481  36.0606689  46.2215652   4.4927421  35.4794617
  47.1784134   4.1541638  36.6023102  54.6502075  55.0860214  37.9674072
  55.5360832  54.8419762  37.6992607  54.5465164  55.9866219  37.6601677
  59.7587852  41.6402779  51.1778717  59.0780487  42.2826576  50.9774170
  60.2793236  41.5849380  50.3764915   3.3141739  45.6260529  33.9682732
   4.1924214  45.3193245  33.7428131   2.7851710  45.4265480  33.1958847
  23.4885654   4.3459954   6.6724138  22.8158188   3.8321657   7.1192064
  23.4203644   5.2185316   7.0600481  44.7995415  42.9408989  13.4916983
  45.5169067  43.3054390  14.0100908  44.1722260  43.6595001  13.4122124
  42.7579422   1.6405734  21.4966335  42.0020218   1.6707617  20.9102001
  43.0831642   0.7434010  21.4221725  65.5363617   1.9101458  51.7945099
  65.7939529   1.7794517  50.8819351  65.8264389   2.7988040  52.0003510
  33.0551376  69.7726288  34.3695717  32.4716415  69.1277237  33.9697533
  32.9241676  70.5673065  33.8522987  26.1809559  32.4206657  66.1203537
  26.0966225  31.8887844  65.3290100  26.2774086  31.7834435  66.8280792
  45.8625641  35.9216995  28.6813602  46.2158203  35.4486160  29.4347744
  45.3908424  36.6619720  29.0630741  19.9371529  62.6418076  83.9169083
  20.0581455  63.4929771  83.4960632  20.4444008  62.7006493  84.7265167
  78.0894547  21.3384037  63.8362236  77.1734695  21.2446270  64.0977783
  78.5697937  20.7697430  64.4379959  82.1919174  68.5185242  29.4726582
  81.7922668  67.8659744  28.8976021  81.5924225  69.2640991  29.4419212
  21.6222439  49.8137856  83.2132950  21.7814522  48.8789520  83.0830231
  21.8090553  50.2094803  82.3619690  59.8672409  71.7358932  64.1685638
  59.4108200  70.9622955  63.8377113  60.4470100  71.3982162  64.8512573
  24.8034248  19.5428200  74.4370117  24.9778385  19.7391624  73.5165405
  23.8582268  19.6603031  74.5320358  45.3812218  53.6871681  62.2203522
  45.6249390  52.9134521  61.7122269  45.2821198  54.3806496  61.5680542
   9.9721222   2.4207544  77.3820572  10.7363567   1.9523439  77.7178650
   9.6460075   1.8686372  76.6713867  82.8200378  64.0012436  49.7061272
  83.1739044  63.3783226  49.0713196  81.8744736  63.9825897  49.5584946
  66.9545822  41.7895088  17.4993382  66.0028381  41.8821869  17.4566116
  67.0976639  40.8554077  17.6516781   6.0771003  19.4644222  86.4357452
   6.8752618  19.9589901  86.2498093   6.3692093  18.7349377  86.9823380
  83.3566360  14.5073299  88.5482712  83.6461716  15.0586128  87.8212967
  84.1038589  14.4874706  89.1461792  21.6713104  62.6374779   3.2859051
  22.0555668  63.4729271   3.5516138  21.9695377  62.0149803   3.9490716
  39.9834137  27.4375668  64.3108215  40.9231873  27.5002670  64.4814987
  39.6022301  27.1963882  65.1550751  23.7695236  34.2270088  14.1298380
  24.4529171  33.8943787  13.5479774  23.9059372  33.7572556  14.9526100
   9.2554750  53.4410591  31.7085342   8.3906260  53.0344315  31.6544762
   9.6065674  53.3762054  30.8204117  40.5071678  60.3565216  83.9541321
  40.0242386  60.1429214  83.1557617  39.9921837  61.0495071  84.3674011
  81.4780121  70.7475204  21.8269844  81.6694641  71.6778488  21.9455547
  82.2655792  70.3914337  21.4156857  79.6991959  47.0624390  85.6320496
  80.1073990  46.1991310  85.6976242  80.2261887  47.6206131  86.2038498
  23.9712181  23.0309525  62.7401428  24.6718616  22.8548717  62.1121902
  24.3970165  22.9762077  63.5956726  31.2209167  12.1216040  65.4327698
  30.5133362  12.4621201  65.9801331  30.7740326  11.6944447  64.7019730
  75.7602692  68.6281738  38.5328979  76.0621719  69.3392944  39.0980530
  75.4743271  69.0648499  37.7305336  51.7233467  34.1984673  64.9884949
  51.3905258  33.5765381  64.3414536  51.5968018  33.7596321  65.8297119
   1.6406964   9.3725691  76.8677139   1.8725134   8.8933935  77.6632538
   1.7906214  10.2915955  77.0893936  29.0173416  63.6835403   6.8059068
  29.7384357  63.0568123   6.8647666  28.8940048  63.8192062   5.8664308
  64.6702881  13.1459951  50.6221428  65.1445465  13.6741600  51.2642937
  63.8065720  13.5548401  50.5667419  83.3213959  19.1242905  31.9409885
  83.5526352  20.0326195  32.1351433  83.9714355  18.8441372  31.2966328
  61.0635452  33.4663200  16.8302479  60.9025078  32.9545288  16.0375519
  61.5390511  32.8695488  17.4081631  59.6693878  24.6275291   9.9523277
  59.3121452  24.5040226  10.8317347  59.0894203  24.1198788   9.3847332
  55.9405556  12.6884899  24.1934452  56.3822670  13.4882784  23.9080315
  55.0203514  12.9391241  24.2749062  67.3916321  35.2757874  81.8250809
  67.1521683  34.3572731  81.9484558  68.3069000  35.2492943  81.5461197
  63.4961548   4.2405424  63.9446411  63.1666222   4.5265880  64.7965927
  62.9995651   3.4456327  63.7503510  48.4349823  50.6260529  68.0818024
  47.4962807  50.5406075  68.2484512  48.5732040  51.5662041  67.9667130
   7.1926012  64.5535355  40.7759590   6.8144684  63.8306885  40.2752151
   7.1902733  65.2929764  40.1681404  82.5417938   4.3298292  43.2942848
  82.1174393   3.7934628  43.9639626  83.1815262   4.8534813  43.7767334
  62.9775581  21.6493454  12.2400923  62.0321999  21.6756401  12.0923166
  63.2855911  20.9272442  11.6924467  41.2609444  63.0139465  77.9719849
  41.2935982  62.5648041  78.8166351  41.4137535  63.9347153  78.1842728
  68.5505066  40.6820526  35.0164223  69.2592087  40.5691910  35.6498489
  67.8411636  41.0821457  35.5194092  24.1650410  12.7518969  47.2925262
  24.5930614  11.9890041  47.6811447  24.0379944  12.5133715  46.3742676
  60.0462227  18.3235645   2.1969697  59.5106926  18.0339985   1.4583290
  59.6200142  19.1243610   2.5024283  77.9444962  65.5041504  64.4336014
  77.9338455  66.3755112  64.8296432  78.7007294  65.5169373  63.8469353
  81.6456528   4.3514934  71.4700241  82.0157089   3.6372604  70.9512177
  81.7506790   4.0673480  72.3780212  36.3181419  59.3867111  24.4779606
  37.0407600  59.3061867  23.8554058  35.5511627  59.5631790  23.9331360
  78.7632523   7.0645194  63.0923615  79.1121979   6.1871233  62.9353752
  79.3121796   7.4189768  63.7918396  43.5990028  71.4242783  77.2916183
  43.1484222  71.3718491  76.4487305  44.3799934  71.9482727  77.1135254
  81.0310745  24.3913250   6.0251765  81.1087112  25.3101711   6.2819400
  80.2343216  24.3570652   5.4957981  16.5077152   8.5111246  67.7617798
  15.6283236   8.4769182  68.1382523  16.6712608   7.6196904  67.4538345
  63.8242188  23.6583481  81.2022095  62.8892326  23.5752811  81.0147781
  63.8863106  24.4206219  81.7778091  79.5869751  46.2361946  80.2789993
  79.9623947  47.1083336  80.1578979  79.4294662  46.1719208  81.2209549
  23.1908932   7.8996210  74.3129654  22.7223320   8.5176430  74.8739700
  23.9459610   8.3925848  73.9918823  29.4842644  33.3705826  84.9288406
  30.3082180  33.8326530  84.7744904  28.9364700  34.0054359  85.3904800
  55.9221001  67.8275375  16.8606892  54.9865494  67.9824677  16.7303963
  56.3165588  68.0130386  16.0085011  22.3464088   9.5945873  10.9266615
  22.1364613   8.7559729  11.3376122  22.2509766   9.4319859   9.9882135
   7.2475162  34.9695206  43.0984726   6.8402600  34.4979248  42.3718567
   8.1630583  34.6907082  43.0818062  37.7410812  70.4805908   7.6029892
  37.4355049  70.1170120   6.7719254  38.3369293  71.1861038   7.3511124
  84.4639740  59.3033218  70.7274094  84.1500854  60.2036209  70.6427689
  84.8470764  59.1019821  69.8736343  76.7335739  60.0825882   1.7397619
  76.2941208  59.8806381   0.9137319  76.1193008  59.7938690   2.4146962
  80.6017075  26.9185772  17.2425690  81.3765335  26.3574409  17.2742214
  79.8637619  26.3091812  17.2602768  21.9387684  26.7274246  67.8398972
  21.0165920  26.4710693  67.8502426  21.9218369  27.6839371  67.8719711
  85.6955490  24.6401711  80.4525375  86.1651382  25.2056580  81.0656815
  86.2142258  23.8362255  80.4228516  15.6602221  28.8350906   4.2054586
  16.0588455  28.5186462   5.0161343  15.3679047  29.7226543   4.4128513
  55.1479836  50.8851280  46.3231583  54.3153229  50.4651756  46.1074104
  55.1649971  50.9057617  47.2799835  68.8361053  31.0450077  70.5929413
  69.6736221  31.2317924  70.1687775  68.4066620  30.4190598  70.0098495
  26.7480507   0.6521396  47.9912300  27.5224152   1.2012650  48.1139145
  27.0117340   0.0100496  47.3321228  47.9913826  50.1413536  15.5166082
  47.4934464  50.4554253  14.7618561  47.3811340  49.5729485  15.9864416
  22.9925785  55.8550110  41.6629562  22.8945427  55.5526886  40.7600594
  22.3750458  56.5822525  41.7404175  66.7478333  28.2255459   6.6602569
  66.3449860  27.3976936   6.9221911  67.0211716  28.6299877   7.4836307
  43.5240555  59.0381050  74.0221710  43.9711227  58.9513168  73.1802444
  42.6767502  58.6133766  73.8883286  48.8960686   2.2356465  42.4642601
  49.8485069   2.3226988  42.4252930  48.5656662   3.0248864  42.0351143
  72.1439285  48.8759308  22.2118645  71.7520676  48.0546875  22.5089111
  72.6683960  49.1736946  22.9551678  56.1654015   2.3277915  13.9956732
  55.3073349   2.7507894  14.0277052  56.7555008   2.9507203  14.4199018
  28.3874111  48.9557343  47.8372879  29.0797215  49.2675056  48.4201584
  28.8478241  48.6794853  47.0448647  50.4575539  68.1011658  32.7080231
  49.8996391  68.2441711  33.4725533  50.8432159  68.9587784  32.5291710
  55.4547272   2.1308861  21.4952717  55.3372383   2.0072050  22.4371471
  56.1583176   2.7759933  21.4243393  67.8692627   4.5569830  56.9177017
  67.2436523   4.1651778  57.5270691  67.4617081   5.3817558  56.6533546
  74.2384109  30.8113270   1.6557679  74.1982803  31.5479031   1.0457864
  73.9339066  30.0609112   1.1454902  35.0582390  27.6429405   4.3353887
  35.4139099  27.1250782   3.6132045  34.4379196  27.0562267   4.7680573
  10.0576134  37.2850227  14.7703276   9.9372168  36.6179771  14.0944662
  10.7744484  36.9521904  15.3103313  53.6963196  20.3664074  82.8111267
  53.8978195  21.3001118  82.7492752  54.1313820  20.0801849  83.6142654
   2.3346322  10.8372440  60.4111214   2.1594555  11.5636644  59.8129082
   2.0449576  11.1557989  61.2660141  54.0279427  54.5689278  57.7698517
  54.4036636  54.0168114  58.4555855  53.0965157  54.6175842  57.9850388
  67.8091125  31.9862709   5.7292714  67.3428879  32.7937126   5.9458308
  68.5974579  32.0120926   6.2715626  66.7196045  55.2889061   4.0414815
  66.2006989  54.5092697   3.8436651  66.4822769  55.5125885   4.9414101
  60.7660408   5.2978973   7.7493601  61.1070023   4.9288588   6.9346290
  60.9194031   4.6162925   8.4036741  70.0058212  47.7421722  64.4363785
  70.2677917  48.5805511  64.0559464  69.1327515  47.9037819  64.7939529
  16.4665947  37.0250587  70.5625916  17.1319122  36.6474419  69.9872742
  15.6580524  36.9859085  70.0517502  23.5795479  60.6859474  26.3068485
  23.0391369  60.0480232  25.8407574  23.0045929  61.0346947  26.9880486
  52.5778503  40.7818718  24.3803291  53.3443451  41.1197548  24.8435307
  51.8669281  41.3714752  24.6317062  39.9375381  66.0694809  10.9472952
  39.5841789  65.7803879  11.7885981  40.7981186  66.4304199  11.1602755
  25.6580162  50.6500435  84.8389053  26.3088856  50.6101608  84.1381836
  26.1734200  50.6393356  85.6454239   1.9155233  21.6542950   0.7342094
   2.6707482  21.0989017   0.5408029   1.9488387  22.3434334   0.0707271
  15.9304838  16.1032867  79.0862350  16.6126347  16.3231583  78.4517670
  16.3424454  16.2429352  79.9388885  61.2976341  20.4301071  39.2840843
  61.6667595  19.5486851  39.2286606  62.0601387  21.0085068  39.3004608
  54.5806847   2.9307454   2.5279512  55.3346939   3.5015063   2.3798409
  54.2619057   3.1756208   3.3966558  31.2421341  50.9149971  81.4801636
  31.2275047  51.2271729  82.3849106  31.1412144  49.9658928  81.5526199
  78.2284546  59.9900246  15.6709604  78.1723404  60.4666786  14.8427801
  77.3452148  60.0401764  16.0364914  45.4724960  42.4679108  20.9136448
  44.7960739  42.7483978  21.5300961  46.1934395  43.0818481  21.0534801
  64.5594940  18.3126736  73.4076691  65.1575775  18.9456196  73.0102921
  64.4265823  17.6503162  72.7295456  39.4173965  46.1396408  25.0308590
  39.1619606  45.7026138  24.2184601  40.2387428  46.5821228  24.8167801
  60.7812386  20.5271301  79.7663116  61.5124626  20.1056194  79.3147888
  60.2451859  20.8941383  79.0633240  34.8817024  64.4300842  62.6831093
  35.4022446  63.8265953  62.1529503  35.1702995  64.2696304  63.5815506
  27.8908558  -0.1575102  71.4613495  28.2615814  -0.5243488  72.2639847
  27.5578022   0.7011886  71.7220078  34.5129089   6.2195597  71.9242706
  33.6493340   6.3369379  72.3201141  34.7289352   7.0786662  71.5616455
  68.1533356  48.4150429  75.8860474  69.1003876  48.3933449  76.0233383
  67.9696808  49.3176613  75.6256943  11.1671753  66.6166687  23.3467674
  10.9094515  67.4934540  23.6314735  10.6226425  66.0261078  23.8672943
  51.1776314   7.0387592  86.2102890  51.4432793   6.3396173  86.8076706
  50.3195419   6.7643042  85.8868866   3.0458357  39.3821678   7.0241842
   3.8894227  39.7055588   7.3404317   3.0874028  39.4936142   6.0744033
  19.3822212  46.7448616  24.2348232  18.4693356  46.8583717  24.4993687
  19.3532257  46.7210579  23.2783585  75.4881439  27.0182400  66.8210373
  74.7604980  27.0136986  67.4429245  75.8822556  27.8849239  66.9198456
  42.0682640  14.2727785  77.4201202  42.0286140  15.2185163  77.2778549
  41.6408501  14.1397181  78.2661972   3.9489501   8.7866364  74.1243820
   4.9032321   8.7255783  74.0813751   3.6749821   8.9005461  73.2143250
  43.6004448  61.3843193  66.1333771  43.6061592  61.8754616  65.3118057
  44.3281517  60.7682190  66.0491791  13.6545439  71.0482712  75.3855820
  14.5579271  71.1488037  75.0855408  13.3662758  71.9399719  75.5805283
  42.5067711  52.3539162  40.6219864  43.0359421  51.5870361  40.4026527
  42.2592468  52.2203865  41.5369377  76.1965332  23.9038773  34.0300484
  76.4773788  23.3166904  34.7318840  75.8572540  23.3205929  33.3511505
  53.5445976  27.2630196  34.0790138  53.4056702  26.7461834  33.2854080
  53.6090355  26.6137905  34.7794304  11.8026390  45.2292976  78.7477036
  12.3682203  45.0246696  79.4923401  11.2804222  44.4375114  78.6188812
  80.3432159  37.2362595  87.1790390  81.0916367  37.7332382  87.5093613
  80.3867340  36.4005585  87.6437302  18.6912308  54.2020569  13.5811415
  19.0592442  55.0813141  13.6689167  18.0762386  54.1258926  14.3106728
  33.5554886  44.2721367  69.8517380  33.4970093  44.8104706  69.0624313
  33.3708344  43.3829117  69.5493927  67.6821671  33.8797493  63.8430481
  68.1805038  33.4007530  64.5052109  67.4309006  34.6955833  64.2760773
  62.3664055  66.1218109  16.0925388  61.7982903  65.3739090  16.2772541
  62.5544662  66.0542984  15.1564264  63.7363815  39.4017677  33.9795914
  62.8696671  38.9969177  33.9458427  64.2696533  38.8761215  33.3833084
  50.6926842  27.8632736  77.1776199  50.3004951  28.7251072  77.3178406
  51.5806503  28.0508404  76.8733749  48.7947311  40.6472244  72.3827515
  47.9232979  40.6386070  72.7786789  48.7090797  40.0983391  71.6032486
  18.3760376  24.9450741  84.9794159  18.9873524  24.9800148  84.2436829
  18.5963154  24.1328449  85.4354782  70.5793228  29.9440117  87.8308792
  70.0074921  30.2729893  87.1373291  70.1360168  30.1889286  88.6431198
  61.3368835  47.2896690  60.7763557  61.3278236  47.2555504  61.7329025
  62.1298447  47.7809639  60.5617142  67.2673111  32.1720467  82.6098557
  68.0679016  31.6727486  82.7710724  66.5750732  31.6537914  83.0202866
  40.5297165  22.0113716  16.4753647  41.0697746  22.4629269  17.1239529
  40.1479836  21.2746773  16.9526405  73.5902481  17.4024925  58.7106857
  73.3124771  18.0872040  58.1022072  73.1272583  17.6027660  59.5241737
  23.8431282  46.0050507  87.2393494  22.9375801  46.0455475  86.9318161
  24.0239239  45.0693893  87.3292542  84.0969925  63.5996094  12.1975870
  83.6098938  62.9083366  11.7491322  85.0166473  63.3794556  12.0492735
  22.1759701   2.7712498  10.0335922  22.6967163   3.5535104  10.2155933
  21.7088470   2.9775033   9.2239714  85.6347733  21.2132339   3.4817073
  84.9364090  20.5640354   3.5657220  85.4096069  21.7065201   2.6929114
  47.2835350  58.3171692   0.7643733  46.4460754  58.7729836   0.8488032
  47.9035454  59.0005035   0.5096812  12.4801722  37.9717751  32.0339470
  13.2995110  37.6509247  31.6571560  11.7966976  37.5763054  31.4929314
  15.7728767  59.5809860  48.8792953  16.1095753  59.4888649  47.9880142
  14.9299145  60.0217171  48.7725220  58.6906052  48.8430786  72.3452988
  57.8530807  48.4360275  72.1237183  59.2140961  48.7632523  71.5479126
  32.9329872  49.7966766  37.1202850  33.4196968  49.1003838  37.5613327
  32.0146980  49.6039391  37.3095627  26.6879082  53.6937866  22.5335865
  26.8683357  52.7664948  22.6878853  25.9335785  53.6962013  21.9443398
   2.1408048  66.9330826   1.5412240   1.3508126  66.6112671   1.9754803
   2.8519602  66.7103806   2.1419671  75.4172668  58.4172897  34.3108139
  76.0918808  59.0917549  34.2319221  74.8228683  58.7505341  34.9830246
  27.9536457  64.6188889  43.7240715  28.4317703  65.0976410  44.4011421
  27.2322235  64.1985397  44.1921387  27.2851849  15.7544127   5.4168525
  27.0937252  16.5466099   4.9148574  28.1483898  15.9151564   5.7979975
  73.5887756  49.5607872   5.6257615  73.6190186  50.4732246   5.3380485
  73.9338226  49.0641289   4.8838010  16.0321140  49.3111076  74.9721375
  15.8756523  49.0217133  75.8710251  15.3681965  49.9831581  74.8178864
  54.7340240  52.6822624  59.5373116  55.0521355  52.0894394  58.8564339
  54.1948395  52.1297302  60.1031914   2.7157125  24.5552979  42.9529572
   2.1350737  23.8162441  42.7716026   3.5959468  24.1800671  42.9280205
   8.5282097   4.8381991  26.0627499   8.2223377   5.5641360  25.5189762
   7.8246059   4.1909060  26.0160007  57.0617943   7.8456941  10.9858389
  57.7172775   7.4027786  10.4469557  56.6010361   7.1363220  11.4338636
  42.5910950  63.1777191  49.0777016  42.8815651  63.8349838  48.4453545
  43.4001045  62.8465652  49.4676743  43.6830711  65.4658661  14.4509678
  44.6232719  65.5891876  14.5815153  43.2970963  66.3127747  14.6745872
  28.1134510  53.8436317  24.9466228  28.2604637  52.9116440  25.1079063
  27.5104313  53.8659210  24.2035866  66.2526855  27.3055801  82.6201553
  66.9759827  27.7598858  83.0522308  65.8325119  27.9788551  82.0850067
  35.0014000  47.8711929  50.2306633  35.9491386  48.0051003  50.2402763
  34.8250885  47.3506927  51.0143890  85.2041473  57.1771660  20.8694725
  85.3215942  58.1082344  20.6809139  84.6776047  56.8496742  20.1402740
  66.0652313  19.8211689  50.5224762  66.9274368  19.4874992  50.2744675
  66.0466690  19.7508812  51.4769096  44.7617760  58.7152138  23.9780254
  45.1764183  59.5761795  24.0331287  45.4841423  58.0947990  24.0755444
  66.9707718  18.1521225  28.3715649  67.8842697  17.9720345  28.1494770
  66.9319687  19.1031303  28.4731064  57.3034821  23.7962666  17.7223053
  57.6633263  22.9420547  17.4834251  57.1440620  23.7341290  18.6640873
  33.3083534  63.4090576  26.1240921  32.4320145  63.3625565  26.5063248
  33.8646698  62.9348869  26.7420731  78.3482437  34.4583473  73.9660721
  78.8611069  34.4515839  74.7742538  78.8102493  33.8548813  73.3841705
  57.2016602  44.5037155  47.2645760  57.3368492  44.6799622  48.1956482
  57.0272141  45.3631630  46.8809853  11.6201897  26.6165352  81.6175156
  11.9390488  27.0925484  80.8507233  12.2982817  26.7481289  82.2801666
  28.7097969  66.3970108  52.2164993  29.5091534  66.5808334  51.7230682
  28.2173901  67.2173843  52.1890411  67.5275116  32.1556778  28.6731548
  66.7175217  32.6228867  28.8777523  67.2366638  31.3081589  28.3364830
  18.0929985  10.1879835  20.8262882  18.3243542  11.1157074  20.7811832
  17.1754074  10.1565313  20.5556087  32.7909470  28.0444412   1.5728171
  32.5392151  27.1415539   1.7668663  33.6728210  27.9739437   1.2073523
  17.2537289  36.6683807   0.4571544  16.8969860  36.7498322   1.3416501
  16.8976955  37.4211006  -0.0149572  45.5285339  26.8541107  22.7716026
  45.6174774  27.7648506  23.0524445  44.8785744  26.8823681  22.0694733
  54.3197594   3.1532352  74.8560638  54.5741882   3.5231643  74.0106964
  53.3641357   3.1109133  74.8211288  37.9534569  65.5277252  59.0909271
  37.0235023  65.4288025  59.2949715  38.0059662  65.3984070  58.1439590
  51.1524773  60.6048737  65.1228943  50.7545280  61.0169868  64.3560638
  50.6768875  59.7805672  65.2256775  44.6513634  45.5900116  68.5234070
  44.0638046  45.1224937  67.9297485  44.0673561  46.0877762  69.0955887
  32.5237427  47.0397835  74.3859558  32.9416313  46.8529167  75.2266006
  31.6197319  47.2592506  74.6114120  83.3258286  49.8471794  70.8686295
  84.0504379  49.8147812  70.2440338  83.5666809  49.2171249  71.5477905
  39.6966591  38.8808823   1.4937998  40.6019745  39.1617470   1.6270229
  39.6823120  38.5339699   0.6017916  25.2197647  54.2677956  83.8360519
  24.7513771  53.8424568  84.5543365  24.5972195  54.2645073  83.1089630
  74.8187103  52.9287987  45.5731850  73.9857864  52.7896538  46.0238571
  75.3409271  53.4434586  46.1885262  48.0267143   0.5399150  49.5849037
  47.6219139   1.3941536  49.4344215  47.9691429   0.4110305  50.5316391
  53.4007835  66.9165649  59.0333977  52.9717102  66.1476059  58.6581230
  54.3228874  66.8153763  58.7973480   9.3373089   6.0524154  21.9865570
   8.9479094   6.6131096  21.3155708   9.2397671   6.5484705  22.7993584
  48.6264877  26.4924908  32.3643684  47.8954048  26.6911983  31.7793331
  48.5373802  25.5577202  32.5500984  30.5534344   1.7173291  31.5708714
  30.5468197   2.6212003  31.2559032  29.9483109   1.7176998  32.3125305
  32.4236603  40.9615402  60.3975639  31.7344646  41.4930458  59.9991379
  31.9687595  40.4301109  61.0509262  62.8541069  63.0501518  55.4464455
  63.6454964  62.5698051  55.2031288  62.8687401  63.0668144  56.4033890
  63.5346947  47.4585533  35.9223747  64.1760025  48.0162888  36.3627014
  62.8053894  47.3989029  36.5394554  78.8008881   1.9393221  53.0380669
  79.0750198   2.0251765  52.1249886  78.9754486   2.7984445  53.4223442
  20.4665089  19.1484756  64.2264862  20.9881153  19.7982998  64.6975327
  20.5576496  18.3479233  64.7432480  20.2144814  39.9934425  71.5209351
  19.4374599  39.9130478  70.9677505  20.8965702  39.5183220  71.0463257
  40.0524788  51.1683426  53.8006668  39.3792152  50.9062500  54.4285660
  39.9471512  50.5604095  53.0688477  20.4547462   0.9262781  85.5186539
  20.1758575   1.4614108  86.2616730  21.3749886   1.1561208  85.3899689
  46.7540741  57.0444717  23.2137299  46.1440773  56.4544144  23.6564140
  47.6187439  56.7642708  23.5138302  43.4526558   4.8905721  56.8542900
  43.5384827   4.3076720  56.0999107  43.1690979   4.3188434  57.5676994
  35.7433014  49.3190460  76.4775772  34.8744850  49.4295654  76.0913544
  35.9276772  48.3839722  76.3888474  35.4041176   2.8438599  43.8207283
  36.0417023   3.3900638  43.3609695  34.5537415   3.1589897  43.5144844
  14.1996193  26.0660267  71.3115082  14.6992025  26.4331856  70.5822372
  14.2961559  25.1186085  71.2150269  52.4807816  42.5109634  77.4737625
  51.7185783  41.9340706  77.5234680  52.8677673  42.4724388  78.3483963
  28.0580654   5.0105138  68.4032364  28.8962860   5.4725671  68.4143982
  27.6493454   5.2356153  69.2389984  16.8356113  65.0789719  11.3910589
  16.9305248  65.8983994  10.9055109  16.2261372  65.2890472  12.0986195
  33.1660309   2.0164993  27.0152664  33.6040993   1.6819596  27.7978344
  32.8677139   2.8915324  27.2633686  77.2570953  44.1393890  85.7157822
  78.1528091  44.1991959  86.0479736  76.9551010  43.2752190  85.9954910
  49.7341270  40.7059784   4.2319188  48.8920441  41.1507530   4.1354542
  49.5053711  39.8143616   4.4944477   4.6344090  32.2541733  50.1554680
   4.3460689  31.3438396  50.2217178   5.0692739  32.4290161  50.9900665
  10.2285004  13.8169918  21.9125214   9.7808285  13.6533594  22.7426090
  10.9159746  13.1519527  21.8759975  32.3184509  13.1597595   3.8613687
  32.5981979  13.9615126   4.3031425  31.6945610  13.4565458   3.1988630
   1.1425724  10.0838985  23.1364193   2.0483675   9.8313580  23.3152790
   0.6167411   9.4613552  23.6385880  31.4195042  65.0152130  62.7488594
  32.2667313  65.2063675  62.3464966  31.1511536  65.8432770  63.1470070
   5.9912305  37.4394417  57.9766121   6.0789199  37.4747963  58.9291306
   6.6979380  37.9964371  57.6501923  34.5823593  59.4160614  12.2501984
  34.9765396  60.2737503  12.0913544  33.9325676  59.3184853  11.5541525
  65.4933624  15.2284441  88.8523407  64.9205933  14.4794111  89.0170059
  66.3777161  14.8627377  88.8726578  55.5589104   2.2868583  87.9888916
  56.4424553   2.4842215  88.2997360  55.2317505   1.6269706  88.6002350
  60.2677956  21.9893761  62.5282173  59.9046860  21.2715244  63.0469360
  59.8898621  22.7792740  62.9148178   9.9080400  25.7992077  83.8047256
  10.2351332  26.6966629  83.8665009  10.5262871  25.3585491  83.2217789
  12.0823574  31.5713024  10.8383675  12.7887888  30.9336357  10.7355690
  12.0822544  32.0631027  10.0171719  71.4107513  62.0060539  21.0755100
  71.1911469  62.6070175  21.7874432  72.3600388  62.0839615  20.9805374
  59.6465645  48.9965019  87.7748032  59.0562782  49.3062477  88.4617233
  59.0935822  48.4580727  87.2086487  41.3262711  58.9539185  19.3466644
  41.2734337  58.9226799  20.3018951  42.1867142  58.5877304  19.1422768
  83.7051773  25.3840027  85.3101044  82.8092575  25.3013992  84.9834061
  83.8491592  26.3278465  85.3783722  80.7052841  47.0408287   8.2487841
  79.8268890  46.7621727   8.5076523  81.0022507  46.3632240   7.6414189
  79.9011765  13.6432152  13.5190420  80.3090439  14.1305294  14.2348633
  79.8376007  12.7458076  13.8459215  72.7310867  24.2141151   1.2974674
  72.6911316  23.9271717   2.2097719  73.5231094  24.7494698   1.2492372
  30.0516796   9.4486265  11.9596462  29.8952427   8.5051737  11.9189444
  30.8467960   9.5371151  12.4851856  70.7158356  40.2060661  28.2022324
  70.9379349  40.1806221  29.1329594  70.2120743  41.0133057  28.0981884
  25.1799622  31.0408134  74.7993622  24.3115807  31.0354061  74.3967209
  25.0371399  31.4076443  75.6718674  78.2010956  12.3482895   9.6094627
  78.2216263  11.9047585  10.4574547  78.8394623  13.0565014   9.6940699
  56.0850983  29.5730114  26.2088146  56.2788162  28.7179031  25.8247604
  56.7200813  30.1656380  25.8065472  30.2470303  61.8356743  36.4822235
  30.2626972  61.3278923  35.6709633  30.1206455  61.1829987  37.1709023
   3.0649276  10.1370230  25.7976475   3.1265566   9.6729975  26.6325798
   3.2495472   9.4685240  25.1379070  61.2909622  56.3029213  17.6260147
  61.4365540  56.2316322  16.6826420  60.7867508  57.1098518  17.7302418
  64.4840546  27.8017540  38.2740517  64.2821579  27.6422138  39.1960144
  65.2887192  27.3079739  38.1161537  42.2114830   1.5921782  86.6855240
  42.1288681   2.0623772  85.8558731  42.4230957   0.6938436  86.4316635
  78.5306854  44.6332283  30.8128223  79.0975800  44.4348412  30.0675011
  78.4744797  43.8094063  31.2969570  35.9598236  63.4605064  86.9702225
  35.7732773  64.2051086  86.3983917  36.0766754  63.8480339  87.8376389
  62.0737610  28.5311337  66.0141220  61.7555275  28.3691368  65.1260223
  61.3186073  28.3543434  66.5751114  16.7094116  53.8556366  67.8177261
  16.4922447  54.1106033  66.9210358  16.4984684  52.9228935  67.8592682
  30.8951378  41.4087334  73.8861694  30.8721962  40.7717781  74.6003113
  30.9060440  40.8764191  73.0907135  71.4846725   5.7835369  16.1739159
  71.0619659   6.5743117  16.5089226  72.3582993   5.7949729  16.5649052
  58.0663300  38.9972801   7.2001138  58.3226357  39.5887260   6.4924912
  58.8478088  38.9269371   7.7483644  66.4192734  53.4150734  36.0297966
  66.2149048  52.5868340  36.4639473  67.2368546  53.2449188  35.5619926
   1.1554456  47.5930252  11.6559038   1.3814756  47.7069206  10.7327728
   1.6853610  46.8490868  11.9422188  25.3554516  17.7564106  67.9449387
  24.8772488  17.3356895  67.2304077  26.2697315  17.5153999  67.7958145
  32.5174942  70.5811234  42.8440170  33.3128395  70.7868958  42.3527756
  32.1108627  71.4318619  43.0087128  57.7744751  68.1777725  71.9683075
  58.1998253  68.5088425  71.1772995  57.4873772  67.2951279  71.7343292
  58.5662498   9.8612690  80.0482483  57.9949722   9.2227430  79.6214447
  57.9721298  10.4087296  80.5616074  15.2542219  32.4573784  66.5844040
  14.4362450  32.5556908  67.0717239  15.0563250  32.7997398  65.7127075
  35.0997581  59.9310570  58.3162651  35.7724686  59.5118408  58.8528748
  34.7596436  60.6365547  58.8665619  61.9988632  43.8389511  79.2672729
  61.8123093  44.1243057  80.1617050  62.4660225  44.5757103  78.8733444
  19.9684353  42.8508720  68.8831100  20.8333149  43.1779175  69.1306152
  19.6807232  43.4390907  68.1849365  47.5713272  55.9651718  16.1677094
  46.7629089  56.4575844  16.3099251  47.4592400  55.1666183  16.6834450
  78.0521393  68.7786407   2.1141844  78.9176712  68.3990936   1.9624406
  77.4403152  68.0791016   1.8849667  77.9580994  42.3273735  32.0663071
  78.3002548  41.5230103  32.4563789  77.3041763  42.6379204  32.6925507
  84.7984619  66.1848373  58.5042267  83.8820267  65.9328613  58.3906937
  85.2644043  65.3547592  58.6046944  59.6911583  27.6057606  45.8819199
  59.5632591  28.4901867  45.5388985  59.0994873  27.0600567  45.3638763
  20.3133984  36.4403267  65.3054352  19.3868980  36.6325912  65.1609879
  20.6228180  36.1063652  64.4634399  48.8489647  13.6137142   6.7975192
  49.4827881  14.1535368   6.3251925  49.1031189  12.7133770   6.5949593
  19.9773788  12.9202347  59.3198471  20.8211651  13.3656263  59.3965530
  19.5360603  13.3660736  58.5968704  12.6024380  12.4376612  21.8900032
  12.6058168  11.7488089  21.2253971  13.0495377  12.0478554  22.6412601
  71.8587570  17.1788139  63.7111435  72.3463745  17.9810467  63.8979301
  70.9790955  17.3493290  64.0478058  74.1086731  13.6876888  72.3049011
  74.9267578  14.1818066  72.2517776  74.2956543  12.8654375  71.8519440
  37.9769020  36.6265526   8.3320322  38.1178360  35.6798363   8.3418751
  38.3108635  36.9095840   7.4808002   7.7254157   0.1621976  25.1225967
   7.6099992   0.9001335  24.5239639   7.4325933  -0.5997857  24.6227303
  59.2061615  52.3634224   1.5634009  59.1102829  53.2980232   1.7465935
  58.4089851  51.9673500   1.9153477  85.5473022  35.4564857  27.5359726
  84.9605560  34.9830170  26.9462414  85.0484772  36.2294350  27.8004627
  30.0344276  19.5339489  70.7414627  29.5737514  19.3339882  69.9265900
  30.9551239  19.5959587  70.4870911  72.2144318  16.9024887   5.0380154
  72.9393768  16.5143375   4.5480900  71.4743423  16.3180504   4.8738923
  29.1951351   0.2787254  51.1326103  29.7151012  -0.5212536  51.2094307
  29.8429070   0.9777911  51.0435524  85.6973114  49.5767250  88.5201569
  85.6758957  48.7964325  89.0741653  84.8874664  49.5318756  88.0118637
  36.0108681  56.5643120  73.3658142  36.6578598  57.2165565  73.6345367
  35.1733322  57.0256920  73.4093018  64.5678940  35.7099037  63.8379860
  64.4988098  36.6467934  64.0215530  64.0357437  35.2931595  64.5157547
  27.5275097  41.7179260   8.4984293  26.7053165  42.0544319   8.1420622
  27.6459923  40.8709106   8.0685940  37.2864342  58.0511398  46.3347397
  37.4376335  57.3610268  46.9805870  37.4021797  57.6174889  45.4892921
  12.1527205  15.2488813  86.0898209  12.6186914  16.0791531  85.9910812
  12.4291983  14.9192772  86.9449005  48.1907654  46.6272125   9.7338963
  48.7389793  47.3880005   9.9259729  47.7568665  46.8466873   8.9094000
  83.9899826  35.2937431  20.4839382  83.7350464  34.5048676  20.0054913
  84.7326508  35.0183945  21.0213890  17.7752934  28.2526188   5.8405924
  18.2063694  29.0024643   6.2506347  18.4940491  27.6792679   5.5743389
  73.7301331  14.4136877  42.2718620  74.5840378  13.9824419  42.3050575
  73.7361603  14.8934965  41.4436226  16.6313858  31.0297184   1.5061810
  16.3848209  31.4151897   0.6654375  15.8086281  30.9667702   1.9912980
  55.9034424  66.6097870  62.9101067  55.2752380  66.3099976  62.2530594
  55.3621902  66.8968353  63.6455498  54.3421211   5.0510354  18.4842777
  53.8251534   4.2639232  18.6558342  53.7834320   5.5864477  17.9208679
  45.8053703  25.1950588  61.2457695  46.7525177  25.1016846  61.1436806
  45.6231270  24.8473034  62.1187477  65.9352188  62.0922546  68.3746796
  66.2726212  61.7429695  69.1995392  66.0927963  61.3956947  67.7373352
  14.0062132  23.7723045  81.1613541  14.5025911  23.5355453  80.3779068
  14.6735249  23.9284611  81.8295898  74.6182632  57.6340141   5.4793997
  73.8064804  58.1402016   5.4475427  75.0936813  57.9907532   6.2296953
  75.1052551  70.6761322   9.3389444  74.9185028  71.2188339  10.1049948
  74.5464783  71.0346909   8.6494274  16.3587723   6.7361073   6.1743112
  15.9443521   6.1008277   5.5904374  15.7706547   6.7881904   6.9277282
  55.9815025  52.9435043  63.7330284  56.0500908  53.7059326  63.1583710
  56.1556625  52.1960220  63.1610413  40.4874268  49.0490227   5.9631109
  41.1514587  49.7305298   5.8589883  40.7743759  48.5498581   6.7277870
  69.3733215  25.2212029  38.1173210  70.0340118  24.5953102  38.4139328
  69.6754303  25.4961643  37.2516670  64.8720627  58.4523773  15.9861498
  64.9567642  59.2476349  15.4601984  64.9698410  58.7515373  16.8901291
  69.5351257  69.0014877  82.8165359  70.4126511  69.3789368  82.7555466
  69.0245743  69.6577072  83.2908173  25.8179646  59.1583099  25.2211723
  25.1527500  59.7021904  25.6429749  25.4178009  58.8884010  24.3945847
  81.4665222  60.5355453  84.3152008  80.7185745  60.8675766  84.8117523
  81.7464600  59.7566338  84.7959900  32.3482780  33.6823425  42.1359367
  32.6638451  33.3988914  42.9940186  32.1762009  32.8680840  41.6630707
  61.9236145  42.7448044  64.3107986  61.7262344  42.3904572  65.1778107
  62.0325737  43.6847382  64.4553223  50.0930214  69.0725708  38.6416512
  50.1535873  68.7592697  37.7392082  49.9659271  68.2795868  39.1624718
  82.1482010  13.3457289   1.6578914  82.4644165  13.6719389   0.8153812
  82.6606522  13.8259487   2.3082838  71.8714676  47.8017426  42.1962814
  71.2858810  47.7415619  41.4415016  71.5970154  48.5989914  42.6493912
  75.0880737  65.0303955   9.0079174  74.6629410  65.8703613   8.8348608
  74.9502563  64.5229187   8.2081003  20.8271656  16.4359913   1.8647596
  21.5159874  16.9465218   1.4391836  20.9358883  16.6182880   2.7981291
  83.7564545  10.2224989  18.8881168  83.2301712  10.0248566  18.1133957
  83.7090530  11.1747208  18.9733200  34.3028030  34.6113586  78.9143448
  34.9547768  34.0711746  78.4678421  34.0997162  34.1284637  79.7154694
  78.6792603   5.5894170  46.6772575  77.8960342   6.1341705  46.5995674
  78.6596909   5.0297217  45.9009895  41.3037949  53.3772926  36.7797966
  41.5569839  52.5313225  37.1492043  41.0618858  53.9074783  37.5391502
  35.5188179  67.0566254  62.4725342  36.4248047  66.8097763  62.2868271
  35.0359116  66.2304993  62.4492836  35.9113426  54.2445107  31.1093388
  35.2046051  53.6276321  31.2996483  35.6203041  55.0694618  31.4979000
  67.8183441  23.2701111  22.8872948  68.6710129  23.6492748  23.1004009
  67.8123550  23.2160511  21.9316406  46.2129745  19.0906620  13.7601910
  47.1305199  19.3624916  13.7813902  46.2304802  18.2189865  13.3650885
  24.3370152  35.2101173  19.8221703  25.2610855  35.4249573  19.9493332
  24.2738781  34.2817345  20.0465565   6.6025085  14.5819626  56.8497429
   6.3257551  14.4182701  57.7513199   5.9448395  14.1394138  56.3132210
   9.6553965  44.4581299  32.1548309   9.3496132  45.2586937  32.5812416
   9.1229849  43.7626953  32.5410194  66.6982727  15.4205475  27.9263821
  66.4777603  16.1993942  28.4372673  66.7171021  15.7263613  27.0195446
  44.3631401  55.6254501  60.2434959  43.5946274  55.2052498  59.8574295
  44.2225761  56.5611382  60.0987282   1.8310953  63.9669304  71.6641083
   2.3133810  64.5858459  71.1158600   1.2972103  63.4661636  71.0473175
   8.8323040  69.6288223  60.1582870   9.4366674  68.9078827  59.9815903
   8.0060768  69.3511505  59.7627144   5.9517956  26.4189472  61.9584351
   6.4899278  26.5890541  62.7315521   5.0507226  26.4846458  62.2746353
  28.7673073  30.4541435   9.8162737  28.8252563  29.5014038   9.8881016
  29.2561035  30.6645222   9.0206270  80.6783218  13.6743355  10.6834946
  80.7292862  13.0861425  11.4369287  80.8086090  14.5479307  11.0523939
  81.2988281  27.7185516  44.5026970  81.4655075  28.3629684  45.1905746
  80.8508453  28.2120361  43.8156586  73.3864517  58.9609146  75.2761536
  72.8197708  59.7011948  75.4931335  73.0447006  58.2361412  75.7997437
  24.3682861  45.8514862  22.7641010  25.0405865  45.5771179  23.3877697
  24.5570660  46.7753258  22.5994263   6.0816646  56.2502670  33.2538948
   5.7754536  56.2307129  32.3472061   7.0201859  56.4257660  33.1860008
  49.0151062  62.7873993  47.1303711  49.1796227  62.8531761  46.1897125
  48.1589699  62.3641777  47.1947632  69.8300400  24.7845154  33.0244102
  69.6956177  23.9204674  33.4137497  68.9560013  25.0623150  32.7503204
  83.4511795  63.6903343  83.6537170  82.8976440  63.2150650  83.0340805
  83.0183258  63.5741310  84.4995117  59.3631554  51.9714050  77.8022308
  58.7931366  51.3590088  77.3371658  60.1128120  52.0907936  77.2191391
  71.2163544  15.9459763  33.8313370  70.9003754  16.5477486  33.1573486
  70.8336792  16.2750092  34.6446800  41.0513573  28.6527386  71.4166412
  41.0981941  28.1300373  72.2171555  41.9556313  28.6963310  71.1058044
  39.0287743  36.6931763  60.6173439  39.4886551  36.3175812  59.8665619
  38.1225548  36.4032974  60.5126343  35.4111595  36.6596069  73.5567474
  35.8972778  37.4093513  73.2135239  35.5892372  35.9538078  72.9351578
   7.8558502  59.4159584   3.0693691   7.3391900  59.7824478   2.3517487
   8.6206312  59.9883232   3.1305354  86.0316772  44.2744141  50.8129272
  86.8057556  44.0290833  50.3061256  85.3014069  44.1616936  50.2044601
   9.4552374  41.0938148  38.6485252   9.0873985  40.4620590  39.2664337
   9.7867699  40.5585213  37.9275665  54.5251198  49.9561539  82.0426865
  55.2326164  50.5452538  82.3046799  54.8941460  49.4437065  81.3233490
  19.2564754  14.0941629   1.5532286  18.5581417  14.3516369   2.1551175
  19.8101463  14.8717356   1.4820870  56.0372658  33.8994446  60.7478867
  56.2422829  34.8261528  60.8720093  56.5808144  33.6310196  60.0071220
  58.0614014  27.3808556  37.0753555  57.3168144  27.7116699  37.5777397
  57.7494164  27.3594971  36.1706810  31.8185272  50.1572571  52.0069122
  32.5033913  50.2878761  51.3510704  31.7510281  51.0009193  52.4540215
  40.8467865  29.6668854   2.5970607  40.6863976  30.5260067   2.2066534
  40.2879295  29.6487427   3.3739643  12.3200760   6.2307949  72.7424774
  11.7639542   5.4728198  72.5623779  12.7080269   6.4499130  71.8952942
   8.4639339  24.8771133  70.1013565   9.3280249  25.1726360  70.3881454
   7.8518739  25.3221645  70.6874847  65.6690826  10.3385935  19.8548260
  65.5982971   9.6920309  20.5570908  65.8698730  11.1594648  20.3043652
   1.0021858  49.1691933   8.7401886   1.3533289  49.6232605   7.9741902
   0.9214954  48.2569504   8.4617386  72.1828842  37.0615578  57.2954559
  72.9979630  37.5519791  57.4020653  72.2851410  36.3000412  57.8663025
  26.2068672  24.7407169  12.3060646  26.4850559  24.5910778  11.4024887
  26.6411991  24.0508671  12.8077555   5.6795340  61.6076546  24.9979286
   6.0208511  61.0381012  25.6873798   6.4515595  62.0578766  24.6551361
  26.5376129  65.3780136   7.3858337  26.7850513  66.0448990   6.7453070
  25.7100182  65.0262604   7.0578265  23.6637745  36.7590904  72.5798416
  23.4133091  35.9245224  72.1836166  23.2019291  36.7744179  73.4181137
   0.9264427  71.7071838  43.7715378   1.6301761  71.3614883  44.3206215
   1.0958382  71.3383102  42.9046631  31.1273212  54.6386604   7.1728287
  30.5851307  54.4594345   6.4046235  31.9764538  54.2500458   6.9626245
  69.3572235  18.7856121  42.8112526  68.8829956  18.0932808  43.2717056
  68.7644577  19.0565434  42.1102180  82.2510147  37.8987732  45.5462074
  83.1269455  37.5128937  45.5378265  81.8048935  37.4964066  44.8010178
  13.8740005  62.3991432  17.9564209  14.6574965  62.9403839  18.0534859
  14.0082531  61.9287758  17.1336422  22.5666447  70.3778381  38.8152580
  21.6856651  70.5622864  38.4895477  22.6246700  70.8642120  39.6376343
   2.9062252  61.0877533  33.9516258   3.0629160  61.0311203  34.8942146
   2.6545265  61.9995575  33.8050232  54.3178787  40.8039474  68.4437637
  54.7087746  40.4041977  67.6668243  54.8133240  40.4379425  69.1764374
  50.5734940  13.6157274  60.7599335  50.9789238  14.4697876  60.9097404
  50.0597954  13.7313566  59.9605751  17.1647396  41.3915253  71.9558029
  17.6071701  40.6292953  71.5823135  17.7774830  42.1143227  71.8203735
  54.4464111   1.7580528   6.8533573  55.2578278   1.3431584   7.1460962
  53.7837486   1.4513201   7.4722476   6.5877790  59.9609985  27.0399933
   6.7700253  60.0017357  27.9787998   5.7647457  59.4764061  26.9765873
  28.7633305  60.4807014  56.1389275  29.0658550  59.6338310  55.8110275
  28.7280502  60.3708954  57.0891533  32.3771210  36.6910515   1.4299788
  31.6754761  37.3234596   1.5848603  31.9302273  35.9161377   1.0893506
  20.0869160  45.1768036  10.5051632  19.5962181  45.0023499   9.7020359
  19.6392937  45.9241791  10.9017687  60.3714371   0.9202247  79.6821823
  59.8485680   1.5302043  79.1618347  60.7618141   1.4632120  80.3670197
   2.8255038  48.4535255  34.4252510   1.8875109  48.5480804  34.2595406
   2.9620614  47.5088158  34.4967117  50.9547997  70.7973557  13.3852367
  51.5199547  71.5108871  13.0890913  51.4466362  70.3800201  14.0924606
  73.7782440  50.5189781  40.3913040  73.8855972  50.5021515  41.3423195
  74.5703659  50.9485245  40.0684204  78.3219223  26.9755440  50.0129509
  78.8499985  27.1823158  49.2418404  77.4530487  26.7792206  49.6625900
  58.9501495  17.8408737  65.5888367  59.1280212  17.2192230  66.2946320
  59.6935501  17.7462635  64.9933243  45.9138794  32.8947601  67.3518372
  45.6703415  33.7804031  67.0824814  45.7579536  32.8802147  68.2961426
  81.5206375  61.5576401   2.2869985  81.3723145  60.7833290   1.7441601
  81.7024994  61.2074928   3.1590967  86.4358673  15.1379366  24.5799541
  87.0970917  14.8753033  23.9396152  85.6195908  15.1718235  24.0811825
  48.0121231  68.1410065   2.6692750  48.6543770  68.6478348   3.1661429
  48.2056656  68.3412170   1.7534746  11.6553326  59.7501221  15.0417318
  11.9530735  58.8574905  15.2172184  12.3602114  60.3070450  15.3722076
  53.7215118  54.6635323  43.4458504  54.0017929  55.0544662  42.6182976
  53.8446045  55.3582268  44.0927467  73.6728210  70.4672699  75.9350815
  73.2913666  70.3734741  76.8079681  73.2770767  71.2655487  75.5852661
  74.2795792  56.0257797  77.3559799  73.3454590  56.2275543  77.3017960
  74.3213882  55.2223969  77.8746872   5.3690133  44.0372391  72.6826477
   5.0612416  44.7192497  72.0856781   5.7764683  43.3855553  72.1121063
  69.6888428  22.0888901  39.9167137  69.1217117  21.3979435  40.2590446
  69.1607208  22.8848152  39.9785538   4.9048166  50.3993568  54.7379837
   4.1426768  49.9679909  54.3515930   4.6885839  50.4808273  55.6668739
  68.9641190  56.9026680  40.9426727  68.1642914  56.6838493  41.4208221
  68.6557159  57.3194275  40.1380386  47.3515091  62.4452171  56.8998146
  46.8627853  62.6976013  56.1164322  46.7127075  62.5047684  57.6101799
  61.7953453  65.9502029  75.1059189  61.6911621  66.8767471  75.3224869
  61.6307030  65.9043884  74.1641006  17.1880436  49.5337563  62.9224472
  17.8026772  48.8367462  63.1518555  17.2259560  50.1396790  63.6624832
  33.8015556  49.7118187  65.1937790  32.8533134  49.6438522  65.0822220
  33.9160271  50.3820190  65.8675385  39.0391884  62.5565376  28.3581295
  39.0234222  61.8490295  27.7136040  38.2644653  62.4047432  28.8994179
  44.3671532   0.7325253  41.4299469  45.1791191   0.9409053  41.8920326
  44.5886726  -0.0226709  40.8851166  82.6634216  31.3388176  73.8722076
  83.2835922  31.8763752  74.3648071  82.8090515  30.4492455  74.1942062
  81.3657150  29.1532784  62.8005180  80.9898071  29.8173122  63.3784256
  81.1620636  28.3211403  63.2274895  60.6598244  42.7261467   9.4317188
  61.3014565  43.2409973   8.9423618  60.1306648  43.3776741   9.8918657
  26.7793236  55.8437920  31.5814362  25.9575996  56.1376305  31.1881676
  27.1523857  55.2432213  30.9361668  58.8751869  23.1237450  72.9399109
  59.3984299  23.4864407  73.6546860  58.2511139  23.8167820  72.7243423
  58.8577385  54.0154305  22.1603985  58.2972565  54.7901001  22.1159115
  59.3930283  54.0612793  21.3681889  43.1790237  23.7144642  86.5018387
  42.8047676  24.2128639  85.7753601  43.4629250  22.8905315  86.1058960
  40.5280380  42.2587280  19.3657551  39.9286156  42.7525139  19.9253063
  39.9885330  41.9764557  18.6271839  59.6409531  36.3998184  73.4502029
  59.7946091  37.2909317  73.1362915  59.4171181  36.5068054  74.3746948
  11.1496401   7.1662450   1.2160206  10.2068081   7.2509742   1.0741718
  11.3998747   6.3945150   0.7080370  72.7436829  67.9740829  60.7542610
  72.8852615  68.9170303  60.6702995  72.5427170  67.6819611  59.8651581
  76.5698776   7.5955620  42.2382622  76.1421967   8.1856632  42.8588257
  76.0809479   6.7758989  42.3112869   8.3825998  37.5830803  26.4944611
   7.6250286  37.3455124  25.9597855   8.6569595  38.4353142  26.1558456
  40.1987457   0.5131785  84.3412781  40.0891685  -0.3588891  84.7203827
  40.2429047   1.0990350  85.0969620  75.9484558   8.8674030   0.3709494
  76.6119690   9.0305862   1.0412874  76.4496613   8.6324177  -0.4099540
  23.4697094  30.4874687  88.0367279  22.6981888  31.0402012  88.1611176
  23.5871506  30.0471878  88.8785095   2.2626541  33.6023750  59.1811256
   1.4037873  33.1807327  59.2093658   2.0885541  34.4775391  58.8347015
  34.6398239  33.3806496  10.8282642  34.6637993  33.4953384  11.7782660
  35.0986443  34.1464462  10.4829063   2.1680646  18.4611149   7.4132862
   2.3765531  18.4246674   6.4797788   2.8237627  19.0528793   7.7822146
  72.1364288  28.3324585  38.1780663  72.5244827  27.9121227  37.4106331
  72.4257584  29.2432938  38.1242294  20.8555222  59.1282921  53.3956299
  20.5112457  58.2462692  53.2551308  21.7969627  59.0019302  53.5137596
  56.9522362  63.3754158  45.1396790  56.0626564  63.0536041  45.2856903
  56.9661980  64.2376862  45.5550346  33.7429504  13.0382404  65.0457382
  33.8262634  12.8573914  64.1094742  32.9212151  12.6175594  65.2987442
  62.0939941  50.8592758  14.2526865  61.4278984  50.1754036  14.3224392
  62.3254929  50.8743134  13.3240242  82.1200790  56.0401611  52.6297951
  82.1397247  56.8020020  53.2089653  82.8568344  56.1735954  52.0334511
   6.1592398  70.4723740  16.8648472   6.3843288  69.9225159  17.6153316
   6.1537352  69.8708420  16.1202927   2.7416353  36.8404198  40.4389000
   2.8403342  37.3644829  41.2337875   2.0763319  37.3021965  39.9286423
   1.4299514  49.6611290  87.8832245   1.5591559  50.3254890  87.2063446
   0.5003574  49.4398613  87.8273087  13.7856255  47.0275612  17.9468365
  13.0014105  46.5021935  17.7879963  13.9375696  46.9523125  18.8888988
  64.5853729  37.6548271  86.2507553  64.4865036  38.5951691  86.3997955
  63.7960701  37.4041023  85.7707901  67.0286255   4.0301199  53.5466194
  66.6692047   3.9383914  54.4290237  67.4376755   4.8955102  53.5433769
  67.7184372  22.0645428  36.6996880  67.2001801  22.2598133  35.9189758
  67.2223816  22.4536228  37.4199524  39.4113503  62.0698395  80.2222214
  38.7141533  62.4626656  79.6970215  39.6087036  62.7277679  80.8888626
  65.3727875  19.0602703  14.6741428  65.6252518  18.1543026  14.8522310
  64.5159760  18.9917603  14.2529449  62.7865334   7.8050566   7.7449226
  62.2449150   7.1083035   8.1156178  63.2688370   8.1571827   8.4930010
  60.8187561  45.0073586  46.5099106  61.6206055  44.5589447  46.2412148
  60.1322441  44.6136665  45.9714508  50.2801437  18.2299881  21.1059933
  49.6286240  17.7212734  21.5886555  50.0898476  19.1401081  21.3333759
  22.2566051   0.8298435  19.7228165  23.0570374   0.3064854  19.7632694
  21.7907181   0.6178868  20.5316772  76.9323959  22.7061234  56.7669601
  77.2480545  23.6060333  56.6847763  76.5458374  22.6668472  57.6417503
  11.9288778  16.8541832  16.2784786  11.1490002  16.8955536  16.8319321
  11.6179056  17.1012859  15.4075775  28.1367054  36.9703331  68.4003448
  28.1566525  36.0153313  68.3386307  27.3302765  37.1626320  68.8788071
   7.6482310  29.2103291  12.5940590   7.2874207  29.8765068  13.1790848
   7.4479160  28.3793602  13.0248699  71.1832886  33.3337097  44.2621193
  71.5391083  34.0432510  43.7271652  70.2504120  33.3172340  44.0483475
  54.1846313  10.9638691  37.8791809  53.5619202  11.2591543  38.5434647
  54.6010361  10.1939850  38.2666321  42.0054893  34.0779533  12.1904497
  41.3418312  34.7470169  12.0227013  42.7684784  34.3665619  11.6896715
  74.0158691  54.8819656  38.4309196  74.3871460  54.3103180  37.7589035
  74.2593689  55.7655869  38.1549492  13.4374180   1.6650374  85.8696289
  13.4155855   2.2794859  86.6032562  14.1723785   1.9599771  85.3319702
  68.9222031   2.2112761  20.5907459  68.9973602   1.2840320  20.3653526
  68.1186676   2.2677033  21.1078377  74.3848877   7.9311566  70.9015732
  74.3574982   8.6791782  70.3049622  73.6759720   7.3611245  70.6036987
  49.7983093  58.5955162  31.8715706  49.0906677  59.0329857  32.3449554
  50.5012550  58.5114098  32.5157928  52.7852097  13.1332350  57.6877937
  53.2063637  13.7004414  58.3336563  53.5029449  12.6224203  57.3134117
  77.6020737  17.0947418  30.9235287  76.9430618  16.4145203  31.0622177
  77.9896774  17.2324886  31.7878323  27.0175438  21.1318893   9.7564926
  26.9510651  20.4420490  10.4167452  26.3799019  21.7901402  10.0328074
   0.3003447  28.5625172  81.3049774   0.7040395  27.7333088  81.5612488
  -0.6403024  28.4077454  81.3913498  48.4159737  42.9065704   6.0715957
  48.3841476  42.6313477   5.1553688  47.8443413  42.2886620   6.5272870
   1.2083908  10.7488146  12.8090382   0.8877773   9.8524237  12.9086485
   1.1058327  11.1377764  13.6776133  43.9979401   3.9374056  68.5278168
  43.7158165   3.3355973  67.8390045  44.8734627   4.2156367  68.2589645
  49.6821518  34.2841034  33.8901558  49.8665199  34.3936958  32.9572945
  49.4521294  33.3594856  33.9818344  64.7937851  58.9153099  42.8013802
  64.1825333  59.4244919  43.3336754  64.7398224  59.3101006  41.9310608
  61.9130402  62.7750893  20.8182850  62.5983353  63.2792587  21.2569332
  62.3885460  62.1551666  20.2652721  26.3035221  65.0097733  83.0349731
  25.3944855  64.7571945  83.1964874  26.8062630  64.5281525  83.6918716
  48.9675980  32.7376823  65.5087280  48.8554420  31.8381596  65.8161621
  49.3250961  32.6461220  64.6255264  78.7684708  57.3301735  15.7834549
  79.1410217  57.2494011  14.9054375  78.4586639  58.2346573  15.8299065
  81.0629959  19.5376511  30.4785347  81.6726990  18.9360046  30.9057579
  81.5158310  20.3809471  30.4832420  76.9700165  24.4448814  14.0256205
  77.8649292  24.2362652  13.7576046  76.7445450  23.7632732  14.6587124
  79.4332275  35.9855194  77.0053558  80.1913605  35.6502838  76.5267258
  78.8849564  35.2153702  77.1553345   4.2707682  40.0825768  28.9817982
   5.2175889  39.9709511  28.8963490   3.9083121  39.6566925  28.2049580
  76.6394272  60.3086357  37.9541206  75.9757690  60.4830170  37.2867508
  76.5846786  59.3650742  38.1055450  61.8769684  30.3327923  23.5479336
  62.7505455  30.5860882  23.2497120  61.5390549  29.7714863  22.8500938
  73.3544006  63.5727806  32.6211243  73.9064941  63.9668274  31.9457397
  72.4628830  63.8211823  32.3767319  76.0141220  54.1759300  75.6442108
  75.9386139  55.1245308  75.7475891  76.6189041  54.0622902  74.9110260
  35.0552902  58.6791458  62.0453339  35.9605789  58.5343971  62.3205261
  34.6460457  57.8158607  62.1044388  85.9255829   2.6183603  88.5561447
  85.3279724   3.3618407  88.4766235  85.3930283   1.9232804  88.9427719
  32.2966805  15.5695972  10.8093147  32.5183525  15.8604250  11.6939125
  31.8121643  16.3030281  10.4304314  76.1036682  39.1362000  77.0115891
  75.3198242  38.7198715  76.6531296  75.9280701  40.0747986  76.9450150
  70.4698029  19.0947742  56.8998871  69.8795929  18.6400986  57.5008469
  70.1352692  18.8817902  56.0287094  27.4064388  46.2547760  45.0513458
  27.0795193  46.5791664  44.2122192  26.9500141  46.7827148  45.7064705
  81.8431625  42.6640091  77.2106476  82.0095062  42.3793221  76.3120346
  82.3738937  42.0776024  77.7498016  23.5761337  39.8162842   5.6464572
  23.7855377  40.6921616   5.3220811  23.7395039  39.8643150   6.5883889
  52.3226051  50.4146729  27.5585136  51.5138931  50.8616219  27.8084240
  52.0314636  49.5792351  27.1931248  25.5763664  30.8483562   6.2191453
  25.0727825  30.7276821   7.0241761  25.5339298  29.9986668   5.7804456
  47.7845726  58.2683868  67.2045364  47.7660599  57.3270493  67.0319977
  48.4430771  58.6098633  66.5995560  19.9169197  42.6831665  14.7831430
  20.1462955  43.6103706  14.8456774  19.3139343  42.6351089  14.0412998
  63.5244865  26.2811050   5.4237895  63.8419724  26.8526306   4.7246513
  63.1383934  26.8782654   6.0645428  38.7156563  39.5968056  84.5157776
  39.5655136  39.9124603  84.8229141  38.6465874  39.9277878  83.6202850
  69.6164169  64.7714462  76.3768997  68.8934631  64.8295212  75.7522430
  70.3495255  65.2001266  75.9352875  41.7599220   3.7255504  58.8449974
  41.4461060   3.6850145  59.7483826  41.6785202   2.8279393  58.5226631
  43.6100655  32.1216393  69.8091431  43.5048180  31.2191105  69.5081482
  44.1547737  32.0507050  70.5930405  74.7993698  36.0942001  73.1191635
  74.1272964  36.3935966  73.7314682  75.1594391  36.8989754  72.7464447
  86.0999451   2.4622331  37.3187523  86.7261581   3.1728570  37.4569473
  86.4005737   1.7620364  37.8980446   7.6991878  63.4454079  47.7255440
   8.5845270  63.8086815  47.7046432   7.6970429  62.8632660  48.4853745
  56.5628090   6.7554865  67.9856186  56.7643166   6.5945382  67.0638123
  56.2169609   5.9217787  68.3042908   7.9191523  29.1943512  85.3483810
   8.8580856  29.2975216  85.1934814   7.5088844  29.8368568  84.7695007
  35.8249969  35.2481651  66.7898636  35.8427963  35.0316162  65.8576431
  36.3231888  34.5461121  67.2083817  63.1282501  38.6906052  14.2055683
  63.8605347  39.2917099  14.0689497  62.5736160  38.8096466  13.4345684
  23.0468693   7.3953013  79.6468277  23.1211796   8.3370018  79.8014526
  22.7018757   7.0442696  80.4677963  50.9490128  19.4108067  37.2060471
  50.6475182  19.8709431  36.4227180  51.7989120  19.0470295  36.9579163
   3.5901847  51.8885460  59.5167465   2.8357019  51.3658447  59.2451401
   4.0939093  51.3051453  60.0843163  51.4750366  14.6933680  71.7326660
  51.3557739  13.7855244  72.0116425  51.9780998  15.0971346  72.4398651
  41.3957825  25.7515240  69.0393677  42.0600433  26.1736183  69.5841827
  40.7296257  26.4262276  68.9080429  68.1072693   9.3446550  38.2249413
  68.6725845   9.3049669  37.4535294  68.4848709  10.0404129  38.7630577
   1.2439110  71.2620850  49.7525787   1.8414466  71.6618042  49.1205864
   0.7624664  70.6077728  49.2463036  57.8619652  40.5600891  14.1301260
  58.6628761  41.0497971  13.9431496  57.5121994  40.9666824  14.9229555
  20.3330803  42.6575394  11.5849304  20.4712219  42.0542641  10.8547182
  20.2196064  43.5129738  11.1707001  20.1174850  47.2465820  52.2892265
  20.5828533  47.3522415  51.4594688  20.1979027  48.0980606  52.7190514
  37.7847328  18.1064911   5.4443417  37.2597961  18.6606026   6.0219526
  37.1440086  17.6749344   4.8791337  57.5549927  31.1300297  53.0868874
  58.1357460  30.4027901  52.8631096  57.5802689  31.7015972  52.3194885
  59.1121292  43.0982475  22.6582451  58.4543800  42.5638123  22.2133007
  59.9460411  42.8096542  22.2873821   5.8142757  24.6395130  70.9821701
   5.6295485  24.5095882  70.0519943   5.2797470  23.9815578  71.4266968
   6.3716516  65.8252945  12.7697010   6.1452446  66.4844589  12.1135950
   7.2050209  66.1251297  13.1327810  17.0669403  57.6648064  18.9313202
  16.9445381  57.5371017  17.9906063  16.1798000  57.7628937  19.2771454
  76.9752274  42.2626877  28.8484554  76.8025360  41.9604073  29.7401028
  77.9143829  42.4472008  28.8357811  45.0661621  70.1244278  56.0803146
  45.1180687  70.4685287  56.9720154  44.3145027  70.5735703  55.6936455
  68.6410065  32.4416733  65.8438034  69.5407639  32.2733574  66.1236954
  68.3188248  31.5901375  65.5483017  78.9791718  15.6010218  83.6964493
  79.7424240  15.3278904  84.2054443  79.1708145  16.5040016  83.4431992
  15.9598875  63.3185692  71.5077362  15.2321815  63.9127045  71.3242340
  16.3497581  63.1455498  70.6508255  16.7385273  59.5462646  46.3538361
  17.0564842  58.8360634  45.7963905  17.1829662  60.3271332  46.0237617
   8.9941063   5.4275203  58.2552147   9.1829128   4.5748839  58.6471252
   8.3310347   5.8128552  58.8279991  69.6198578  44.7231674  77.9249344
  69.3745041  44.3438759  78.7688370  70.0439529  45.5515518  78.1488876
  44.8874893  63.3845329  12.6213408  44.4209137  63.6843338  13.4015055
  44.5997772  63.9777870  11.9274368  30.3748398  31.7290440  76.3810196
  29.7604752  31.8720360  75.6610641  31.1134701  31.2723255  75.9784470
  16.0298309  64.2986832  17.8424797  16.8907070  64.4605789  18.2283707
  16.1098709  64.6078186  16.9401169  65.4577255  54.0527344  70.0574875
  65.0977097  53.4005280  69.4564438  65.1512299  54.8913536  69.7125015
  45.4937935  38.2968140  47.6270752  45.6853294  37.3673439  47.7521133
  44.5513344  38.3695335  47.7777939  85.0154648  37.8702888  33.5099030
  84.6610489  37.9977188  32.6299095  84.9222412  36.9315376  33.6720352
  53.2872276  69.0098419  56.0096855  52.6502304  69.0183182  56.7241020
  52.8300095  68.5811844  55.2861977  75.9278259  44.8910828  69.2060013
  76.1091690  44.4915085  70.0567017  76.7918015  45.0348930  68.8198776
  17.7382107  56.1764717  79.2229691  18.1462021  56.2841492  80.0821381
  17.3109627  55.3210068  79.2662277  16.7015572  28.6497478  69.7854767
  17.4584274  28.9852448  69.3050308  16.2697563  28.0580902  69.1692581
  72.3137131  60.4057312  31.2726936  72.1889420  59.7356110  31.9447079
  73.2238922  60.3005714  30.9956722  61.7179184  61.6698227  47.5504913
  60.9229851  61.4438515  48.0334511  61.4047394  61.9435883  46.6884003
  39.2299881  29.5332527   5.1228695  39.1174622  29.2592735   6.0330915
  38.8787079  30.4232426   5.0954585  46.0949936   2.2804301  79.9986267
  45.2203636   2.6500907  80.1194916  46.0787354   1.9103681  79.1160049
  23.5543938  40.8350410  75.2378311  24.0737324  40.0932770  74.9275055
  23.2711391  40.5786285  76.1154709   4.9905505   1.5901316  41.7147217
   4.9690785   2.2262182  40.9997635   5.9155784   1.5287971  41.9530334
  72.5916367  55.4521141  35.2325974  72.8674622  55.5845261  34.3256149
  73.0403442  56.1412697  35.7224426  82.1088867  47.1403542   4.9332457
  81.9202042  46.3780403   5.4805179  81.2932205  47.6412697   4.9308605
  14.5017338  65.6467209  51.1962662  14.4076691  65.4625549  52.1308632
  13.6605606  65.3931274  50.8163300  15.6894922   3.9191313   1.1248555
  16.3229694   4.6254883   0.9983742  15.6840563   3.7687042   2.0701458
  67.9054642  21.7251167  86.9781265  67.3756104  21.0956478  86.4889908
  68.0179520  22.4616222  86.3771744  75.4162903  63.2342148   1.4639828
  75.9745636  63.6012383   0.7785197  75.6292496  62.3010406   1.4722245
   4.7070093  36.2146530  22.4810944   4.6579375  36.2203331  21.5251694
   3.8409836  35.9207115  22.7636356  81.9001694   6.7830362  49.1908989
  81.8670502   6.7719536  50.1474609  82.6523514   6.2334404  48.9709053
  67.7711945  65.7318192  27.8411274  68.3840790  65.6531601  27.1100845
  66.9199600  65.5074997  27.4652252  67.6879120   7.3708310  44.0850868
  68.3751984   6.7220125  44.2364426  68.1095963   8.2119226  44.2611046
  46.2571487  18.7982998  66.9510880  46.5057373  19.0934486  67.8270569
  47.0703316  18.4666157  66.5703506  48.5208473  63.7233696   3.0663009
  48.4602051  64.2074738   2.2427745  48.0641937  62.8999023   2.8942478
  -0.1374352  34.0841408  42.2943878   0.7221175  33.7873688  41.9955101
  -0.1727614  33.8265839  43.2156067   2.3392124   6.0360126  23.6899433
   1.4442996   5.7803707  23.4663124   2.4831293   5.6668015  24.5612659
  32.1123428  68.5820084  65.6552811  32.2686462  68.7628098  66.5821686
  32.9239883  68.8430176  65.2201538  41.0989990  62.8916626  61.7407074
  40.5684204  63.1611061  60.9909592  40.9554672  61.9477425  61.8088417
  67.3402786   1.9167237  35.6680870  66.9523697   1.0993680  35.9806366
  66.8014450   2.6032679  36.0612183  10.8676701  49.8114777  16.0979748
  11.5331697  49.3953285  16.6458473  10.1357527  49.9749908  16.6927795
  77.3293457   1.4789625  74.6126556  77.3316193   2.2473116  75.1835022
  77.0502396   0.7601006  75.1797256  40.7867661  69.3926773   8.0701180
  40.9743805  70.3251877   8.1771498  40.2311783  69.3479233   7.2919445
  45.2025681  60.2981720  86.3785248  45.7894249  59.6711731  85.9557953
  44.4374657  59.7797318  86.6276627  79.6343613  37.0427780  44.7397652
  79.3271561  36.1362534  44.7480316  79.9424133  37.1831207  43.8444214
  61.5653648  10.3387766  14.8575449  61.4661407   9.4372816  14.5514517
  62.5085869  10.4991398  14.8284845  67.3166199  55.3750153  65.1487122
  68.0237656  55.3725739  64.5036011  66.6160355  55.8786316  64.7342377
  67.2006989  33.5640335  51.8550301  66.4226074  33.8782883  51.3945427
  67.2443695  34.1014862  52.6458969  83.6061783  23.1072693  66.8463974
  83.2914886  23.3433895  65.9737854  83.4323273  22.1687050  66.9178543
   2.8684232  55.8078384  54.0849915   2.6000786  55.4378052  54.9260025
   2.3918102  56.6357384  54.0245819  27.4467659   6.2732172  71.1492233
  26.5925922   5.9479136  70.8649750  27.3300762   7.2204576  71.2223740
  84.5370560  69.7681732   7.9920511  83.8963089  70.1772842   8.5736971
  84.6095428  68.8684387   8.3105803  27.0856705  14.1944523  35.8137627
  27.2191601  13.3009024  35.4975624  26.3298683  14.1314640  36.3977394
  31.2136230   2.2213075  49.9393997  31.5894089   2.3890777  49.0751839
  31.5586567   2.9233856  50.4910049  37.0703049  26.3262882   5.7880988
  36.8832664  25.8038273   5.0081730  36.5159874  27.1011848   5.6958909
  56.8378830  55.6339378  75.0357132  57.1450577  55.9436798  75.8877335
  56.3168335  56.3590736  74.6908722  54.5754395  33.1442490  71.0297928
  54.6427879  32.3324471  70.5271225  55.0039444  33.8016243  70.4816437
  70.2491989   1.8084098  68.9755630  70.7603760   1.0343803  68.7393188
  69.3452759   1.5706511  68.7691116  74.2524643  64.2896271  26.9812431
  73.7603912  64.7509613  26.3020763  75.1703949  64.4547043  26.7658749
  10.3524551  50.4133911  76.8962173   9.4268932  50.2692757  76.6992493
  10.5791254  49.7127113  77.5076904  74.6527252  62.8509331  43.9100914
  74.8316193  62.5936775  43.0056343  74.2667236  62.0711288  44.3090210
  71.9125061  63.4918633  37.6595306  72.0868759  64.2694016  37.1291885
  72.7277451  62.9913635  37.6260605  60.7791328  61.9830551  66.1287003
  60.6695442  62.8606834  65.7626495  59.9792519  61.8319855  66.6322861
  33.4943848  45.5983047  54.5896873  33.2862473  46.4113464  54.1293869
  32.9626083  45.6304207  55.3849335  63.4739342  60.2972565  31.5652523
  63.7689514  60.8728485  32.2708664  63.4566460  60.8583069  30.7899075
  11.8498564  64.8978577  50.7444763  11.3160429  65.2733307  50.0442657
  11.2177649  64.4819870  51.3307686  46.2684250  18.6661892   7.7344685
  45.7048759  19.2393551   8.2542086  47.1461906  18.8076897   8.0890636
  64.1611938  29.8786755  86.9563675  64.5335464  30.7014332  86.6391068
  63.9046707  30.0644321  87.8596573  82.3338242  21.3886242  17.5040321
  83.0244522  21.4986553  16.8504620  81.5976181  21.8960133  17.1622829
   7.8114133   0.5311552  84.5106659   7.0892048   1.0154259  84.9108200
   8.5781116   1.0874634  84.6482391  37.6664391  39.3532867  52.4358940
  38.5473137  39.5692863  52.7419014  37.8071899  38.8777924  51.6171608
  13.0035028  60.7173233  87.4207535  12.4514494  60.9850960  86.6860657
  13.1596289  61.5251465  87.9099197   8.1753006  25.3446941  67.2477646
   7.6837440  26.1659470  67.2599869   8.3896446  25.1801662  68.1660385
  15.5377331  18.7113380  79.9654846  15.5679808  17.8503532  79.5483246
  14.6790495  18.7430954  80.3872528  75.9556351   6.6684251  61.9891281
  76.8506241   7.0075955  62.0029488  76.0591660   5.7176652  62.0287285
  33.5879669  16.5748119  87.9248352  33.6547203  17.0830421  88.7332153
  33.4387169  15.6761055  88.2185745   1.1085043  32.9731560  44.4673882
   2.0644150  33.0220909  44.4758530   0.9163516  32.0360222  44.5004654
  75.2229767  20.4943180  19.8935738  75.3502731  21.2139950  20.5117092
  74.7696381  20.8936481  19.1511097  85.7958450  63.6934319  57.6548996
  85.4951248  62.8112259  57.4369278  85.9303513  64.1169281  56.8070831
  27.7391987  70.9477539   9.0313969  27.6625576  70.0856094   8.6226740
  27.6323357  70.7793503   9.9675865  56.6328011  59.5548897  58.1318398
  55.9287186  59.4542236  58.7724380  56.6586380  60.4942970  57.9499664
  40.0910187  67.6834335  28.1363258  39.4342117  68.1830292  28.6213474
  40.0960808  66.8233566  28.5564117  50.4833870  66.4966965   1.6368785
  49.7705307  66.6873474   1.0271893  50.8517914  67.3540039   1.8502555
   4.1191754   8.5606251  20.0481186   3.2364113   8.8663855  20.2566109
   3.9865911   7.7020135  19.6463203  49.5788536  40.8226509   1.0916641
  49.9058456  40.1043930   0.5499870  50.2461090  40.9350281   1.7686965
  56.6487808  20.6885490  19.9701309  57.4613419  20.4632530  20.4231415
  56.6693573  21.6430893  19.9018631  81.3454208  31.6743832  13.0861330
  80.5380173  31.7825928  13.5887451  82.0437469  31.7416744  13.7373161
  65.7722015   2.8495092  28.1017761  65.9761734   2.9080510  27.1683960
  65.0485382   3.4632499  28.2277489   6.4445162  63.9450760  43.5418091
   7.2174735  63.3955765  43.6715050   6.5020294  64.2277756  42.6291199
   8.8418999  27.7748375   7.5929079   8.4196701  27.6617126   8.4444685
   9.1414366  28.6839638   7.5929756  74.0714111  62.6968498  70.8433609
  73.7977142  61.7904701  70.7026596  74.0511932  63.0912476  69.9714279
  81.4227524  51.6026154  80.6209793  80.6469498  51.3007202  80.1485138
  81.2724686  51.3311119  81.5264740  28.1814003  13.0493708   5.8432126
  28.9877434  13.1499166   6.3491106  27.8041000  13.9286718   5.8166513
  16.4477291  39.8887367  10.5917253  17.3659477  40.1475410  10.6700020
  16.0728703  40.0723267  11.4531240  63.7192192  23.4220543   3.6584477
  63.9201469  23.8178024   4.5065303  64.4931107  22.8992271   3.4487422
  41.9928017  12.1331673  75.3614120  42.9035263  12.2641325  75.6253433
  41.5428963  12.9266958  75.6514587  52.5435181  15.2003098  78.3785553
  52.0928459  14.5042334  77.9004364  51.8548317  15.6232672  78.8914413
  67.8668442  46.0304604  73.6019897  68.3082581  46.8162880  73.9242706
  67.6353073  45.5442390  74.3933258  66.9297791  37.5456352  41.5997276
  67.4054794  36.9554367  42.1841965  66.1560898  37.0481682  41.3348389
  84.8771286  33.9323578  66.4455338  84.9591980  34.3009605  65.5659714
  83.9500809  33.7078362  66.5255966  41.3822441   5.2490983  67.0397110
  41.6806450   4.4302535  67.4355392  41.0472870   5.7624202  67.7749252
  57.3186073  10.5487614  11.4785795  58.2247162  10.6809998  11.1998177
  57.1697502   9.6092920  11.3714838   8.8393488   8.0712070  32.8894157
   9.0415125   8.7602224  32.2564735   8.9291182   7.2570853  32.3940582
  74.0618439  50.6086578  63.0200386  74.3699799  50.2302971  63.8435211
  74.6780930  51.3178253  62.8368797  32.2920303  44.2494011  79.8721542
  33.1442146  44.3970222  79.4620056  32.4575310  43.5769691  80.5329666
  59.7384911  64.6668549   7.3648334  58.9735641  65.0671997   6.9514956
  59.3904381  64.2341461   8.1444807  67.8130646  28.5632744  19.1489811
  67.9805374  27.7480946  18.6760464  68.6475601  28.7725182  19.5685844
  56.9287300  20.9701042   9.3219519  56.1287994  20.4663162   9.1718225
  57.5231819  20.3537998   9.7497673  49.8344879  60.4789124  70.4910812
  49.4005280  60.9592590  71.1961823  50.6751137  60.9231949  70.3806381
  59.2008324  51.1177673  31.7159195  58.9519768  50.2629776  32.0675430
  59.9479408  50.9341888  31.1463947  26.2654743  33.7924919   1.3251408
  26.3415527  33.6719589   0.3786126  25.5155869  33.2529755   1.5757837
  73.3796616  14.2164745  81.0872192  74.0319290  14.2464924  81.7871399
  73.2051010  15.1351852  80.8829422   2.5197613  40.5364952  82.1886673
   3.1013722  40.8521652  81.4970627   2.4747500  39.5903931  82.0504684
   5.9844384  20.9088821  78.1411972   5.4857583  21.4541378  77.5327225
   6.0752053  21.4481392  78.9268188  61.3268356  37.9320259  69.3286896
  62.1313210  37.6068687  69.7328033  60.6234474  37.5109444  69.8228226
  62.4148788  60.6725273  25.5243969  62.4208527  60.1786728  24.7044563
  62.8992958  61.4736633  25.3250065  36.9543686  44.2996483  33.7980423
  36.5384789  44.4227142  34.6513405  36.4014587  44.7894325  33.1892433
  39.7985382  71.7637863  56.3144722  39.1813126  71.7685089  57.0460739
  39.8336906  70.8484650  56.0366631  68.8794479  71.2183075  20.1981850
  68.0075989  71.1966782  20.5926952  68.8011627  70.6746597  19.4142513
  59.1250877  54.8025475  78.5099411  60.0616646  54.9778519  78.6011658
  59.0725708  53.8611107  78.3451157  45.5671234  58.9668655  69.3863678
  44.6846352  58.8003845  69.0551147  46.0244370  58.1328163  69.2793274
  68.2230759  41.3744240  87.8254929  69.1368866  41.4987526  87.5691071
  67.7846298  41.0953789  87.0216675  35.4768944  47.1216888   5.4380016
  35.2336044  47.2981224   6.3467989  36.3124733  47.5739059   5.3216295
  82.3287811  42.2346878  43.9103317  81.5981674  41.8994141  43.3906860
  82.3720093  41.6507111  44.6675224  37.7676773  70.7192459  38.5815620
  38.6671371  71.0371475  38.6599083  37.2569237  71.4978256  38.3598289
  44.9487267  49.5894203  36.8734169  45.2229996  50.1975555  36.1869926
  44.1529961  49.1833382  36.5296974  54.7242546  43.6930809  62.6404686
  54.4541092  44.3536072  63.2784004  55.6587639  43.5683937  62.8059273
  59.7985191  42.1316986  29.9098606  60.3783417  41.3811111  30.0389080
  59.1519737  41.8281326  29.2726364  10.2669725  50.4778748  67.3105469
  10.3497162  50.6173744  66.3671875  10.7688751  51.1921158  67.7032166
  20.4391251  68.7261887  32.1690826  19.9543705  69.4843979  31.8429623
  21.0743237  69.0941391  32.7833824  28.4073734  32.8336525   2.7433360
  28.2246323  32.3680801   3.5594733  27.5662594  33.2149544   2.4916091
  73.7855682  30.8527660  64.5311356  73.2959518  31.0463371  63.7317352
  73.1333771  30.4872704  65.1288757  50.0013504  69.6527100  55.1092072
  49.5986481  69.3328857  54.3018799  49.2634163  69.8159332  55.6966095
  33.7775536  43.8391571  17.7854481  34.4695549  44.3222733  17.3338223
  33.0863037  43.7424126  17.1304302  84.4937363  15.6570578  86.1036301
  84.1837006  16.3911819  85.5733719  85.3983688  15.8830576  86.3199463
  83.6705017  27.8619576  67.7156982  83.4031754  27.8249664  66.7973328
  84.0730438  27.0096817  67.8824844  14.7417059  49.8217506  14.0935774
  14.4196186  50.7061996  13.9196615  15.4803047  49.7136879  13.4943905
  24.8629913  58.9885674  65.4508362  25.7227917  58.6008224  65.2876511
  24.8567562  59.7877274  64.9240189  83.6964645  32.2945023  38.2966270
  82.8091660  31.9399242  38.3533516  83.9267273  32.5094566  39.2005081
  83.4451370  17.7892780  19.5936985  82.5227966  17.7533989  19.3402634
  83.9233322  17.7260475  18.7669220  81.3697281  61.2485809  22.0938835
  82.2129898  61.2364502  22.5466557  81.4761810  60.6282959  21.3726692
  82.6082611  22.5743446   9.7019768  82.4665985  21.6790257  10.0094910
  83.5601501  22.6639957   9.6559896  85.1044846  24.4742737  51.0321884
  85.7802048  23.8006210  50.9558067  85.4882507  25.1340446  51.6098213
  17.6611004  50.0382690  12.0111837  17.7663879  50.8416443  11.5015430
  18.5494690  49.6932907  12.1007576  67.2629547  61.1986694  16.2982578
  67.9729385  60.8222694  15.7781868  67.6517715  61.3511200  17.1595459
   4.1381850  65.2472992  18.9864788   3.2858822  65.1214981  19.4035950
   4.1395240  64.6313248  18.2538071  32.9259453   7.0947695   3.8418210
  33.1707916   6.3939977   4.4461398  32.9990768   6.6986666   2.9734972
  51.2667999  54.9226532  69.3672638  51.0270119  54.3968048  70.1302948
  51.4486427  54.2803230  68.6812744  52.7872200  37.6552582  36.7077751
  52.5260544  36.9310188  36.1390038  53.3490372  38.2011909  36.1577263
  25.4119244  64.7973862  69.0571136  26.2986412  64.5094604  69.2740479
  24.8697605  64.4618683  69.7710571  69.0552063   5.8367796   8.9388790
  69.4575958   6.1171193   8.1168556  68.9072800   4.8979383   8.8251867
  11.0289965  57.1823273  81.9806595  11.1214571  56.9505119  81.0565720
  11.0144720  56.3416748  82.4381866  69.7495117  42.3844872  55.0526276
  69.2687454  42.2950134  55.8754807  69.4073334  43.1883278  54.6614914
  80.4898148  63.8426781   5.5191669  80.9629974  63.6358376   6.3251133
  81.1012878  64.3775711   5.0129809   4.1923366  40.8774185  19.2136078
   3.9116702  40.1342278  18.6796322   4.6439037  40.4802895  19.9583282
  56.8032722  15.7318201   3.2909744  57.2290916  16.2172165   3.9975851
  56.1768799  16.3520641   2.9179342  86.3596725   2.7185855  18.2606678
  86.8389282   2.8233271  17.4387341  86.9422531   2.1971123  18.8128376
  32.6135712  69.9337463   2.8551583  32.8729553  69.0960312   2.4715106
  33.3063507  70.5409698   2.5952237   3.5816743  55.1206551  25.1061268
   4.3456163  55.6336174  24.8425045   3.9022567  54.5589218  25.8117561
   2.5024393  61.6943588  17.7661800   2.8146653  61.9269066  18.6406326
   2.9451506  62.3101349  17.1821766  75.9004669  27.9290447  21.2410755
  76.4017868  27.5888023  21.9821186  76.5177460  27.9191704  20.5095711
  66.4544373  42.2893333  14.6473246  66.3085098  43.1434364  15.0540752
  66.9321671  41.7878761  15.3080425  13.3763161  31.9292774  13.2256012
  12.6412926  31.8874207  12.6138659  13.9871140  32.5473557  12.8241835
  55.9217186  11.3841305  27.5788612  56.2549324  10.7194395  26.9760456
  55.0125771  11.1298237  27.7370510  68.6522903  36.5776253  30.0357227
  69.1717300  35.7775230  30.1147480  67.8645096  36.4036064  30.5508499
   8.8150187  62.6169167  20.0885334   9.4834175  63.1739044  19.6894875
   8.5104809  62.0583687  19.3733311  34.4591827  36.3348274  63.2854805
  34.1626892  36.9420013  63.9634666  34.8082161  35.5867043  63.7699585
  14.7926302  -0.2226799   9.3782969  15.6544342  -0.1429660   9.7871618
  14.4835625   0.6792428   9.2931824  44.9273605   0.8857677   9.0080032
  44.5537834   0.6755360   9.8638496  45.8252411   1.1571875   9.1987257
  63.2337074  30.0941677  38.6959763  63.7482414  29.3762398  38.3271027
  62.5333481  29.6608963  39.1838303  46.6007729  36.0652046  84.8215866
  46.7424622  35.5901299  84.0027695  45.6487808  36.1157188  84.9075394
   4.4030666  49.7647171  22.5936317   4.4343472  49.0900574  23.2719307
   4.8481359  50.5171432  22.9835014  46.9089355  45.5596046   5.8066301
  47.7557335  45.9815445   5.9520183  47.0477180  44.6485596   6.0654125
  77.3818130  58.9109344   6.0580282  78.1692734  59.4449501   6.1627493
  77.3948135  58.3155022   6.8073754  74.4366760  11.1813946  71.2370911
  75.1489868  10.8861980  71.8042831  73.6422729  11.0179214  71.7454529
  34.3508949  50.5219498  27.6984749  34.9666901  51.2279243  27.5019398
  34.2154160  50.5786934  28.6443386  51.5526581  20.3729382  58.8892784
  50.9508095  20.8450928  59.4646759  52.2318726  20.0390205  59.4752808
  63.8528519  55.3910294  64.8984909  63.5369873  55.1040573  64.0416946
  64.3853760  56.1639748  64.7108688  53.0189514  47.7636414  67.5177841
  53.3678207  47.4445763  68.3500824  52.3914299  48.4426193  67.7656479
  37.4232407   5.7972426  69.4902267  37.2732811   6.4170837  70.2040482
  37.6372147   6.3471260  68.7365189  32.0641251  44.9999657   4.8857970
  31.7935524  45.2268715   5.7754803  32.9823532  44.7439537   4.9726577
  58.0454292  19.1337261  40.7011795  58.1804314  18.7889805  41.5838776
  58.7401810  18.7330265  40.1786995  20.6374645  49.2198181  68.6409912
  21.0830402  48.4109421  68.8928146  21.3386135  49.7929535  68.3309250
  45.4067421  13.7819118   0.0307923  46.2747650  14.1581230  -0.1149302
  45.3865967  13.5814590   0.9665512  32.4173279  46.7096367  57.4127045
  31.5658360  46.2726555  57.4280968  32.2519150  47.5701637  57.7978859
   5.0904250  70.0209503  77.0962448   5.7910480  69.5448685  77.5420074
   5.2245703  69.8306046  76.1678009  85.4849777  54.3855782  31.2003689
  85.7193375  53.7405510  31.8676357  85.1869888  53.8627243  30.4560184
  19.9697800  39.7158661  68.1205902  19.7703991  40.5037003  68.6263428
  19.1228485  39.4306908  67.7776337  39.4441757  70.1223221  74.2945251
  39.7867050  71.0118790  74.2073669  40.2215614  69.5639877  74.2815857
  65.5860138  23.9882450  37.2374191  65.0712967  24.2932186  36.4902306
  66.1931915  24.7056465  37.4187965   5.2365627  11.0560827  60.2176170
   5.5376463  10.2015219  60.5263367   4.2851057  11.0252886  60.3176804
  57.7029305  41.1003075  82.0768204  57.9627800  41.9636078  81.7552261
  57.8880043  40.5076523  81.3483047  37.5898209  41.8104439  86.4621353
  38.1848793  42.5169449  86.7131119  38.1478119  41.0344505  86.4101028
  46.7122383  38.8465385   7.7723908  46.7711296  38.4697876   8.6503553
  47.5450439  38.6202621   7.3583035  53.3482742  34.7425499  61.4136963
  54.1100655  34.4811363  60.8964233  53.7060852  34.9580650  62.2749481
  44.2483025  63.6064110   0.5295653  44.3280144  64.0434570   1.3774250
  44.9262657  64.0098190  -0.0125195  41.9425583  70.2546844  68.7781677
  41.6001892  70.4474792  69.6510010  41.9819374  69.2989807  68.7420502
  59.4912491  17.2377014  88.6263275  60.0622025  16.6801319  88.0977859
  60.0527115  17.9621143  88.9024048  45.4839630  68.6767044  14.1871462
  44.9055557  69.4063644  13.9651842  46.2309189  68.7750092  13.5967007
   7.0004330  33.2762833  87.3901749   6.8584585  33.5427246  86.4818344
   6.5675850  33.9542274  87.9090805  35.6078949  55.4300156  80.5899048
  34.7577209  55.2219887  80.9774094  35.7190437  54.7819977  79.8942413
  21.0654144  51.8515091  41.7831383  21.1760101  50.9007530  41.7911530
  20.3192482  52.0107231  42.3611679   2.7305710  51.7829857  12.6342793
   2.2216301  51.0170364  12.8998680   2.2768853  52.1151543  11.8596411
  77.6540451  38.1591110  29.4010487  77.1139984  38.6495705  28.7813492
  77.8012848  37.3149223  28.9745579  67.5161972  40.5304756  41.1586151
  67.4333115  39.6007538  41.3706970  68.3066483  40.8117104  41.6194153
  36.8154106  38.8094330  72.9119339  36.9686737  39.0574150  72.0002060
  36.9044609  39.6275063  73.4008636  42.0973091  59.5539742  76.7767563
  42.2584114  60.4858475  76.6287918  41.4944878  59.3011398  76.0775375
  31.2899094  57.7364502  16.5626278  31.0621986  57.9515877  17.4671135
  32.1449242  58.1449280  16.4272537   4.7145743  51.2036438  47.9771996
   4.3618922  51.1616554  48.8660660   4.6004076  52.1177444  47.7171593
  31.0798855  46.3047333   9.4510479  30.5813923  45.4875870   9.4541998
  31.1816177  46.5196609   8.5238543  27.5594292  15.9541855  78.3110733
  27.3019485  15.2039881  78.8469315  26.7722073  16.1741791  77.8129654
  68.0849533  13.3610353  23.2556610  68.8844910  13.0636816  22.8214436
  68.2835922  13.3015699  24.1901340  16.9983387  21.9696484   3.4039016
  16.0731392  21.7618103   3.2733688  17.2756634  22.3590279   2.5746210
   7.6541371  50.5987358  26.7226601   7.8154879  51.5272827  26.8899860
   6.7013750  50.5118866  26.7532063  55.2263412  20.0559597  23.5055904
  56.1553307  19.8921165  23.3432140  54.7738304  19.3560734  23.0348167
  78.8039474  57.1595268   1.0487517  78.1496887  57.3841171   1.7103686
  78.4709625  57.5495911   0.2405434  29.5683708  48.3953438  17.8698444
  28.9225063  49.0916634  17.9891376  30.1503372  48.7233429  17.1843052
  63.4936371  65.1509094  79.7018890  63.2706032  66.0540237  79.4763412
  62.7532005  64.6346512  79.3833694  45.3404274  62.7336464   8.0027618
  45.2957001  63.0609245   7.1043639  45.0226402  61.8325539   7.9455113
  28.5734634  43.6857300  34.0058289  28.6438217  42.7326012  34.0590172
  29.4788647  43.9894714  33.9408569  64.0229340   9.5043859   9.6931763
  64.7217178   9.0159903   9.2579689  64.3674316   9.6878853  10.5671778
  39.0828857  59.0482864  87.6413727  38.2071037  59.4290123  87.7068329
  39.6758041  59.7937927  87.7357101  26.7424717  35.2607269  77.4964371
  26.2676678  35.6783829  78.2150192  27.3933945  34.7079163  77.9287949
  80.6812515  35.9302521   6.7494802  80.3492432  35.9301033   5.8517027
  79.9150238  36.1275864   7.2881694   8.3661499   4.0884380  55.9149590
   9.0459480   3.4254682  56.0356979   8.5123262   4.7134514  56.6250458
  86.5891724   6.7942290  68.4115524  87.0726242   6.0186486  68.1269760
  86.5803223   7.3659697  67.6439133  59.5884018  47.6070213  24.3788586
  59.1643982  46.8716164  23.9365540  59.7671204  47.2844620  25.2621746
  24.3749027  13.8550348   9.9592552  24.0023232  13.5982933   9.1157513
  24.8700886  14.6519756   9.7697563  59.1210861  27.2251282  55.4703407
  58.3591423  26.7238426  55.1798515  59.2232018  26.9924698  56.3932037
  62.6405067  54.0137024  39.4099045  63.1520691  53.3765411  39.9084625
  61.7991714  54.0538368  39.8646317  16.3408623  53.0774574   4.4391046
  16.0221691  52.8198433   3.5740604  17.2588291  53.3085632   4.2971187
  56.9988480   4.6824932  22.4064560  56.4574280   5.4498100  22.5917168
  57.6122093   4.6393800  23.1400509  69.8046951  27.3987198  31.5825729
  70.3825989  26.6590328  31.3951683  68.9840546  26.9956913  31.8660316
  63.3732834   1.9880320  38.1682167  62.9527092   2.7123067  37.7047729
  63.4314156   2.2860918  39.0759659  53.8089409  50.5127907  11.2373791
  54.4975662  50.2591629  11.8519497  53.9048119  49.9034424  10.5054388
  67.1703339  16.2897968  50.7751694  66.6434479  15.9311390  51.4893036
  66.5294647  16.6504898  50.1624565   3.2410991  25.1278114  67.7328110
   4.1170187  24.9841480  67.3745422   3.3166728  24.8838577  68.6553116
  15.4618044  10.1837664   6.0158205  15.7687702  10.3793182   5.1305165
  14.8401079   9.4651403   5.9004846  44.1090164  67.2462997  27.4745445
  44.9427795  67.5221481  27.8552990  43.6070938  66.9084549  28.2162781
   4.9943891  43.3292885  84.9769211   5.8621254  43.3253212  84.5728836
   4.5771694  42.5297470  84.6561584  20.1644173  63.7027473   6.0745006
  19.4111214  63.7753716   6.6605926  20.1199532  62.8081131   5.7370400
  53.4028625  66.6378021  45.6899910  53.7143059  66.6080017  46.5946159
  52.4885330  66.9121704  45.7603760  26.2160187  12.1777124  68.8698196
  27.1044216  12.1281061  69.2226868  26.1839180  13.0218039  68.4195862
  10.1322441  47.3450127  44.0947037   9.9687586  47.5251579  43.1689339
  10.3068981  46.4044914  44.1284904  54.2302132  70.5339432  82.2929916
  53.9124603  69.7982407  82.8164444  54.4988861  70.1392593  81.4633789
  34.5869102  43.5515366  63.8389854  34.5728188  42.7024765  63.3972473
  33.6650047  43.7979927  63.9136848  19.3549328  25.2817574   6.5996375
  19.7383747  25.9414310   6.0216789  20.0765572  25.0128288   7.1681147
  64.0259247  20.0756779  41.8265991  64.7468567  20.4974098  41.3590202
  63.6915016  20.7541199  42.4132080  52.2309723  70.3117905  63.0610237
  51.3749161  69.8838959  63.0434570  52.8377228  69.6470642  62.7350922
  38.5016861   0.0397232   1.0572897  37.9856453   0.8077081   0.8120699
  39.2424774   0.0454225   0.4511330  74.4393234  66.5211182  39.7209854
  73.6825180  66.6783218  39.1563950  75.1166687  67.1064224  39.3820839
   3.9869223  54.3242798  71.5136108   4.0492082  55.2386284  71.2373428
   3.2598181  54.3111267  72.1360016  20.4033909   6.4245348  81.3441162
  19.6478348   5.9277158  81.0302048  20.1651058   7.3401508  81.1988525
  73.8283234  17.3136578  81.5226898  74.1521759  17.1361504  80.6396027
  73.1394196  17.9665051  81.3984375  58.7088432  13.5097065  17.5408993
  57.9016647  13.1932278  17.9465294  59.3527451  12.8252716  17.7230225
  74.4940414  29.1615963   8.3824883  74.5380554  30.0072021   8.8288565
  74.3951721  28.5229092   9.0885592  30.3722801  40.8943405   6.7197375
  29.6688995  40.3924294   6.3079500  30.3295612  41.7542152   6.3013802
  55.5267525  20.4651585  47.6648636  56.1374741  19.7882175  47.9564171
  54.7115326  19.9940872  47.4924164  24.2319336  12.4413338  14.4915485
  25.1272545  12.1204605  14.5996017  23.7029629  11.8659353  15.0441227
  37.2675476  63.9357834  72.5209579  37.1961937  64.7484436  73.0216827
  36.4076271  63.8286781  72.1143875  64.1328430  22.4604225  73.6904144
  63.2246017  22.6714230  73.4740753  64.4312439  21.9133644  72.9638367
  65.3873672   5.7387981  66.0338593  65.7828217   4.8745050  65.9205322
  66.1151962   6.3027778  66.2954407  68.9258728  37.5395241  23.9814911
  69.7340698  37.2236404  23.5774364  68.8606796  37.0498085  24.8013439
  74.5433731  71.6089325  67.9053879  75.1758118  72.0219193  68.4933548
  74.3631516  70.7587280  68.3065033  59.6897430  13.3219633  10.7575989
  59.6362610  13.3830328  11.7113504  59.8851852  12.4005566  10.5871782
  79.4137802  23.1837101  60.2407837  78.6710663  23.1071301  59.6418304
  80.1696091  22.9095516  59.7213707  26.1783218  70.7244339  81.1509628
  26.1484470  70.7762833  80.1956329  26.5858459  71.5467758  81.4228363
   6.1221075  50.1148949  66.9614792   5.9008594  49.6008797  67.7380600
   7.0771842  50.1761818  66.9789352   4.1193504  66.1971130  88.7286911
   4.2138891  65.4026566  89.2541656   3.6539898  66.8081436  89.2999344
  67.4750061   2.6756682  30.5069313  67.2060165   1.8051474  30.8003044
  67.3510284   2.6575303  29.5579681  70.6324310  54.6091270   0.0339715
  70.4203720  55.3837814   0.5547110  69.8560486  54.0536385   0.1038918
  70.4133759  52.5524788  62.6790581  70.6561279  52.8649635  61.8074760
  70.2091141  53.3481102  63.1704636  35.0824928  69.5870285  40.0304108
  35.1928520  68.6376114  40.0819626  35.8910866  69.9004898  39.6252594
  35.7943039   2.2170384  85.9805298  36.2636719   2.6154478  86.7134628
  35.4788742   2.9599373  85.4659042  44.0335732  64.1027832  35.4929428
  44.6100845  63.6565437  34.8726692  43.5867310  63.3946228  35.9567032
  68.6438217  26.7488785  80.2241287  68.1780396  25.9160500  80.1487656
  69.2229462  26.7692070  79.4622650  84.9806366  60.2242012  41.9421692
  84.1460571  60.6600151  41.7696381  85.3100128  60.6435852  42.7370682
   8.7965336  65.7976837  66.4134293   8.7462015  64.8432236  66.4654007
   9.6280441  65.9699783  65.9716873  37.9750175   6.9937854   4.8641720
  38.6640587   7.6152511   4.6291513  37.8233376   6.4905262   4.0641994
  30.6136837  55.2667809  67.6048965  29.8044052  55.5750198  68.0126801
  30.3387032  54.9283104  66.7528076  11.2924957   7.4435048  83.4566574
  11.5812893   7.7932014  84.2995911  12.0791445   7.0510492  83.0779800
  50.4124832   7.2997522  30.6352959  49.9566002   7.7363667  31.3548584
  50.1525764   7.7893615  29.8549347  42.9469986  61.8036270  83.1871109
  42.1723061  61.2852783  82.9693985  43.6821556  61.2079086  83.0425568
  31.7969322  11.6345816  86.0992355  31.5519390  10.7100124  86.1363983
  32.7133827  11.6286020  85.8229828  67.4853516  48.2050781  14.0640526
  66.8338165  48.0878677  13.3726835  68.2705002  48.5036774  13.6051207
  31.3104820  42.5801773  63.7244835  31.2901764  41.7100906  63.3260193
  31.4924679  42.4156990  64.6497192  74.0752182  41.4033890   5.5906010
  73.4640884  41.9996758   6.0232596  74.1722488  41.7592545   4.7073250
   4.8564610  55.8958549  85.0448608   5.1667995  56.6969910  84.6228409
   4.8492270  56.1045761  85.9790039  53.5996704  59.3705940  22.9448147
  53.4351921  60.2917023  22.7429790  53.8429642  58.9811134  22.1049671
  28.9461098  30.7859879  18.3658142  28.5596676  31.6421261  18.1816349
  28.2858696  30.3330269  18.8903522  46.7874756  30.7544651  12.7192030
  46.1486893  31.4065704  12.4312057  46.5718002  29.9693489  12.2159061
  14.5443583  49.4818687  58.9280014  13.6323719  49.4409561  59.2158203
  14.7921915  48.5681458  58.7868576  44.8804817  56.5549660  71.8838654
  45.7031822  56.0656891  71.8859482  44.5674744  56.4934044  70.9813919
  58.4760551  41.4215889  59.2164230  57.8561211  41.1963959  58.5227356
  59.2481117  40.8872070  59.0304260  77.3818054  71.2540131  50.6632957
  78.1936874  71.6916275  50.4072227  77.5371475  70.3293152  50.4708328
  51.3774300   1.9881606  51.7363319  51.9349785   1.6989878  52.4586525
  51.8580055   1.7371365  50.9474945  83.5218658  27.2094269  32.8925591
  84.2004166  27.8807316  32.8208122  83.9483948  26.4051628  32.5968246
   7.3744116  47.9840927   9.2515469   8.0713415  48.6395187   9.2208881
   6.5817251  48.4661713   9.0160027  31.8484020  27.6536331  68.1851273
  32.6587143  27.3221264  67.7981720  31.3789997  28.0528240  67.4526367
   2.9587271  60.7589760  57.5737724   2.9391582  60.1782722  56.8130951
   2.0389547  60.8687592  57.8150177  48.1292496   4.2998691  40.9249725
  48.2719727   4.7620254  40.0989761  47.1820984   4.1673694  40.9647369
  25.1990490  66.8144760   3.1044095  24.5527992  67.5173569   3.1718826
  24.7870102  66.1640549   2.5357218  10.2107878  10.4766178  23.7076130
  10.0214367  10.2543726  22.7960281   9.7779913  11.3195000  23.8435135
  78.2051697  46.0941429   1.8241093  78.3820877  45.7672119   2.7061796
  78.9632187  46.6396675   1.6143519  71.8076630  35.8173637   0.7222694
  71.6105194  35.1707878   0.0445497  71.2486801  35.5702209   1.4589450
  24.3531876  65.8136749  38.1944580  25.1693268  65.3216629  38.1045990
  24.0326443  65.9116821  37.2978668  60.0020027  33.0379143  73.1979675
  60.8843956  32.9180298  73.5490341  60.1359024  33.4785843  72.3588562
  19.4904537  56.1388054  15.8170233  18.9676685  56.9376030  15.7473917
  19.7358875  56.0929756  16.7410870  11.2877579  35.3660011  69.1093216
  10.7857084  35.7821884  68.4086304  11.0165310  35.8256989  69.9038925
  13.4673862  62.2400703  72.6671143  14.3438559  62.5741501  72.4762573
  13.6119003  61.5355339  73.2987595   4.8486252  69.4011917  82.6805420
   5.6864567  69.8636856  82.6997223   4.9756131  68.6513367  83.2617645
  42.7012596  66.9948120  45.3038635  42.5017204  66.0763474  45.1226578
  42.9410629  67.3603287  44.4523239  14.9274111  65.7134857   5.5112758
  14.9311256  64.8267441   5.1508470  14.1106834  65.7668686   6.0075998
  56.2989273  34.5588531  36.9681778  57.0160713  34.0697289  37.3715248
  55.5271492  34.0096817  37.1060219  50.3580208  38.0068398  37.6906242
  51.2739182  38.2626801  37.5815163  50.0864677  37.7121468  36.8213425
  15.8199368  37.2387695  76.9860535  16.5561981  37.8492470  76.9477234
  15.4465036  37.2582741  76.1049194  68.0063553  24.3271866  40.8169060
  68.5464249  24.9918747  40.3894157  67.3606796  24.8277035  41.3157196
  59.2456894  19.4864006  57.2557831  58.9546661  20.3707371  57.0333214
  59.6304855  19.1501789  56.4463882  17.3734474  23.1411285   0.9163442
  16.8425198  23.9155865   1.1022540  18.0800114  23.4637642   0.3569657
  70.8635941  66.2082291  11.3258677  70.0115128  65.7750320  11.2756281
  70.6547318  67.1329498  11.4581394   7.0752473  33.2149086  40.9541512
   7.9366651  32.8018913  40.8940964   7.1393213  33.9856415  40.3901520
   4.3936014  42.7502670  24.3918705   4.9658866  42.2260361  24.9521389
   3.5465093  42.3064156  24.4326267  36.1690636  15.2921133  16.4711590
  35.5246735  14.5952997  16.5954151  35.8681602  16.0008068  17.0398788
  64.5082474  26.2782269  43.6935081  63.7234764  26.8259888  43.7115440
  64.8387375  26.3036079  44.5914841  66.5609512  42.9753189  80.1313248
  67.1560211  42.9275589  79.3831024  65.7327423  42.6269264  79.8012848
  18.5261936  19.3735619   3.8977749  19.2755947  19.6592617   3.3752759
  17.8332806  19.9985466   3.6844716  34.0768929  13.3676252  16.3906250
  33.3591156  13.1805286  16.9956245  34.5645676  12.5457783  16.3361073
  68.3322067  69.1983566  37.0958176  67.9608231  69.7152405  37.8107529
  68.3588486  68.3039093  37.4356575  83.0922089  14.6115103  16.2332382
  82.3637543  15.1533127  15.9298687  83.6655731  14.5323792  15.4708557
  56.6000710  68.3800583  28.5041847  56.5856705  67.4580688  28.2473602
  56.5868607  68.8596420  27.6758995  48.0012131  20.3942070  40.6869049
  47.0505028  20.2918358  40.6432915  48.1423454  21.3400974  40.6468773
  25.7703648  18.8129864  30.6803589  26.5740280  19.1076488  30.2519550
  25.1542397  18.6706314  29.9617786   6.8148403  47.4094048  64.7886047
   7.4968634  46.8214188  64.4640274   7.1809478  47.7809258  65.5912018
  63.3305397  18.0502205  39.7702446  62.3868752  17.8949852  39.7298164
  63.5063591  18.2171345  40.6962357  64.9300842   3.0993743   4.0431228
  64.6763229   3.5941293   3.2639847  65.7135010   2.6182275   3.7766905
   6.8048110  26.2378597  72.9583893   6.3688254  25.7019749  72.2958298
   7.5152249  25.6851196  73.2839966  38.3861389  11.5193996  35.3338127
  37.5152473  11.1353216  35.2324905  38.6240120  11.3371115  36.2428894
  67.0959244  29.1633930  22.2914066  67.3147049  28.3059006  21.9266129
  67.9410400  29.5985832  22.4037476   1.0838375  65.2013550  16.1093807
   0.2788750  65.2735825  15.5964966   1.7147058  65.7501984  15.6435347
  73.4124146  61.3667068  63.4075584  74.0812759  60.6822662  63.3876877
  73.1890335  61.4564705  64.3339920  72.9136658  29.7812309  33.9049873
  73.4059143  28.9676533  34.0145950  72.0667572  29.6058693  34.3151474
  14.0043497  47.5725098   6.0948353  13.7620621  46.9640884   6.7929416
  14.5422535  47.0512695   5.4988456  10.3109474  35.7405930  27.9516907
  10.1452713  36.3051033  27.1966343  10.3055239  34.8531456  27.5930233
  84.7445145  25.5587292  78.0002594  84.0101624  25.8677807  78.5307846
  85.3776321  25.2277145  78.6372986   9.4065170  50.9577141   8.7131920
  10.0402393  50.9817123   9.4301662   8.6601915  51.4625893   9.0361977
  35.2577095  55.8194962  14.1207495  35.9949188  56.0044174  14.7026052
  34.4848785  56.0735016  14.6251793  85.4627304  18.0802975  84.5235519
  85.2949600  18.6946754  83.8089752  86.1590195  17.5127468  84.1929398
  76.6569748  53.8659859  20.8434486  77.5519791  54.1910934  20.7459564
  76.1254272  54.6552391  20.9472275  80.5205765  61.0015678  74.8173752
  81.0744934  60.4919739  74.2259979  79.8539734  60.3821716  75.1144104
  23.3048916  23.1831837  72.8199844  22.8903198  23.7659130  72.1837540
  23.1895390  22.3067760  72.4527817  85.7484741  30.7446728  85.4719391
  86.4609756  30.1712284  85.1895599  85.4309998  30.3500481  86.2841644
  74.0703201  53.6724625  79.0429382  73.5220947  52.8879051  79.0551224
  74.9615631  53.3402328  78.9354553  20.7382431  58.4967575  62.1552925
  21.2835007  58.3141785  61.3900528  21.2155304  59.1750603  62.6331329
  47.6281548  51.6614342  77.9223785  46.8493042  52.1988564  78.0666122
  48.3073120  52.2868805  77.6698074  76.6158142  63.2676735  62.8475609
  77.1825790  63.9258766  63.2497711  75.8795471  63.7681961  62.4959717
  42.8208199  43.1385727  28.6924706  42.8557777  43.8571014  29.3239174
  42.0327530  42.6496468  28.9293842  65.3442154  32.6713142  73.1194839
  65.9373703  32.8921318  72.4014053  65.3981171  31.7182522  73.1902008
  54.0669327  18.0259666  77.8884506  54.1436615  18.8610783  78.3498993
  53.5502281  17.4743671  78.4758072  63.4220085  69.0663300  11.8066950
  62.9705811  68.6100540  11.0965805  63.8846626  69.7840805  11.3742504
  20.3941727  69.5455246  66.4022064  20.8171062  68.6881561  66.4499664
  20.0465641  69.6904755  67.2822037  79.2145767  48.0571899  25.8683701
  79.4124527  48.6705589  25.1606617  78.2663879  47.9349289  25.8212337
  18.8332863   8.0027742  74.7053146  19.3053093   7.6975641  73.9305420
  17.9655571   7.6059942  74.6288681  50.0288162  25.5121155  85.7021103
  50.0912132  25.8773155  86.5847015  49.4800644  26.1337585  85.2239227
  41.6783600  69.8235550  11.3158617  41.5890770  70.4552994  12.0294104
  42.6121597  69.8301086  11.1056004  58.7621765  64.0434036   9.9785614
  58.7319908  63.1190186  10.2252159  57.9474754  64.4097824  10.3224440
   4.7793751   7.6522779  58.1713448   4.6766086   7.8018031  57.2314987
   4.8528481   6.7016649  58.2560081  27.2581024  50.0921097  31.4323025
  27.0179024  51.0178375  31.4718094  28.1907425  50.0772781  31.6472282
  32.6422653  51.4431152  47.6684608  32.0559654  50.7838287  48.0397110
  33.4537964  50.9682274  47.4892082  47.8462639  38.0813980  64.3243790
  48.1821022  38.0364075  65.2196045  48.1828575  37.2909737  63.9022865
   6.0424008   3.4915593  83.7338791   6.5796967   3.3632469  82.9521561
   5.1415367   3.4742823  83.4107971   7.9294701  50.3668556  45.9366264
   8.5486708  49.8246994  46.4253922   7.7182021  51.0855904  46.5324554
  71.0063477   0.8954284   5.7891583  71.0195236   0.1940026   5.1379595
  71.1712494   1.6927067   5.2857819  14.7806444  17.3221264   1.6794196
  15.5564451  17.8087234   1.4008744  14.9227867  17.1580048   2.6116707
  37.8450813  68.6780396  72.6440353  37.4443588  69.4773407  72.3023071
  38.4452324  68.9830246  73.3245010  84.2502670  39.8118286  28.7092113
  83.4350510  39.3252335  28.5872421  84.6954041  39.7490463  27.8641396
  60.7706528  51.0125961  46.3848381  60.1277237  51.7210197  46.3530693
  60.2626877  50.2389221  46.6290321  44.1525993   6.4802303  50.2889175
  43.6478195   7.2234526  49.9586945  43.6233978   5.7139673  50.0675201
  26.8464222  68.5014496  45.5177650  26.9914780  68.0428085  44.6902199
  27.2740936  69.3496170  45.3996925  83.7193909  48.9726868  38.1971207
  83.8783646  49.1888924  37.2783089  82.9226913  48.4422798  38.1839905
  22.0579338  61.8699417  35.9027290  22.6060371  61.0959320  35.7734032
  21.5596867  61.9492302  35.0892830  77.0090027   7.6858411  46.6728210
  76.9230270   8.5168304  46.2056007  76.5418015   7.8247914  47.4966202
  14.0569839  45.8368187  71.1782837  13.8519230  44.9354515  70.9298630
  14.8025150  45.7575455  71.7733765  61.2718010  69.9998245  34.8714066
  60.5732155  69.3637619  34.7176743  60.8131065  70.8130951  35.0821877
  75.4399109   1.6449502  44.4198837  76.2593079   1.9501864  44.0304451
  75.7034378   0.9379901  45.0089455  85.4243164   9.2620611  74.9319382
  85.4054794   8.6992617  75.7059784  85.7414627  10.1049309  75.2563171
  57.4346313  24.7308102  86.1974182  56.8522339  25.3402100  85.7439041
  58.2510643  25.2178745  86.3089676  36.5607605  56.5458336   4.9945192
  35.6715088  56.6106567   4.6462989  36.4955177  56.8930206   5.8841457
  71.9542542  54.6798477  57.5048866  71.4830399  55.3850708  57.9485664
  72.8321533  55.0326462  57.3597717  44.2444649  50.9860001  66.0662994
  45.1818657  50.9403648  65.8780823  43.9495392  51.7812767  65.6226959
  59.3665428   2.2692826  13.1102066  59.6682968   2.7328148  13.8914318
  58.5961914   2.7596827  12.8233261  51.7310333  43.1683350  44.7613144
  51.6544228  43.5777626  43.8994942  50.8264313  43.0312767  45.0426331
  16.6637764  31.7955055  69.9498901  16.9285183  32.4165306  69.2713089
  16.2240067  31.0920639  69.4723969  32.5190010  49.0452766  77.1320648
  32.2734680  48.1223984  77.1971741  33.1468010  49.1767998  77.8425522
  82.8603745  48.5348740  12.0685949  82.0847626  48.6389847  11.5174007
  83.1136398  49.4292374  12.2970839  14.5511875   5.9250255   8.5402594
  14.0776768   5.8266754   9.3663025  15.3483009   5.4083552   8.6581297
  79.5664597  54.9150124  11.9776440  79.7179108  54.4993744  11.1287994
  78.6733017  55.2547417  11.9220228  79.7438278  58.8090324  25.6641006
  80.5650024  58.8791924  25.1772861  79.4684219  59.7154579  25.8011150
  15.8621883   0.9844961  78.9291306  16.4599819   1.5180731  79.4527435
  16.1917019   1.0641015  78.0339737   2.5950789  15.1762857  86.0269852
   2.8088839  14.3811722  85.5388107   2.8978691  15.8904037  85.4661102
  68.4209213  54.9575195  56.4003448  67.8096008  54.2926178  56.0834389
  68.3505173  54.9125710  57.3538933  75.1711273  21.6896954  63.2728386
  74.3934021  22.2199059  63.0988846  75.7263947  21.8195419  62.5040436
  21.8508625  67.9897919  72.4151535  21.1632690  68.6509323  72.4947662
  22.3505917  68.2556992  71.6432724  57.6800652  54.5140419   8.2246494
  56.9862251  54.6759491   7.5854301  57.5213928  55.1547852   8.9178314
  64.3417511  48.5900154   0.9348132  65.2280502  48.7413750   0.6064920
  63.7705765  48.8602219   0.2157965  34.6965370  51.4587097  73.6553650
  33.9879684  50.8187790  73.5871429  35.4967308  50.9393005  73.5770645
  50.3383446  14.2126436  58.0321732  49.6928062  13.5562487  57.7701454
  51.1753998  13.7490768  58.0061913  18.3689804  55.2937546  59.8000717
  18.0719929  56.2036400  59.8116074  19.2598476  55.3369713  59.4526291
  33.8473701  69.4317474   6.5593481  32.9249306  69.2425766   6.3874211
  33.9079552  70.3861160   6.5176940  83.1381149  21.3298244  38.9132195
  82.7242126  22.1309299  39.2343788  83.6526947  21.6125774  38.1572495
  38.9750519  68.9353943  82.1601105  38.0699615  69.2436752  82.1153259
  39.2415924  68.8414001  81.2455902  23.5801945  54.7022820  36.8565178
  23.2145042  54.3665581  36.0381088  23.1686516  54.1712837  37.5383606
  37.7205315  48.7313652   5.3912234  37.6193886  49.5962029   4.9936566
  38.6413002  48.6928978   5.6499486  36.3830299   1.5209023  63.6681137
  36.9074478   0.7651324  63.9327431  36.6998825   2.2369051  64.2187271
   2.3548024  26.1264267   7.0748553   1.7516285  26.1815357   6.3336558
   3.2251155  26.1333294   6.6764345  73.2342072  21.5404701   3.6920972
  73.3299942  20.7976093   4.2880940  74.1308441  21.7656212   3.4439495
  21.6625404  46.0136528  84.1760864  21.7157173  46.4621239  83.3321228
  22.0644016  45.1592102  84.0190125   9.0711718  60.9323997  47.0523262
   8.3201408  60.3639030  46.8820534   9.1293783  60.9728775  48.0068970
   1.5309563  48.9344902  59.3480072   2.2824733  48.3988800  59.0938873
   1.5429339  48.9252472  60.3050842  24.8119602  47.7551155  13.3972864
  24.1852951  47.7966805  12.6749334  25.5760517  48.2361450  13.0794706
  54.0690994  13.1927633  76.0300674  53.8311005  12.2745428  76.1583633
  54.3462296  13.4916239  76.8961563  37.2211380  31.5380592   3.9137087
  36.5242500  31.2086391   4.4812131  36.8702202  31.4497528   3.0275433
   7.9533863  62.8735390  67.1960220   8.4802179  62.7364960  66.4086838
   8.4674397  62.4780807  67.9000092  77.4379730  14.2549944  24.9198780
  78.0957413  14.7043886  24.3892002  77.9198914  13.9448013  25.6865387
  12.6092167  51.2405357  19.4213696  12.5608683  52.1830482  19.2614803
  12.5094843  51.1529884  20.3693256  24.5313034  38.4270554  11.1779089
  24.1532135  38.7596550  11.9919462  25.2808304  37.9021683  11.4588623
  86.2458191  49.6639252   4.3542557  86.6099167  49.6131630   3.4704630
  85.7877045  48.8318634   4.4727225   5.3217282  53.5426712  17.9520512
   5.4588013  54.3877144  18.3802338   4.4422865  53.2775612  18.2213650
  50.4319839  43.5249748  50.5059814  50.3003540  44.2096367  49.8501282
  49.6624374  43.5844688  51.0720978   3.3390050   1.2796619  52.5487747
   2.7215686   2.0061841  52.4640999   2.7922614   0.4949327  52.5099983
  50.3440590   2.8184166  82.2336044  50.8276672   3.4811125  82.7267456
  49.4627953   2.8379114  82.6067352  81.3715363  26.1555576   1.7748924
  81.8209381  25.3969574   1.4023408  81.9907761  26.5117226   2.4120140
  55.0419197   0.2309633  53.0652313  54.6430817   0.7535393  53.7609825
  55.9628716   0.1606077  53.3164940  61.8787613  71.4239197   0.4101386
  61.4596062  70.6742630  -0.0124219  61.1524620  71.9327621   0.7704176
  62.0928078  51.3636551   8.7381477  61.3318672  51.7248459   9.1928377
  62.5124359  50.7975082   9.3859291  31.8225155  65.1673737  11.9375830
  31.7413692  65.1995163  12.8907957  30.9211884  65.2141876  11.6187611
   9.8832512  51.9945145  86.3241196  10.0466070  52.4923401  85.5230484
   9.4373569  51.2014999  86.0265732  77.7887497  50.0649490  50.1494408
  78.7036743  50.3436089  50.1107521  77.2875366  50.8758087  50.0626831
  10.3181858  33.9862480  43.1159744  10.6462812  33.3823357  43.7822151
  10.1200666  33.4284134  42.3637772  18.1337032  12.9703884  23.0034981
  18.1673222  12.5095825  23.8418064  18.8734169  13.5771275  23.0338688
   1.6237339  42.8247871  49.4656448   1.5542663  41.9889374  49.9269066
   2.1690392  42.6327553  48.7027550  26.5229607  26.2314720  15.4863453
  25.8958454  26.1134109  14.7728882  27.2296829  26.7492867  15.1008024
  66.0093155  38.2967262  44.7945747  65.7841797  39.1355324  44.3921432
  65.8594666  37.6516228  44.1034698  12.9675379  21.4966183  12.3783092
  12.9446077  20.5518608  12.2261829  12.0770702  21.7915745  12.1877871
   9.2125359  62.2745285  25.2630081   9.7195339  62.0438194  24.4845772
   9.1934671  63.2315369  25.2614670  19.4497089  67.9739685   3.4780076
  19.1352024  68.6708755   4.0538898  19.9236259  68.4323120   2.7840636
  75.1794586   8.9762878  17.6968193  74.6179123   9.7439203  17.5889225
  74.7691422   8.4766884  18.4027042   4.8503432  29.0061855  32.7014275
   5.1160254  28.5249386  31.9178143   5.6713486  29.1976357  33.1547775
  44.5800362  61.4087029  36.4512939  44.5333481  61.5372047  37.3986778
  45.5096970  61.2645836  36.2746658   1.7519380  13.0956221  27.5693245
   2.2216353  13.8136978  27.1450806   1.2321417  12.7022419  26.8683987
  78.9470978  20.3974304  32.1758080  79.7299576  20.1909981  31.6651745
  78.5818329  21.1735611  31.7510242  78.1774063  21.1123695  53.2107773
  77.7132950  21.9495182  53.2147751  79.0366287  21.3166237  52.8416557
  71.7330322  35.3389359  42.5601234  70.9442902  34.8577728  42.3099022
  71.8813324  35.9483414  41.8370285  75.1838455  28.1041355   5.9671025
  74.7447968  28.2929726   6.7964425  75.5517883  27.2283611   6.0848660
   5.4371810  30.4731464  56.2846298   6.1180730  30.3806534  56.9510078
   4.8850641  31.1869564  56.6038055  74.0052490  28.4550037  29.3427811
  74.8358231  28.0193214  29.1515827  74.2033157  29.0367374  30.0766678
  35.7000885  38.6561394  17.1400299  35.5716591  38.2774467  18.0097027
  34.8433037  39.0123978  16.9050159  26.2692108  26.6605587  84.6222763
  26.3117714  27.5147419  85.0521545  26.3003960  26.0289745  85.3408585
  81.8546448   6.3252511  54.8537750  81.3160095   6.7538514  54.1886406
  82.7530212   6.4367242  54.5427742  51.1225777   1.7187415  67.1740570
  51.4114075   1.3184733  66.3539429  50.7539482   0.9931539  67.6779099
  51.3800049  15.8694506   9.7144890  51.2399559  15.8402967  10.6609392
  52.2750397  15.5518875   9.5949144   7.0960321  19.0265999  81.6248398
   6.8962011  19.9015827  81.9575653   6.6725731  18.4323120  82.2443085
  27.2385311  43.5121117  80.0215225  28.0567455  43.0198288  80.0879822
  27.2127056  44.0424118  80.8179855  58.2427597  35.7431641  -0.0364194
  57.5472221  35.0864639  -0.0017130  58.0617180  36.3231163   0.7032486
   3.1454916   8.4069824  28.1274796   2.2118328   8.2851686  27.9552174
   3.1963446   8.5665140  29.0699215  63.1301346  44.4014969  49.5229530
  63.1467590  43.6726265  48.9027023  62.1994095  44.5774841  49.6608200
  38.2162552  38.6621475  35.3487129  37.9186668  39.5714951  35.3211823
  37.9798355  38.3592033  36.2253914  78.2339783  55.1641006  67.3601837
  78.5128326  56.0562477  67.5664520  78.8275528  54.6055450  67.8620911
  75.5716858  24.5365791   3.4657118  75.7637939  23.6489296   3.7680457
  75.6680908  25.0816936   4.2466006  51.3763924  41.3389053  63.2935295
  51.2679253  40.3881149  63.2718925  50.9092445  41.6509590  62.5185280
  18.7876759  46.7461815  65.2383423  17.8787537  46.5777512  64.9899063
  18.7730045  47.6240082  65.6197052  20.1069622  52.8837814  34.9119644
  20.9749928  52.6871719  35.2642441  19.4996643  52.5647049  35.5795021
  84.2425232  22.5900536  74.7911148  84.9603577  22.1819706  75.2752686
  84.2284470  22.1308327  73.9513855   9.2438784  30.4730396  25.0280056
   8.7429895  29.8591042  25.5650578  10.1122627  30.4899120  25.4303188
  35.6234169  66.8089523  39.8303070  35.9923286  66.0755386  40.3224869
  34.7523880  66.5089798  39.5703888  34.8428192  20.3811684  72.4165421
  34.0832863  20.6436310  72.9365921  34.8401794  19.4247265  72.4545441
  56.7647858  29.5276394  75.7045517  57.6786385  29.3333111  75.4963608
  56.6295929  30.4182873  75.3809738  25.0532703  66.3545151  45.1162720
  25.0006218  67.2139130  45.5344810  25.5073719  66.5178452  44.2896233
  42.8785286  60.2010117  21.3013439  43.6652908  59.7253418  21.0349312
  43.2062607  61.0307579  21.6482487  30.1304340  57.1442871  32.0550766
  30.6431351  57.4294777  31.2987461  29.3484516  57.6959915  32.0361404
  79.9513550  37.3798370  22.3064804  79.0721054  37.1267929  22.5877724
  79.8082581  37.9162140  21.5266991  79.3988953  29.2591610  69.0840225
  78.6466980  28.8748283  69.5342712  80.1275024  28.6746750  69.2931519
  84.2836151  17.4881344  71.0045242  84.5676575  16.6667156  70.6035004
  83.3986282  17.6260567  70.6668777  38.9069214  43.8286285  53.7836876
  39.1488342  43.4144630  52.9553299  37.9517975  43.8841019  53.7537842
  31.2819176  66.1012192  42.9465218  31.4531555  65.4068069  43.5826797
  31.8702965  66.8113632  43.2029305  25.2443638  50.5294724   6.7794261
  25.7528229  49.9394951   6.2229819  25.1946430  50.0796814   7.6228995
  48.9411736  39.2367020  70.0556870  49.6957855  38.8887558  69.5805817
  48.7649345  40.0807953  69.6401367   9.4142847  20.9254112  85.2249069
  10.3617268  20.9945221  85.3424149   9.3080959  20.5502186  84.3507309
   0.1392105  17.1969414  80.4465714   0.7571105  16.4914818  80.2548523
   0.6917737  17.9604149  80.6139450   1.2598675  23.6366806  88.0533371
   1.9941580  24.1733017  87.7548599   0.4961769  24.0094223  87.6128006
  49.2372513  32.8281708  18.5633011  49.4935608  33.7481804  18.6275101
  49.5516701  32.4345779  19.3772144  43.6099014  64.9854507  41.2219582
  43.3661003  64.1968994  40.7372131  44.3879166  64.7307281  41.7179794
  53.9386292  37.8796043   5.5651898  54.4938126  37.2792168   6.0627227
  53.9273529  38.6826286   6.0860109  10.8093166  55.0745430  66.8394394
  11.6539278  55.4769363  66.6370926  10.2784824  55.2257462  66.0574036
  85.6420059  59.9462967  63.2268295  84.7693558  60.2611046  63.4626541
  85.5663376  59.6985664  62.3053436  58.0019722  34.8083153  63.8927231
  57.5915184  33.9437141  63.8777466  57.6323433  35.2620735  63.1352882
  56.6883087  24.6588612  37.1906242  57.1744308  24.1949368  37.8723068
  57.0468483  25.5462933  37.2025757  49.7546005  23.4598370  54.5689735
  49.3359299  22.6017723  54.5006294  49.0495720  24.0845604  54.3990059
  13.9133968  36.8587570  69.4245605  13.3452749  36.2894402  69.9435425
  13.7848930  36.5669479  68.5220261  60.1842422  25.4038677  37.4078751
  59.3562889  25.7517166  37.0766220  60.7173805  25.2678680  36.6246147
  45.6200562  28.0427208  56.3773003  46.1071358  28.8642941  56.3140259
  46.0865669  27.5384293  57.0438499  85.8673630  17.2666435  66.6969986
  85.5777817  16.4481621  67.1000671  85.9448547  17.0605888  65.7654572
   3.6651235   4.4624634   7.6203208   3.0514107   5.1790090   7.4586062
   3.9466746   4.5881677   8.5264988  73.9145966  60.1085587  48.7322159
  73.4539261  59.4550323  49.2584381  73.8471298  59.7839050  47.8342857
  82.5800934  35.8175011  31.4393387  82.2089081  36.1099701  32.2717552
  82.7666321  34.8882980  31.5735779  75.5855942  12.8879042  10.4902172
  76.3653107  12.8274670   9.9382887  75.8415298  13.4732122  11.2030611
  43.7266846  11.6416874  88.5355225  44.1455040  10.8717604  88.1507721
  44.4548950  12.1854105  88.8360367  85.5290146  26.2570286  17.3839531
  86.0721893  25.9527645  16.6568909  85.6197968  25.5771580  18.0516109
  70.0564270  56.6724396  35.0424118  70.5051575  57.3663139  35.5255356
  70.7606583  56.1053581  34.7282372  63.9214859  45.9600372   5.1695476
  63.2368889  46.0712700   5.8292308  64.3622284  46.8090820   5.1362405
  33.9211845  66.1088943  45.5329933  33.8288193  66.8099899  44.8878860
  34.8280869  65.8168030  45.4410820  86.5872269  66.2748489   2.6934428
  86.0443802  65.5735397   2.3332756  87.0403061  65.8709412   3.4335845
  53.4233284  18.9991837  53.2190323  53.0172386  19.6775284  53.7586327
  52.8321228  18.9009953  52.4726639  21.1725178  18.5311642  80.2341309
  20.4359989  18.1026001  79.7981186  21.2413235  19.3841572  79.8052979
  62.6461029   5.7554727  83.5773392  62.7558327   5.2258325  84.3670654
  61.7008514   5.7685442  83.4271393  44.0458946  28.3647861  53.9352112
  44.5840530  28.8315468  53.2958755  44.6374245  28.1961784  54.6686249
  72.5031128  63.7686462  87.0026169  72.2580719  63.7878914  86.0775146
  72.9128723  64.6193466  87.1595993  69.8249893  47.6095810  55.8280563
  70.4981308  47.8318863  55.1848640  70.2932968  47.5733490  56.6620865
  41.1159134   5.7594347  83.8697815  41.0510483   5.8238235  82.9169540
  41.2098579   6.6650486  84.1651917  81.2803268  10.3122015   1.2061950
  81.5917969  10.1135826   2.0892396  81.6591339  11.1680298   1.0054537
  29.8986988  48.8698502  27.8561707  30.3467293  48.0469742  27.6602745
  30.4785023  49.3174438  28.4723835  63.9558830  66.0534439   1.5573431
  63.9082031  66.5842972   2.3524282  63.1347580  66.2334747   1.0995543
  29.8577728  45.2153893  45.3515701  28.9469261  45.4355278  45.1563034
  30.1734695  44.7785378  44.5605392  48.7696877  38.1902733  73.7333527
  48.2280769  38.4042206  74.4930344  49.4200058  38.8917351  73.6976624
  11.6935587  44.0397644  52.0469513  11.2057638  44.4971581  51.3620567
  12.2720795  44.7073822  52.4155083  27.8621597  41.3071747  76.8555222
  27.8528233  40.7137070  77.6064758  28.0873051  40.7485542  76.1115570
  46.6484489   4.5939031  67.9111862  47.4223557   4.0748949  67.6922455
  46.8769875   5.4862223  67.6508636  80.2382965  70.0702209  34.2607155
  80.6169281  69.2106018  34.0765457  80.1124039  70.4662170  33.3984108
  84.5211029  43.2940407  81.9141235  84.6047897  42.6209755  82.5895615
  83.6732635  43.7031479  82.0874176  61.8668518  65.3567200  67.8284302
  62.6138229  64.8257751  67.5520782  61.3628769  65.4967422  67.0267868
  10.2543201  57.0314064  15.2215261   9.4085741  57.3955040  15.4830208
  10.2008438  56.9621010  14.2683372  64.1959534   0.5216799  21.6905193
  63.9058723   0.4171896  20.7843380  63.3854485   0.5921483  22.1948452
  32.2590141  19.1156158  79.2462540  32.5102768  19.7686653  79.8994217
  31.8493748  19.6229992  78.5455475  16.6354427  31.4458313  79.4415359
  16.0607204  31.9773655  79.9923553  17.4241867  31.9776115  79.3351288
  38.0135117  47.8245621  57.9034271  38.9510498  48.0143547  57.8683662
  37.9200745  46.9924736  57.4396095   8.4656849  48.4615593  87.2949829
   8.3414459  48.9891853  86.5060501   8.4625216  49.0968590  88.0109558
  84.8267288  71.9794922  84.5149612  84.5073318  71.7525635  83.6416245
  84.8604584  71.1446762  84.9820557  64.0146103  18.0044460  49.7787704
  63.3833847  18.0355453  50.4976730  64.5496216  18.7895126  49.8956680
  12.4649477  67.3776321  55.7640419  13.2871094  67.4793701  56.2435532
  12.1906738  66.4789734  55.9468727  82.1202316  51.1344070  83.4425354
  82.8563995  51.7389107  83.3484192  81.3865128  51.6897240  83.7061920
  57.6292572   8.3034115  23.7107391  58.2922897   7.9414191  24.2986031
  57.6235123   7.7084923  22.9608936   9.1575918  59.5342293  26.1401958
   8.2238560  59.6350060  26.3251648   9.4529076  60.4155159  25.9113770
  29.5212421  67.8616867  22.0553303  29.5370407  68.7651443  21.7395134
  30.1644363  67.8444138  22.7640171  26.9073257  65.0185013  37.7081757
  27.6903248  64.6235199  38.0917549  27.0751629  65.9604111  37.7377853
  46.9849243  54.1442070  67.2820129  47.0018501  54.4391975  66.3715591
  47.8937035  53.9149704  67.4764404  69.3082733  61.5607224  47.9533272
  69.2864685  62.4760208  47.6740646  68.4057007  61.3656502  48.2053947
  77.4665909  67.9538193  22.5296745  78.2026978  68.2381363  21.9878864
  76.7273865  68.4798584  22.2245502  35.0096245   0.9891483  28.7224331
  34.9654236   1.0017636  29.6785297  35.8313217   1.4340254  28.5147648
  50.4450073  53.4445000  49.3179436  49.9157410  53.4329300  48.5204620
  50.3234596  54.3249397  49.6733131  38.5709038  23.8836918  82.4822845
  39.0936165  23.3494034  83.0802307  38.8112183  23.5715675  81.6098938
  42.8355217  57.7854385  26.5020447  43.4364777  58.5208855  26.6212044
  42.3649139  57.7235756  27.3332691  75.5774612  30.3429337  88.0327377
  74.9559937  30.0672169  87.3589478  75.3015518  31.2296906  88.2646179
  43.0679626  50.5863075  49.8670273  42.7118416  50.8545494  49.0200005
  42.8910141  49.6468086  49.9145660   1.3448070  51.3237915  33.7375984
   1.4991608  50.3838882  33.6427994   2.1792111  51.7286301  33.5007248
  54.3557625  69.1580429   6.4433126  53.4723282  69.4464798   6.6726203
  54.4170418  68.2703705   6.7961693  15.2874460  26.5622101  68.5213394
  14.9079981  27.1176949  67.8403931  15.7913227  25.9050941  68.0411987
  47.1876869  44.4746094  62.9823303  46.4900589  43.8217239  63.0396271
  46.7969627  45.2741966  63.3347931  11.0924463  41.3661346   6.9517159
  10.9903393  40.9505348   7.8079171  11.3269243  40.6483307   6.3634896
  11.7734880  61.5776672   6.8106217  12.3128300  61.1367683   7.4670873
  12.0579586  61.2038612   5.9766097  11.9065771   5.5653291  79.4588165
  12.5630922   5.7723203  80.1239243  11.3356409   4.9215035  79.8780441
  42.3024597  39.6704941   1.6692529  42.2577324  40.3677559   2.3235142
  42.8311386  40.0394859   0.9617407  12.3968811  47.2727318  15.2370834
  12.1539717  46.6090622  14.5915060  11.5707455  47.6994019  15.4644270
  81.0158386  49.7131386  14.7076006  81.4109116  48.8491211  14.5908804
  80.3488235  49.7659569  14.0231047  23.1361732   1.6871120  23.9565830
  23.6466179   2.3954220  24.3489799  22.2636642   1.7803376  24.3390350
  83.1826553  24.8395767  70.8588333  83.8917923  24.5661259  70.2769623
  82.7059021  25.5030079  70.3600388  60.9234772  35.3564377  67.2900696
  60.0274048  35.5634155  67.0246429  61.4589310  36.0307579  66.8719635
  71.8358536  32.2837791   9.4156647  70.9949646  31.9045429   9.1600933
  72.2439041  31.6138554   9.9642324  18.7997875  13.9295063   8.3599491
  18.2227478  14.1333303   9.0959616  18.5952568  13.0207024   8.1397800
  29.6261520  25.0707550  74.1179504  29.0085487  25.7042046  74.4833832
  29.1944504  24.7430840  73.3289719  30.6421700  60.0186195   0.2004420
  29.9578056  59.3945923   0.4422458  30.2511024  60.5445709  -0.4971773
  67.4331207  53.3846397  82.7166138  67.2517929  53.6817436  83.6082840
  68.3838120  53.2767715  82.6887665  26.8793602  69.8174438  42.7437859
  26.1144295  69.2720108  42.9271355  27.6051750  69.1970901  42.6760368
  81.7967682  14.6844921  32.3035126  81.3897171  15.5118294  32.5605164
  82.4026642  14.4838943  33.0168724  29.1082554  60.8021736   3.8081987
  30.0057755  60.8640022   3.4812918  28.8376503  61.7110405   3.9384563
  48.2758904  47.9513245  82.4764633  49.0112495  47.8373680  81.8743896
  48.0583076  48.8814659  82.4154510  42.1323853  59.6866074  16.3207645
  42.4073982  60.2790146  17.0205193  41.8250465  60.2659073  15.6234932
  46.1492119  50.0561256  88.9216232  46.6877747  49.5265465  89.5096130
  45.8290634  49.4360390  88.2664719  80.6269836  56.9804306   6.9771280
  80.5731888  56.0660934   7.2552099  81.5491791  57.2110519   7.0893812
   1.5108305  10.8399992  74.0895309   1.1447726  10.1552267  73.5297775
   1.8289000  10.3731270  74.8622513  25.1600285  47.5920219  68.7678680
  25.6733303  46.8059998  68.5809937  24.2910728  47.4000549  68.4153137
  44.1697769  63.9010201  20.1576786  43.4594116  63.2833519  19.9841900
  44.5959053  64.0205002  19.3089333   1.9882787  63.7010117  34.1503792
   2.5259717  64.2810516  34.6895180   1.7570605  64.2298584  33.3867760
   3.1958163  32.0777740  54.8470039   2.3529179  32.5180511  54.7378731
   3.5624359  32.4569283  55.6457939  26.7238312  14.4330816  80.6524582
  26.0104618  15.0358114  80.4425735  26.6174469  14.2519999  81.5863342
  36.8713913  17.1872787  12.5573139  37.5759048  17.8253441  12.4443331
  37.0966415  16.4735947  11.9605312  62.3054695  20.4895935  33.0544891
  61.8577232  19.8469677  32.5042267  62.4669228  20.0288563  33.8778267
  62.6708527  30.6841316   0.0144060  61.8276558  31.1334457   0.0723972
  62.7220650  30.1662979   0.8178102   4.0426531  60.2592506  14.5483847
   4.8098583  60.3434143  13.9822187   3.4178782  60.8960075  14.2013540
  51.5379982  14.4594955  84.6476593  52.1692009  14.5519838  83.9340363
  50.6903534  14.6440315  84.2430878  44.4825516  38.7422104  68.8022156
  45.2909050  39.2332802  68.6550827  44.7565384  37.8250656  68.8046570
  66.2102432  47.0787621  64.5878754  66.9712372  47.6087914  64.8249130
  66.3680725  46.8264732  63.6781082   4.3363433  25.7919235  52.7702179
   4.3320022  25.5467052  51.8449707   5.0861344  26.3803501  52.8585320
  35.2754211  45.9622879  52.0723915  35.0362549  45.2806816  52.7004395
  35.5583229  45.4822350  51.2940941  12.8331223  43.4053421  69.7229919
  13.3472948  42.6309395  69.9513779  13.3840790  43.8847160  69.1042252
   3.3521523  56.6929779   3.5265896   2.6119287  57.0502052   3.0359883
   3.8212450  57.4633522   3.8470666  30.9191971  45.0581207   2.2851558
  31.7402325  45.1502762   1.8017927  31.1899433  44.8580246   3.1811969
  39.0895805  43.2230644  21.1547260  39.3200455  42.5963860  21.8405762
  38.7896461  43.9982109  21.6295128  86.3643494   4.2054968  63.2368698
  87.0431519   3.5357583  63.1537781  85.7945251   4.0640602  62.4808769
  27.6216927   3.4286163   9.1020002  27.1929016   2.9213839   8.4127359
  26.9671669   3.4882751   9.7978945   8.2981129  33.8140144  60.5098648
   9.1902685  33.4671974  60.5071106   7.7686009  33.1099548  60.8842354
  18.5174942  61.8093185  13.9948206  18.5058823  62.2188148  14.8599281
  19.1452141  61.0914917  14.0780201  27.8578682  44.2868919  85.4843750
  27.3732872  44.4700089  84.6794586  28.1438808  43.3782768  85.3902969
  40.8500862  27.4767456   0.8558124  41.0258064  28.0651207   1.5900952
  41.5378113  27.6749306   0.2202083  23.5667839  34.5621834  75.0417557
  23.3197765  34.3137703  75.9325485  23.0349789  35.3352242  74.8525009
   3.7361813   2.5017395  17.1510620   3.8832710   3.2709663  16.6007099
   4.5993519   2.0958006  17.2309475  43.5692291   8.1064739  11.2792549
  43.0324631   8.2125244  10.4938459  44.0971069   7.3271990  11.1051683
  82.0996933  33.9841728  66.8294601  81.8037567  33.6183891  67.6630402
  81.3264847  33.9526558  66.2660904  79.6447372  40.6105461  54.9673615
  80.2780609  41.1794853  54.5298195  79.7835083  39.7496071  54.5727005
  60.1435776  55.3586578  74.5784912  59.9356537  55.0192413  75.4490051
  59.9472008  54.6334190  73.9854507  75.7324295  54.7980156  26.7542992
  76.5731125  54.5005531  27.1021519  75.9528122  55.2212372  25.9245129
  72.5091629  50.5881386  56.4505043  72.3189774  49.9030952  55.8095818
  73.3356400  50.3185501  56.8511086  74.8548050  67.1473236  50.9773407
  74.6781693  67.7958145  51.6588821  74.2047729  67.3298340  50.2988319
  35.3191948  12.4275427   0.0139777  35.4389992  13.2930450   0.4048544
  36.0030212  11.8884735   0.4114899  80.1322708   9.9645128  46.0467377
  80.4975128   9.0800600  46.0227814  79.8564453  10.0852089  46.9553528
  69.2498169   0.6475816   2.3983784  69.3927231  -0.2595711   2.1284091
  70.0623016   1.0973411   2.1663880  62.0395088  46.1640053  10.3157148
  61.4592896  45.5708694  10.7929649  61.6439209  47.0283012  10.4285641
  65.8387299   7.7393537   4.0664058  65.8257370   8.4347229   4.7240720
  64.9161377   7.5294852   3.9214778  16.5727024  66.8411102  59.2137718
  16.8787003  66.1191330  59.7627258  16.8300667  66.5926590  58.3259239
   0.6207638   7.4097471  42.6438065   1.1222883   6.6326737  42.8905067
   0.0304968   7.1050234  41.9546318  22.8566532   3.8432660  21.8692436
  22.7934246   2.9529483  22.2150307  22.6037788   4.4036670  22.6028900
  74.2335052  42.2346840  15.9006472  75.1589432  42.3457794  16.1184750
  73.7656174  42.6626587  16.6176910  39.2019081  46.5012894  53.1564217
  39.9683914  47.0741234  53.1320572  39.5107727  45.7062683  53.5909081
  53.8694763  48.3214226  76.8137131  54.6182594  47.8240051  76.4848709
  53.1316605  47.7151833  76.7478790  77.9890747  58.2049904  22.3629875
  77.8998184  59.0395203  22.8232346  78.8876801  57.9278412  22.5416679
  54.9849358  17.4596882  55.0677643  54.1160851  17.5028610  55.4670944
  54.9414711  18.0715408  54.3329315  67.2154999  62.9848900  88.8200836
  66.6523438  63.7349472  88.6290359  68.1046143  63.3118782  88.6830215
  46.9904404  63.3087387  10.6704092  46.3444595  63.4432831  11.3638353
  46.5695229  63.6501579   9.8814268  65.3022461  44.7316780  53.1531754
  65.2544479  44.1226501  52.4162674  65.4900742  44.1771278  53.9104233
  59.2572556  49.4592590  52.2578087  59.9727592  49.0211983  52.7186661
  59.4056816  50.3915443  52.4160728  24.2075939  68.9857330  36.9281769
  23.4686699  68.5472488  36.5063324  23.8190880  69.4499054  37.6696930
  65.9937744  60.6833725  80.8527985  65.8435440  61.6123123  80.6774826
  65.2830353  60.2351189  80.3943863  73.1721420  63.7999268  11.0451460
  72.6031952  64.4993439  11.3666162  73.5064011  64.1277695  10.2102680
   1.3173283  71.0720291  23.0193176   2.0647547  70.8318787  22.4716740
   0.5593702  70.9863586  22.4410515  38.8529205   3.8399568   3.7335014
  39.5787849   4.1307135   4.2856011  39.1585274   3.0182917   3.3491795
  20.9222698  53.5843925  79.2269135  21.3187008  53.4751244  80.0912857
  20.8386173  54.5318947  79.1198196  58.3693237  39.1478233  70.7743759
  58.9291573  39.5192947  70.0925903  58.5970726  38.2182617  70.7911758
  74.6255417   8.9265022  86.1840439  74.2948456   8.8019142  87.0736237
  75.5242538   8.5984316  86.2144699  52.5476303  42.2727165  70.7614899
  51.8562851  42.3919983  70.1103058  53.3170891  42.0213852  70.2506104
  11.5685005  44.8878326  17.4787197  10.9799156  45.4715500  17.9573383
  11.3018494  44.0079155  17.7449322  27.2647591  66.0746994  80.7025909
  26.5772839  66.5798340  80.2684860  26.8465424  65.7295303  81.4913788
  21.8353195  29.4747753  68.2334824  22.0455780  30.2487202  67.7109528
  21.8137283  29.7935925  69.1357651  22.1756916  30.6366520  78.5648499
  21.3702545  30.2174416  78.2619247  21.9980125  30.8657112  79.4770966
   6.9373240  39.6695366  28.2997093   7.6200190  39.0325584  28.0889511
   7.3686213  40.3013382  28.8750725  10.7633266   8.6189718  64.3244324
  11.2373190   8.0037289  63.7649307  10.1386881   9.0445061  63.7370834
  16.2734051  67.2022018  47.3489647  15.6979761  66.4373322  47.3583183
  15.9746599  67.7357025  48.0854187  73.8236084  62.6812592  23.9678974
  73.6502228  62.6987572  23.0266953  73.6126633  61.7862282  24.2337017
  36.4200363  48.0760994  86.8654861  36.6161575  48.0589333  85.9287491
  37.2714157  48.1956940  87.2862930  57.8987923  38.8045692  26.2971497
  57.3114128  39.0006523  25.5672379  58.2137299  37.9182510  26.1197071
  20.5615559  27.5657215   5.7648449  20.6861725  28.4813786   6.0143952
  21.4242992  27.2797451   5.4646392  39.5985107  69.9299393   3.2220600
  39.3012123  70.4925537   2.5069940  39.7128639  69.0696487   2.8182611
  47.6145630  25.5656700  53.9953041  46.6759224  25.5870552  53.8089600
  47.6678391  25.4511776  54.9441376   5.1144800   7.3089008  17.1528683
   5.3390794   8.2378225  17.2066422   4.1638465   7.2856088  17.2623444
  85.8049850  19.1084175  87.0875015  85.5896072  18.6155968  86.2956848
  85.3375244  18.6529388  87.7876816   7.0883274  66.1898880  60.0409508
   7.0826697  65.2357407  60.1171455   7.5871015  66.4879608  60.8016129
  43.5124283  67.3187180  85.6229935  44.1170158  67.5223541  84.9093857
  43.5918198  68.0601959  86.2231064  22.5419197  10.6927395  71.9380264
  22.4574509  10.6272907  72.8892441  23.3708992  11.1516228  71.8022003
  31.5772858  14.2753496  15.2607870  31.6559582  15.2258663  15.3417778
  32.4026299  13.9998322  14.8618784  48.7060356   8.5329065  88.1750870
  49.4228897   7.8998413  88.1353531  48.4668961   8.5661249  89.1013336
  60.7913246  51.2821159   3.3556931  61.2642784  52.1114922   3.4241056
  60.2023315  51.4030037   2.6109054  39.2380791   3.6412704  43.1923370
  39.7237358   4.0543437  42.4783783  38.3770065   4.0587063  43.1692352
  69.6516953  27.9967422  72.2126007  69.9001465  28.0653038  71.2907562
  69.0343170  27.2657871  72.2405396  86.6831665  33.9526978  21.8412094
  86.1957550  34.4558525  22.4935131  86.2491837  33.0997200  21.8234158
  57.4998665   0.4314779  54.0902290  58.2206802   0.4558075  54.7195663
  57.9054718   0.1432473  53.2725220  30.6890106  68.0052490  19.0304222
  31.2351265  68.5812836  18.4954700  30.4559212  68.5357742  19.7922935
  54.2393074  60.4039764  41.5701790  53.5797653  60.9315262  41.1197014
  55.0759315  60.7501373  41.2595940  29.2612667   2.3467731  86.9400864
  30.1183491   1.9377832  86.8202209  28.8331680   1.8138257  87.6101151
  22.5782356  49.0656090  33.6682854  22.7882614  49.6364822  32.9292145
  21.6218777  49.0262604  33.6763191   6.3233838  27.3181896  67.3298874
   5.8173537  27.4578800  68.1302948   6.9612288  28.0318604  67.3221664
   3.3020551  58.3469505  88.5215836   3.3437638  58.0716629  89.4373932
   2.3711109  58.4996567  88.3595505  43.7800331  37.9074974  83.9065933
  42.8264809  37.9743843  83.8566513  43.9379044  37.1251068  84.4349594
  25.1499691  41.7279816  40.6944084  25.1668625  41.0278168  40.0419388
  24.6538963  42.4322815  40.2771568   2.0573165  16.9726238  44.9215279
   2.8293910  17.5011940  44.7196732   1.3165115  17.5471172  44.7281456
  44.2612000  25.9474449   4.0274167  44.3933296  25.3600483   4.7715535
  45.1459465  26.1828232   3.7480323  53.7959709  24.7826710  11.1770849
  53.5252228  24.7737293  10.2590170  52.9807205  24.8940868  11.6661472
  43.3168182  54.7110786  15.0330877  43.4445457  54.3845177  14.1424274
  42.9259758  55.5770912  14.9169207  58.1648483  71.0148239  13.1900816
  58.9305038  70.5057678  12.9238720  58.4955940  71.9066620  13.2971630
  63.0757332  22.2410183  86.4233017  63.4247360  21.5740509  87.0145645
  63.8491592  22.7039871  86.1012726   7.6625509   2.1512787  30.1142998
   6.9762635   2.0868471  29.4501553   7.2014756   2.4160244  30.9102592
  48.4624863  51.6171494  36.3872147  48.1223793  51.7452202  37.2727394
  49.3809128  51.8810120  36.4428940  33.2205811  24.1024227  83.3566513
  33.1011543  24.9252167  83.8309708  34.1684761  23.9701729  83.3413849
  55.1143684  49.9374199  19.5810890  55.6153641  49.3733482  20.1702061
  54.2200356  49.5996361  19.6290627  15.1403513  21.4251175  84.4150009
  14.8227072  21.0877399  83.5774384  16.0759392  21.5711613  84.2750778
   5.5770745   8.4764757  68.0751495   6.3219366   8.0765848  68.5240326
   5.9405074   9.2567749  67.6564865  28.5169525  59.7337036  30.8964672
  27.9886856  60.1781654  30.2334270  29.2260056  60.3473320  31.0886517
  62.3358879  67.3377457   9.9852991  62.8085175  66.5679321   9.6687126
  61.4475098  67.0220947  10.1507597  37.7260742   1.7771660  35.2630692
  38.2190170   2.5170760  34.9084244  38.3926468   1.1215416  35.4681740
  20.5496731  42.3481979  72.7453918  21.2790699  42.8036118  72.3249054
  20.4141140  41.5668983  72.2092667  84.5100021  57.0371590  63.8371201
  84.2560654  57.9532433  63.7251511  83.7504120  56.6268692  64.2505417
   5.6972032  16.9108562  64.9438477   5.8887916  17.4546871  65.7079010
   6.5414162  16.5286579  64.7041397  43.2053070  66.6794739  72.2418976
  43.7861671  67.0075150  72.9283524  43.6444054  65.8960342  71.9107590
   5.4958959  68.0674362  38.5644112   5.7352328  68.8079453  38.0070953
   5.8173146  67.2990036  38.0927849  64.0483475  65.2550812   9.0672913
  64.6835480  64.8744583   9.6738234  63.2279701  64.8032532   9.2649145
  83.3742752  29.4722042  77.4515381  84.1312256  29.5502243  78.0321960
  83.7250290  29.0793304  76.6522522  59.6446762  26.3940277  30.6590824
  59.5862694  26.5647926  31.5991154  59.7713585  25.4474125  30.5950298
  21.1007347  51.7376709  23.4052448  21.9937305  51.4005013  23.4766903
  21.2109051  52.6635742  23.1889095  56.3969994  60.4988441  67.1033020
  55.9656410  61.1985741  66.6128540  57.2058449  60.8960838  67.4261017
  62.4483070  13.4737301  41.6366692  61.5432892  13.7765026  41.7108841
  62.8799782  13.8148441  42.4199486  10.9996901   5.7542224   9.2644033
  11.0689678   5.5771689  10.2025318  10.7872639   6.6860571   9.2115755
  55.1377296  23.0510921  66.3157883  55.5454865  22.8964462  67.1678696
  54.7682457  23.9315186  66.3833313  43.4235229  29.1333809   3.0558102
  42.6072235  29.4657478   2.6824234  43.2245941  28.9954052   3.9818892
  46.2673149  47.0187416  36.6888008  45.9292641  47.9089317  36.7863426
  47.0029716  47.1069679  36.0827827  42.3357964  55.7488441  76.8755875
  42.7113991  55.5405159  76.0201645  41.5909233  56.3166962  76.6782379
  48.3792877  42.1342163  40.6569595  48.8449783  41.3503914  40.3654404
  47.6625977  41.8002548  41.1964569   7.2065210  28.5812073  18.6942692
   6.4426260  29.1466084  18.5801678   7.7798872  29.0695934  19.2849998
  14.4214983  58.0987206  20.2081375  14.2323132  59.0339737  20.2838974
  13.6721029  57.6686325  20.6200409  78.9387970  16.9380970  65.2396317
  79.1288528  17.5500050  65.9507370  79.1927032  17.4078064  64.4451904
  41.9806938  45.9617538  27.0173016  41.2167702  46.4999352  27.2247105
  42.2285728  45.5656624  27.8527050  38.1826744   2.4878237  47.5866203
  37.4350014   2.0284390  47.2042809  37.8212204   3.3190000  47.8944054
  43.4737701  66.3830109  50.4601669  43.7068138  67.3106155  50.4219971
  43.0166817  66.2167664  49.6357498  15.7895155  36.2430649   4.9497352
  15.8258457  36.1478615   5.9014955  16.7020550  36.1800537   4.6677179
  81.9268265  42.5003891  47.3802185  82.2772369  41.8136787  46.8128815
  81.5784607  43.1558151  46.7758255  33.1350136   0.3917232  47.4439354
  33.5569382   0.1720949  48.2745819  33.4172935   1.2879798  47.2615242
  15.6174116  54.5649948  21.1575508  15.0960236  54.9951477  20.4797916
  15.0064154  53.9647446  21.5848827  54.6943855   8.2435646  44.9965477
  54.6674347   7.6194692  45.7218132  55.5760880   8.1528578  44.6351509
  41.2778931  65.3571701  20.0998764  41.7630081  65.9063492  19.4840088
  41.9552841  64.8943176  20.5929737  83.4355316  25.8002396  75.3988419
  83.3713684  24.9381008  74.9879532  83.8744278  25.6357346  76.2334290
  83.9953232  52.5248413  68.8703842  84.6054306  52.8242950  68.1963501
  84.4448013  51.7924042  69.2919693  73.2051849   1.4351507  41.7780495
  74.0615005   1.2094184  41.4147263  73.4018250   2.0237992  42.5067902
  85.9803238  46.5497932  36.2083588  86.8101654  46.4996109  36.6827850
  85.9551773  45.7491150  35.6844177  58.6874237  20.4046707  27.5370693
  58.6497192  21.3313046  27.7740479  57.8598709  20.2390842  27.0854416
  64.3474808  45.8056755  66.3392944  65.2404327  46.1493378  66.3116684
  63.9447708  46.2451439  67.0882416  34.1307259   5.3189192  39.8209114
  34.0959053   5.2399011  40.7742081  34.3165855   6.2446890  39.6639442
  67.4137573  31.5947609  16.3110523  67.5727692  32.4730377  16.6568546
  68.2236023  31.1167736  16.4896908   2.4967866  11.9882984  76.6122742
   2.8928299  12.2178497  75.7716293   3.2095933  12.0767899  77.2449722
  54.6669922  65.5073547  80.2916336  53.7590218  65.6711655  80.5465546
  54.7983131  66.0478897  79.5126648  63.7679977  40.9149094  70.7179337
  64.6663742  41.0385399  71.0243225  63.4674683  40.1260567  71.1691818
  46.3476715   2.7932110  48.8634033  45.8169136   3.0002768  48.0942154
  45.7457123   2.8860669  49.6018181  50.6231422  33.4785957  46.7851677
  50.6507988  33.2125435  47.7042351  50.9944878  32.7356033  46.3094597
   6.8550134  48.7528267  53.8953362   7.6851101  49.0080299  54.2978821
   6.1860070  49.0982475  54.4863892  71.1819687  55.4225731  11.4708042
  71.8333969  55.5207253  10.7763643  71.6930313  55.1995392  12.2488184
  47.8707390   6.4676437  82.8595047  48.7908401   6.6026154  82.6327286
  47.5368767   5.8907385  82.1725235  55.3977089  16.0803776  20.7407436
  55.2492905  15.1428890  20.8645039  54.5966110  16.3966103  20.3230457
  55.3974724  16.5189514  73.3211899  54.7798958  17.0305290  73.8438034
  56.1337051  17.1121540  73.1718445  21.9421406  45.7045059  37.8618736
  22.7212086  45.7059555  37.3057442  21.9910793  46.5294914  38.3448219
  27.7537403  56.7470627  48.4011459  27.4978428  56.4493027  47.5281677
  28.6914711  56.9247780  48.3282700  31.2147026  35.1163483  78.3236084
  30.4756012  34.7328644  77.8514862  31.8746548  34.4231987  78.3390656
  66.4910889  57.6041794  20.6608276  66.5287552  56.7568054  20.2172394
  67.0393143  57.4925232  21.4374962  59.3948364  61.2123566  49.3046074
  58.7211609  61.4481888  48.6668167  59.4034233  61.9415550  49.9246292
  70.6455078  22.4032059  15.9609728  70.9643173  23.2259197  15.5898514
  70.3471603  21.8987637  15.2041645  57.4821243  18.2604942  72.9213943
  58.1757088  17.9614964  73.5094147  57.9198036  18.8662090  72.3232498
  58.8898239   3.6452298  50.5233688  58.1437836   3.1185505  50.8101845
  58.7414627   3.7810495  49.5875397   3.0154991  33.1660385  67.9668045
   2.1047978  32.9383354  67.7797012   3.0745320  33.1518478  68.9220734
  18.1953373  46.6908798  34.2047615  17.7665367  46.6186867  33.3520317
  18.6861210  45.8741531  34.2959709  59.2091980  29.9528542  44.3585281
  58.6875725  29.4468117  43.7355843  60.0391769  30.1061668  43.9070244
  58.0754013  41.3431320  27.6713791  57.8452530  41.9111748  26.9361324
  58.3184547  40.5114670  27.2645741  48.2993011  47.8091354  68.7489319
  48.4858208  48.7478676  68.7341614  47.3436890  47.7549438  68.7590027
   0.2069371  31.9983521  75.3516083   0.8277485  31.5081844  75.8906479
  -0.6459606  31.8230801  75.7491989  14.7834225  65.0110703  47.2036934
  15.5910587  64.4987335  47.2420044  14.3836136  64.7659073  46.3692627
  41.5125389  37.2981529  79.1550293  42.2053299  36.9807510  78.5757751
  41.7067223  38.2279167  79.2735901   2.8724883  69.4607773  58.6253014
   3.5951800  69.2884598  58.0217667   2.4829412  68.6009903  58.7841873
  42.7382584  56.9594765  11.6991940  42.0765114  57.6443481  11.6028938
  43.1944542  56.9472084  10.8577871  49.7569427  32.7375946  39.2080154
  49.2329788  32.0317230  39.5867500  49.1149940  33.3950844  38.9399872
  30.3205547  51.8726768  30.7207489  30.3346233  52.1833496  29.8154774
  30.1950397  52.6644592  31.2437744  71.5698929  67.1001434  62.9977150
  72.1124954  67.2564468  62.2248077  71.7328720  67.8562164  63.5616531
  84.5095673  70.2946472  28.7591228  83.7005768  69.9171295  29.1044464
  84.2300415  71.0959702  28.3164215  11.2759190  35.1120148  32.4337997
  10.8983850  35.6615868  31.7470169  10.5539932  34.5496063  32.7144241
  71.2116547  51.6618729  78.1279602  71.9397202  51.4472198  78.7111130
  70.4294281  51.5359344  78.6650696  13.8792467  32.6977730  63.3475494
  13.1028233  33.1793518  63.0620995  14.5943480  33.0678215  62.8299332
  74.4860001  14.4470987  64.7512970  75.4385986  14.4341698  64.6584549
  74.1568832  14.3308640  63.8600044  81.9175262  11.2035084  31.2103043
  81.6704407  11.8986406  30.6004124  81.7212601  10.3924723  30.7413349
  14.2021561  71.3358002  27.5282173  14.1388502  70.8252182  28.3353901
  14.0055351  72.2333450  27.7965164  80.1355667  27.3204060  48.0997505
  80.7273941  26.6114750  47.8479805  80.6764374  28.1091805  48.0607376
  52.3741570   6.6816287   2.9326184  51.9004440   7.0578022   3.6744554
  53.0078773   7.3554816   2.6865480  50.8414154  64.2782364  75.5674362
  51.1840439  64.5125275  74.7049179  50.5155945  63.3845062  75.4610443
  53.8667755  63.9085388  36.5098000  53.0788383  63.4273605  36.2570992
  53.6901093  64.8120041  36.2475662  72.6854019  16.7748051  24.6381969
  72.7380295  17.1025677  25.5359917  73.3361130  16.0738106  24.6006088
  50.1605797  68.7078476  62.6084976  50.1326294  68.1974258  61.7992249
  49.2779579  69.0680008  62.6951141  55.6440887  65.3649216  86.7894669
  55.9257393  64.8534775  86.0309601  56.4136963  65.3940048  87.3578796
  78.8248367  51.9555397  13.8396530  79.5570908  52.5143814  14.0999098
  78.7084274  51.3549728  14.5758610   5.9864779   6.3691320  22.7495461
   5.2304859   5.8681755  23.0557346   6.0807219   6.1222453  21.8295479
  26.4954224  64.5391464  31.6673660  26.0105801  63.9564972  31.0828285
  26.1029606  64.3953018  32.5284805  67.7432785  54.8903427  31.4805222
  68.0229950  55.6233788  32.0288353  67.9253464  54.1130676  32.0086555
  51.3480988  56.9468765  50.5135612  51.4256935  57.8928223  50.6376381
  52.2496529  56.6266556  50.5433502  24.9088192  42.2074738  12.8694105
  25.0709763  42.0613632  13.8013916  24.1001492  41.7281723  12.6889791
  52.9499550  46.8454285  31.7734070  52.4518852  46.3353729  32.4121552
  52.3203773  47.0404015  31.0792542  71.8466492  14.6393614  73.5019531
  72.1885681  15.3299990  74.0697021  72.5537491  14.4688377  72.8797302
  74.7958603  21.3436680  55.2884216  75.3866959  21.7830791  55.9000359
  74.5973282  22.0077477  54.6282616  60.4433441  18.3170929  54.8285255
  61.3464394  18.4842167  54.5588493  59.9103088  18.7148285  54.1401138
  60.4692001  16.2503281  45.8496399  60.2356186  15.9031258  44.9887543
  60.4540749  17.2007275  45.7367477  79.5061646  29.8498478  15.9929657
  79.2760696  29.9330444  15.0675659  78.9987030  29.0982742  16.2993183
   1.1370102  26.2100677  54.0931511   1.8608660  26.8316288  54.1701317
   1.5101079  25.3726368  54.3683586  69.7562180  44.9553337  57.4803696
  69.5895844  44.0269470  57.6433411  69.2465973  45.1559410  56.6953392
  79.7603912   2.5024815  18.5504093  79.4351120   1.6073178  18.4549618
  79.9634933   2.7800374  17.6571312  39.0635338  32.0638924  84.4951477
  39.2812653  31.2500114  84.0408096  39.8572960  32.5947609  84.4291687
  70.9319229  49.8427162  16.9353504  71.0650635  50.7433701  17.2308617
  71.3705292  49.3065758  17.5959644  72.2920837  44.6422882   1.0475630
  71.7050247  44.8603401   0.3236486  71.7871399  44.8454971   1.8349466
  63.6308975  60.5494423   6.3730516  62.8275375  60.2625771   5.9388242
  63.3659935  61.3120728   6.8872986   4.9410467  35.4094696  66.8633347
   4.5534825  34.5945892  67.1827087   5.3829122  35.7800751  67.6272964
  70.8460541   9.6187868  52.6270981  70.6376419  10.1951113  51.8918114
  71.2420197   8.8472462  52.2219200  30.4586296  36.8478127  65.2924957
  30.9705696  36.0426445  65.3690109  30.4938393  37.2379303  66.1658859
   9.2454166  46.3515701  56.6720810   9.7895508  46.2611809  55.8897896
   8.5435858  45.7120590  56.5508652  67.3556976  63.2070732  38.8501129
  68.2336426  63.5217705  38.6346703  67.4948502  62.5702171  39.5510330
  45.0124016  31.2665710   2.1283576  44.6755333  30.4040165   2.3707442
  44.6505127  31.4288921   1.2571959  80.7474899  35.4898453  18.1382542
  79.9545670  35.4048195  18.6676598  81.0925064  34.5989647  18.0788727
  48.6261826  68.9667206  89.0586472  48.2431259  69.8401718  89.1397324
  48.6112976  68.7849426  88.1189804  18.2759266   8.6827316   5.2343640
  18.0228424   9.0212822   4.3755488  17.4509525   8.4134607   5.6382756
  71.8179169  21.2018318  65.2223358  72.3530197  20.5385303  64.7865295
  71.9613190  21.9986515  64.7117081  79.0792313  11.4917679   6.2586837
  78.7288361  12.3824825   6.2498918  79.5185623  11.3988638   5.4133487
  84.1369019  30.7041607  11.3709917  84.0990295  31.6556530  11.4682465
  84.4013367  30.3855267  12.2339964  73.8955612  22.0192223  13.0526810
  74.0028687  22.9613419  12.9218063  72.9516220  21.8743649  12.9876938
  65.2914124  68.1899261  72.1747742  65.6092529  68.9765854  71.7316360
  64.9186859  67.6545105  71.4743118  16.1296234  52.6389961  72.4706879
  15.6520576  52.4556236  73.2797165  15.4921350  53.0832748  71.9117050
  27.7242451  69.8764038  33.1679039  27.7498741  70.3456268  34.0018158
  26.9771156  69.2836380  33.2494812  29.3623104  26.1116848   4.7734737
  29.4320393  26.2355347   3.8268847  28.6386814  26.6802597   5.0367556
  45.5505638  64.8870773  74.5046082  45.5876808  64.0412140  74.0580826
  44.8032455  64.8120728  75.0979996   8.2267942   9.6498699   1.9306958
   8.8530188   9.2588100   2.5399137   8.1245880   8.9956436   1.2394840
  18.7076206  27.4726200  86.1206589  18.9672413  26.6515160  85.7027817
  19.3441944  27.5946484  86.8250122  30.7424068   2.1348076   7.9965591
  30.0370235   2.6984165   7.6787391  31.5398731   2.6436119   7.8502746
  72.0437393  68.4841919   5.8502564  72.4912262  69.1206589   5.2926722
  71.1240768  68.5440292   5.5916510  65.9982529  24.5161304  51.2845345
  66.4289932  25.3410912  51.5084381  66.7011566  23.9643097  50.9415321
  12.0990305  65.2485275  31.3528442  13.0290384  65.4026794  31.5188351
  11.7658510  64.8870163  32.1741447  11.9903746  46.4757042  63.4664268
  12.4737787  46.0622559  62.7511559  11.4966593  47.1799126  63.0462227
  51.7369499  37.5332642  81.1645966  51.5612335  38.4653435  81.0358353
  51.9283524  37.2021599  80.2871170  35.9070358  50.0830574  79.2138214
  35.9111595  49.5520935  78.4173965  35.1000824  50.5946808  79.1564178
  76.6223526   3.5584688  56.3992233  76.2210083   2.9098248  55.8209381
  77.5214462   3.6393840  56.0809250  66.0598602  12.4986649  21.4120693
  65.5613937  12.4160662  22.2250500  66.8247833  13.0216093  21.6521988
  58.3212204  60.2063446  71.4637527  58.6528397  59.3200226  71.3198929
  57.8064346  60.1418343  72.2681580   9.9445581  -0.1355455  54.6593666
  10.0648088   0.7718057  54.9395218   9.4139528  -0.5313666  55.3507538
  21.5585289  35.5543938   8.3016396  22.1574821  36.0853996   8.8265390
  20.6923885  35.9181900   8.4851780  70.7690887  50.9725304  40.8730774
  70.6055298  50.6778984  41.7689972  71.7056580  50.8262978  40.7400780
  58.2246933  14.3199015  75.4348755  57.3683281  14.3183308  75.0072479
  58.6710892  15.0859976  75.0742340  77.0757904  39.7754135  49.9551506
  76.9415054  39.0907021  50.6104164  77.9825745  39.6604462  49.6709709
  62.4740601  56.9892654  74.2981567  61.6818657  56.5279884  74.0226822
  63.1883545  56.5110054  73.8771057  27.1690769   8.5279551  31.9568081
  27.0681992   7.5943780  31.7710934  27.4790134   8.5599947  32.8618736
  25.0988693  10.2227697   0.5612118  25.4623871  10.5450335   1.3859743
  24.5991211   9.4444609   0.8076195  38.3476639  39.2076912  63.7016792
  39.0007896  38.5115891  63.6302490  37.8351631  38.9766808  64.4764099
  85.2321243   6.7289381  21.2555637  84.3719482   6.3410535  21.4164410
  85.1164780   7.2457337  20.4582043  56.7508240  23.1737061  68.8580627
  57.4660301  23.8087292  68.8962326  57.1867638  22.3215427  68.8605118
  22.4607487  57.3052635  26.6389427  21.8955936  57.7592163  26.0138340
  22.7152538  57.9815483  27.2667160  47.3909416  69.2585602  12.4638176
  48.2234535  68.8128281  12.6202860  47.5323639  69.7538147  11.6570015
  70.5447235  10.3718662  87.0722580  70.6759567   9.4485006  86.8568420
  70.4312134  10.3822956  88.0226517  20.8550110  25.8933277  23.1654053
  20.7293968  25.5356750  22.2864647  21.6514511  25.4693031  23.4849625
  70.1217117  51.2292061  38.2389107  70.4373093  52.1297379  38.1635742
  70.2634811  51.0018158  39.1578369   0.6019887  42.5672379  82.9612350
   1.2521456  41.9738350  82.5852127  -0.2201634  42.3216362  82.5370026
  69.6997528  43.9211273  80.4518509  69.0592575  44.5422897  80.7984924
  70.5306091  44.1900520  80.8437500  17.0225182  35.5470543  22.7255268
  16.5527668  36.0099716  23.4192638  17.7258549  36.1449280  22.4723549
  28.4020481  68.4255981  58.0418625  28.2527905  67.9472351  58.8574142
  28.4114876  69.3465347  58.3026543  85.7302704  65.0937729  14.1474142
  86.3292923  64.3707962  13.9611206  85.0191574  64.9843674  13.5160761
  70.1650543  24.9429970  22.6182327  70.3901596  25.7168083  23.1347332
  70.6756592  24.2354679  23.0118313  31.6209431  15.0916166  66.0291672
  32.1587029  14.6479473  65.3732681  30.7979202  14.6029072  66.0345001
  22.0616074  47.6493492  30.0983925  21.7133694  47.9738960  30.9288311
  22.0885086  46.6985092  30.2052040  79.5637665  71.0852966  18.9132729
  80.4551468  71.0315628  19.2579193  79.6753616  71.1072311  17.9628544
  61.5951729  40.2595787  22.7089272  61.3634949  41.0960197  22.3052902
  62.5446358  40.1979637  22.6042709  79.3395157  23.4716415  26.8990364
  79.8510056  23.3517189  26.0988922  79.6233826  22.7606239  27.4735851
  40.8947716  54.9156303  39.6027184  40.1114159  55.2448654  39.1620522
  40.7501793  55.1136665  40.5279770  32.8874588  49.9676056   6.4277005
  33.1513519  49.2954216   5.7994022  33.1386375  50.7936249   6.0143762
   4.6077280  23.9345512  14.1595936   4.4376073  23.7140675  13.2438002
   4.3776526  23.1414471  14.6436205  83.6847076   5.2046576  76.5395050
  83.3693237   5.8491983  75.9059982  84.5538177   5.5190439  76.7885818
  80.7606583  22.0395565  24.6457367  81.6411972  22.3511543  24.8549690
  80.7349548  21.1462212  24.9885578  74.5624390  66.5916595  81.0013885
  74.3338242  67.4547195  80.6562805  75.3385544  66.7468719  81.5397110
  56.1428719  62.4053497  57.2182236  56.1630249  63.3619919  57.1924744
  55.7746201  62.1506844  56.3721924  51.0642281  11.9339027  30.6736889
  50.1429787  12.1927195  30.6503639  51.4209824  12.3868208  31.4377728
  72.7994614  40.4491959  49.5640030  71.9815292  40.0058327  49.7890358
  73.2141418  39.8746376  48.9204521  37.7129517  17.8477802  77.7824173
  38.1590233  17.4249420  77.0486221  37.3985176  17.1222229  78.3218002
  47.1788673  29.2101898  67.7087936  46.9802933  29.5334034  68.5876236
  47.8848953  28.5773468  67.8402023  39.1142502  37.9822083  88.1791077
  38.2795792  37.9955902  87.7107239  39.7767639  38.0060081  87.4886398
   3.8280289  54.1706810   4.7209773   4.7655034  54.3613434   4.6890106
   3.4082015  54.9870529   4.4498434  31.2982235  39.9897003  71.4593048
  30.5635891  39.3770561  71.4244919  31.0382252  40.7084312  70.8830566
  36.3576508  47.7789116  35.5730286  36.9561386  48.5042648  35.3943901
  36.9289665  47.0192451  35.6858826  63.3425865  26.9580135  17.2891941
  63.6255035  26.0640907  17.0965919  63.7912560  27.1807346  18.1048679
  48.3984222  37.2535362  31.2284088  48.8609200  36.8712311  30.4826393
  47.7705612  36.5805969  31.4914188  83.3820648  13.4778395  41.8222809
  84.2824936  13.5709162  42.1334038  83.0589066  14.3760881  41.7519531
  68.9344025  66.0245819   7.2358618  68.5397186  66.8952942   7.1876755
  69.8464203  66.1879807   7.4761815  53.9585762  64.9512329  53.2196198
  53.8129616  64.0144119  53.3515091  53.8306999  65.3377914  54.0859070
  50.5141907  13.2212343  33.9220581  51.1613007  13.8498220  33.6021271
  49.8148956  13.2439423  33.2688370  36.0949860  44.3753777  36.4061775
  35.8189545  43.4732513  36.5680466  35.9025154  44.8350449  37.2234230
  85.0674286  38.4500122  10.7715111  84.8260269  38.0047188  11.5837116
  85.3169632  39.3320923  11.0470104  21.1936893  45.2008743  35.1159744
  21.2384014  45.0942993  36.0661736  20.3672924  44.7868843  34.8671532
  73.7879257  39.1206207  22.6099815  73.2305527  39.3813515  23.3431911
  74.4603500  38.5660820  23.0056591   3.4355986  35.5090752  17.9577236
   4.0441751  35.7489777  18.6565170   3.7836566  35.9416656  17.1780090
  26.2578487  26.8726215  18.3163738  26.1189442  26.8767986  17.3693142
  26.1978397  27.7932949  18.5713120  73.0492096   3.2541690  33.4485741
  72.7597504   4.1416421  33.6603203  72.5402985   2.6907656  34.0315132
  54.6863136  57.8006973  18.7135887  54.4435081  57.7756195  17.7880344
  54.8010597  56.8818626  18.9560833   2.6082582  49.5087204  46.4756317
   3.2679777  50.1209373  46.8014984   2.1265697  50.0053864  45.8141708
  14.5593491  67.5617905  31.6135540  14.4555264  66.7195282  32.0563126
  15.3411884  67.9460907  32.0101357  79.6045151  22.5336666  22.1015129
  79.6734009  22.2326088  23.0075207  78.9736099  23.2527218  22.1353703
  83.7006760  40.0443726  55.4286194  84.4792099  40.1296158  55.9789429
  83.0473938  40.6030846  55.8496742  36.4747658  30.2854919   8.0656023
  36.5084877  29.6037159   8.7366285  35.7266502  30.8287334   8.3134861
  75.0464859  62.2012138  73.4606628  74.7991562  62.5177040  72.5918121
  75.0131378  61.2474670  73.3866043  27.5080452   4.5381122  24.5310154
  27.8813801   4.0573139  25.2697201  27.0455971   5.2734866  24.9330063
  75.8454742  15.4347086  32.2977180  76.0252228  15.2119675  33.2111244
  75.5831680  14.6062717  31.8963223  74.2077408  18.0962791  43.3576088
  73.5573578  17.4655666  43.0486908  74.9250641  17.5569992  43.6905594
  77.7318649  48.3420906  70.3611221  78.5444870  48.4061966  70.8628922
  77.3587265  49.2228737  70.3959961  14.6878748  53.0977707  80.9719162
  13.9744854  52.5687294  80.6149521  15.2061844  53.3482208  80.2071609
   9.9513197  48.4373360  70.4700546  10.7788477  48.0589447  70.1729813
   9.8183851  49.1973076  69.9034805  20.5388298  21.6702385  75.1515503
  19.6421013  21.3712578  75.0008240  20.5401192  22.5812550  74.8578186
  12.8135891  64.4318924  86.0087662  12.0857201  64.1476288  86.5616150
  12.6069689  64.0819626  85.1421127  63.3820610   9.0714169  55.2807541
  62.8495178   8.2989588  55.0911827  63.2181015   9.2541962  56.2059250
  61.3369331  66.1728745  89.4702988  60.7663269  65.5176163  89.0687027
  61.7483406  66.6183929  88.7296982  67.2155151  17.2369652  87.1777878
  67.1249008  16.3910847  86.7390289  66.3344498  17.6107349  87.1616669
  54.2071686   8.3785706  82.5111847  54.3929062   8.7626572  81.6543274
  53.3823051   7.9085083  82.3892441  78.2949905  13.7498140   1.9919996
  78.6948547  13.4982023   2.8244874  77.3948059  13.9826479   2.2193537
  39.7056046   1.4923708  66.8660431  38.8557129   1.9312657  66.8301468
  39.8013229   1.2302501  67.7816620  80.6770477  42.4979401  69.6618423
  81.5369949  42.2118607  69.3538132  80.8343201  42.8141670  70.5515060
  76.9575195  69.4516144  28.5328712  76.7976761  68.5879211  28.1524506
  77.7664566  69.7503433  28.1174068  54.1706238   5.4820352  22.9339428
  53.8399734   6.2042141  22.3997498  54.3702888   5.8820548  23.7803173
  24.6673260  56.2812500  17.0427151  23.8658085  55.9617958  17.4571419
  24.5108089  57.2157898  16.9071770   6.6773996  -0.0313406  52.3745995
   6.2000384  -0.6939082  52.8739624   6.3981204   0.8018761  52.7540512
  18.4806461  46.6518860  73.6429749  17.5646267  46.8598709  73.4589005
  18.4611263  45.7521019  73.9689255  80.0557556  41.4730568   8.3431349
  79.4685059  41.3316269   9.0856771  80.9291840  41.2929306   8.6908407
   9.0044098  25.8006916  63.2228508   9.0919123  26.1311970  62.3287926
   9.4964485  26.4236279  63.7577133   1.1920924  46.8643646  28.5672550
   2.0342617  46.8713112  29.0221558   0.7201196  46.1239357  28.9483566
  61.6045494  51.6133385  41.8779411  62.4348106  51.8414841  41.4597931
  61.5150719  50.6711845  41.7345009  43.6877785  62.6827583  80.3918152
  43.7644196  63.4948235  79.8909073  44.4529648  62.6829605  80.9669037
  60.4939003  64.6025543  18.8254604  61.0810776  64.0980911  19.3884640
  60.1867447  65.3191986  19.3807182  63.1525803  20.1841888  16.7672043
  62.8732071  19.6382599  17.5021515  62.8400574  19.7192211  15.9910812
  25.7602558  53.2310753  40.0170403  25.2819729  53.1448898  40.8416939
  26.2560349  54.0443993  40.1115799  56.5712318  58.4830933  20.9030418
  57.2623177  58.9768677  20.4616623  55.7805061  58.6747704  20.3988171
  60.4421425  68.8645859  85.0319901  60.5244370  68.7121506  84.0905991
  59.5334015  68.6403885  85.2323914  62.2282791  12.5000267   2.2127254
  61.5341606  12.5592251   2.8691723  62.0936165  11.6479454   1.7979299
  57.1005135  47.3323364  74.6454086  56.5644722  48.1090469  74.4853745
  56.9574432  46.7800674  73.8768005  63.9712563  54.4527016  86.7007523
  64.1989288  54.5192070  87.6280975  63.4973907  53.6240997  86.6292877
  29.2648296  49.3576889  34.5363197  28.6329231  48.8370628  34.0404625
  29.6994572  49.8985443  33.8769226  33.2447319  39.0163841  10.5616388
  32.4378624  39.4737587  10.3249922  32.9601555  38.1316528  10.7907724
  32.6294746  21.2754593  81.0043030  32.3025703  21.2369423  81.9031296
  33.4738770  21.7206078  81.0754242  34.2365799   6.3732080  66.8514709
  33.6300430   6.1025500  67.5407410  34.1701813   7.3279662  66.8353348
  60.5991974  67.8392487  64.7676620  59.9510536  67.3957748  64.2204132
  61.0720024  68.4112473  64.1630859  20.9292107  55.6564102  58.6904716
  21.3158951  55.2509575  57.9143829  21.6753616  56.0180321  59.1687202
  35.9578819  63.5148544  69.7509842  35.3224564  63.4774513  69.0360947
  36.1512604  64.4469604  69.8510361  47.0731354  70.1481323  52.9566917
  46.2968063  69.7311172  52.5830078  47.2953873  69.6059341  53.7135582
  48.8781052  24.7654133  28.6523724  49.6209793  25.2376270  28.2763596
  48.2035599  25.4343681  28.7695179  55.5326080  54.3221283  61.5324593
  55.1092758  55.1803932  61.5524330  54.9450417  53.7773819  61.0087738
  17.3227024  42.2628860  53.5448761  17.0101128  41.4919548  54.0183601
  18.2606010  42.1096725  53.4304085  34.5115395  13.4169407  82.1033020
  34.0430069  13.5577936  82.9260178  34.5397110  14.2811556  81.6927261
   4.5774088  44.5036392  55.4253654   5.0181026  43.6823387  55.6432838
   4.9500065  44.7587738  54.5813828  85.3574219  60.5195160  12.3555040
  86.2257843  60.1496773  12.1961641  84.8905029  60.3993683  11.5285921
  38.1809120  45.8767319  76.3493652  38.4410362  46.4802399  75.6534119
  38.2412300  45.0093155  75.9491348  68.3167114  36.3165359  77.1233215
  68.9242935  35.5770683  77.1397018  67.4791718  35.9326553  76.8637238
  64.1938019  66.9871826  70.2913361  64.0083084  66.0551682  70.1765823
  63.4237900  67.4302902  69.9350052  43.3252373  48.6751785  32.3271103
  42.3921585  48.4736786  32.2564964  43.3609047  49.4523659  32.8847313
   9.4392710  61.8042870  35.5652122  10.2951336  62.2232666  35.6556892
   8.9339123  62.1284142  36.3107224  58.6339645  28.3894062  29.1053905
  58.8757477  27.5887623  29.5709419  57.7310944  28.5593243  29.3740673
  22.5331631  36.4231682  15.1195202  23.1173897  35.7675362  14.7386599
  22.8786640  37.2604828  14.8100624  76.8666840  37.8208160  80.8249817
  77.3450699  37.6673775  80.0102158  77.2252121  37.1788101  81.4377747
  71.1177216  31.0298042  32.3692284  70.7945099  31.7594681  32.8977737
  71.8828278  30.7087936  32.8465004  77.6464844  29.7890205  53.3468437
  78.4710388  29.9649544  53.8000450  77.0016708  29.7001209  54.0486565
  63.2526703  29.4382973  25.9178772  63.5204277  28.5680141  25.6226768
  62.7497940  29.7953205  25.1858387  59.9694862  24.5959625  84.2243576
  59.9469604  25.5508595  84.2867661  60.1277695  24.4202309  83.2968369
   1.2739354  64.7455673  31.3052101   1.4652038  65.5183182  30.7737045
   0.3189634  64.7286072  31.3682384  18.3406219  39.3765259  14.0891047
  17.8561916  39.4833031  14.9077368  17.7584858  38.8598595  13.5319624
  45.2539444  38.6221581  86.4590607  44.9700127  37.7404327  86.7002563
  45.2804070  38.6119232  85.5022812  75.4504623   2.5070491  88.3900757
  74.5386353   2.2694287  88.5584106  75.8420334   1.7124134  88.0275040
  75.1653137  65.4572601  36.3878059  76.0880737  65.6951447  36.4781876
  74.7361755  66.2651825  36.1061401  84.6773834  44.2894630  16.9009781
  84.6441422  43.4701538  17.3947983  84.4967194  44.0317612  15.9969969
  73.4465256  25.5859241  37.5224609  74.3065567  25.5895557  37.9426575
  72.9996338  24.8273582  37.8980904   5.3498912  30.9048805  19.9055767
   6.0489469  31.4105053  20.3201809   5.0793805  31.4382782  19.1582184
  34.8306656  51.1344719  69.7887268  34.3382950  50.4099274  70.1745300
  35.5247040  50.7104797  69.2839737  76.1026611  43.5115662  26.4075089
  75.2958679  43.0335960  26.5995007  76.5792160  43.5202599  27.2376022
  13.1557035  52.2662163  42.0558701  12.3806438  51.7046013  42.0457954
  13.7177048  51.9111977  41.3671417  30.6444817  24.3129597  10.3108587
  30.3486252  25.1573677  10.6509686  31.5736046  24.4433708  10.1212368
  63.7170830  51.2695084  38.0711250  63.6898842  52.0794373  37.5617027
  63.4923515  50.5835228  37.4425163  50.3073311  31.7658405  16.1211987
  50.1598320  32.0438118  17.0251942  49.7018166  32.2980652  15.6051378
  27.3389530  66.1791840  34.4991875  27.9611549  65.5078049  34.7790947
  26.5632706  66.0268250  35.0389442  17.8584843  32.1739120  67.3361511
  16.9408569  32.2261734  67.0688324  18.3517132  32.3066788  66.5266266
  56.1250458  55.4688683  27.8837166  56.2124023  54.9643631  27.0749664
  55.7915039  54.8398895  28.5235310  19.9105892   4.3657002  61.2374649
  20.1638107   5.0503559  61.8566246  20.3051243   3.5673959  61.5885849
  17.1754875  33.5693169  85.2135239  16.7191563  32.8184013  84.8338852
  18.0358295  33.2282524  85.4578934  43.7021217  63.5899353  76.0206375
  42.8072243  63.4360924  76.3234940  43.8562813  62.9042015  75.3708344
  51.6696053  15.6814041  46.0267067  51.0036812  16.0016232  45.4182358
  52.4400482  15.5282717  45.4797096  80.1212616  20.8368320  88.7842636
  79.9717331  20.8476982  89.7296524  79.3248825  21.2150116  88.4114456
  49.0362625   8.8901377   9.3137999  49.6404343   8.5327482   9.9645548
  49.0068016   9.8278236   9.5038195  51.8325081  41.2507591  39.6754303
  51.1043549  40.6836510  39.4216270  51.8660355  41.9185257  38.9904518
  14.1428680  51.1285896  10.3604345  13.7485752  50.3243828  10.6980982
  13.7871065  51.2168274   9.4761944  64.8307877  18.6883698  84.0599365
  64.3760529  17.8680687  84.2511368  64.1309357  19.3072338  83.8515015
  32.7930717  31.2955379  85.5255051  31.8625717  31.0730362  85.4956207
  33.0193901  31.2546387  86.4546661  34.7211800  30.0239468   5.5325632
  34.6688919  29.2870197   4.9239302  34.8978920  29.6205864   6.3824487
  38.8027687   9.6163120  83.6207199  38.7243614  10.3291683  82.9867477
  38.4484978   9.9781361  84.4330063   5.0471578  49.1600418  11.6166353
   4.6048560  49.6865921  10.9507923   5.3816066  49.8000717  12.2449198
  25.4068108   2.5280206  75.1535110  25.3454781   3.4824584  75.1924744
  26.0558071   2.3023140  75.8199158  48.1730423  35.1060677  86.8284073
  47.4009056  35.2172623  86.2737198  48.8890266  34.9474030  86.2132416
  54.2279320   7.9413695  11.5425425  55.0465622   7.6233392  11.1618395
  53.5447769   7.5791998  10.9783030  16.3669052  50.7965660  53.6062469
  17.0586624  51.1408310  53.0412827  16.1537838  51.5220528  54.1931725
  38.0374298  64.5207291   4.5886083  37.3758812  63.9359283   4.9581957
  37.6392632  65.3901443   4.6312671   4.8257222  46.9556999   1.3217173
   5.5902796  46.6460953   1.8073391   4.3385596  47.4844055   1.9536771
  49.7437019  53.0075874  13.6273317  49.9153099  52.8371582  14.5534725
  50.6116638  53.1192741  13.2395144  51.1741600   5.1448054  28.8709564
  50.9898071   5.9406061  29.3699017  51.9076271   5.3823209  28.3036442
  74.8111191  42.5089493  36.4091072  74.0831833  42.1461258  35.9044304
  74.5358505  42.4234543  37.3218765  56.4050636  40.1674805   9.0509348
  57.2057304  40.1480370   8.5267391  56.7075195  40.0702667   9.9538755
  21.5539474   8.5863857  24.2469597  21.5389423   9.5425558  24.2887497
  22.1139011   8.3234787  24.9774151  42.4264297   8.2756147   4.4110088
  43.1933975   7.9514084   3.9389088  42.6969719   8.2858429   5.3291235
  71.4815292  52.8911400  26.5625687  72.0395813  53.6452904  26.7524776
  71.3351669  52.4808159  27.4148865  78.9553070  12.8379011  82.5922775
  79.8164673  12.8405457  83.0101547  78.6681824  13.7502604  82.6295700
  38.8295135  42.9940529  77.9193726  38.8066788  43.5854111  77.1670380
  39.5812187  42.4249992  77.7539978  58.8319855  71.0435028  52.0335312
  59.0767021  71.1878815  51.1194763  58.5701065  70.1235046  52.0689163
  43.3044891  63.5566902  31.2473335  42.8751907  62.8199310  30.8124561
  42.6114082  64.2080154  31.3552361  18.4181271  69.6508560  50.4108009
  17.8300552  70.0692673  49.7820435  18.4421253  68.7325211  50.1418762
   4.8909283   2.1307750   1.3391607   5.5333977   2.7723987   1.6421194
   5.3217845   1.2846974   1.4605987  51.3997993  47.5922165  70.4089584
  51.9706345  47.9457817  71.0911407  51.8049202  46.7599144  70.1652679
  67.8269119  49.4921417  41.0042191  67.3882523  49.3443336  41.8420486
  67.1176453  49.6996155  40.3958397   1.5048127  32.7864342  79.9188919
   1.6544049  32.6894073  78.9784470   1.8974855  32.0039444  80.3058701
  17.7565575  65.9090576  87.0955811  17.4056263  66.7067566  87.4915009
  17.1375389  65.6959076  86.3972855  51.6792603  61.6541481   2.3917239
  51.2568054  60.9493942   1.9007189  51.9386444  61.2478256   3.2186785
  47.0630379   4.4129014  53.4461327  46.8995323   3.9622452  54.2746315
  46.7247467   3.8164895  52.7782402   9.1273737  51.3738670  60.9091797
   9.8662701  50.8408661  61.2027359   9.4607859  51.8459702  60.1461678
  16.0225182  25.5118847   0.9493579  15.1164837  25.2425709   0.7983423
  16.0743141  26.3945370   0.5826499  85.6956177  42.5429726  45.9502296
  85.6582108  43.4500351  46.2536621  84.8946228  42.4282494  45.4388847
  24.2416267   0.1996855  76.2345886  24.0789032   0.0325972  75.3062439
  24.0946579   1.1398553  76.3380890  43.8689499  56.5749321  68.6820831
  43.3234367  55.9199791  68.2465515  44.7608337  56.2375450  68.5987320
  29.5727139  71.1117706  61.8177528  29.7138634  71.0446472  62.7621078
  30.2926655  71.6603546  61.5063705  58.9372864  25.1536732  68.0398026
  59.3017998  25.7713032  68.6737518  59.4143867  25.3326168  67.2294998
  59.3668785  51.8190193  53.7682304  59.4751282  52.5729713  53.1885147
  59.0353088  52.1909561  54.5855141  -0.2303989  61.1703568   7.0199337
   0.4732514  61.7589417   7.2931986   0.2215247  60.4173737   6.6391306
  69.4889832  64.7031555  41.5621490  70.2413406  64.6573105  42.1521378
  69.8660431  64.6200333  40.6862793  23.8515358  62.1325569  10.2210655
  24.7956390  61.9765968  10.2450113  23.6631107  62.5879135  11.0416632
  77.8245621   6.8900166  76.0332336  78.5934143   6.8427997  76.6014557
  77.4688873   6.0013614  76.0371857  58.5194855  62.5480843  18.6298809
  59.3638725  62.9985657  18.6123924  57.9437561  63.0976753  18.0981636
  71.1711884  60.5423737   7.8162789  71.1181488  60.4223442   6.8681164
  70.6539764  61.3294220   7.9873734  60.2013741  16.6719513   4.5572028
  60.1511841  17.2330399   3.7833223  61.1357117  16.4929581   4.6630754
  45.1319580  50.1666412   7.4106269  44.7429581  50.1052704   6.5381908
  44.9285851  49.3271751   7.8231401   6.5287876  68.9073563  19.2368221
   7.0808496  69.3284149  19.8957386   6.1619973  68.1444626  19.6836929
  26.8943825   5.7014327  49.0464516  27.4350071   6.4669394  48.8516273
  27.5145340   4.9731936  49.0826797  84.0145264  65.6616974  41.2891312
  83.4863739  65.7894592  40.5011177  84.3027191  66.5422134  41.5296745
  27.5958881  27.4526596  80.6617661  27.6667480  28.3948078  80.8152847
  26.9821491  27.3744907  79.9313889  40.0885963  21.8332291   8.0888901
  40.3775368  22.2119083   8.9191589  39.8713875  20.9257431   8.3022480
  18.3812580  34.1754227  61.5015335  18.3179512  33.3190079  61.9243584
  17.5967197  34.2318001  60.9560509  60.3368797  69.1997147  48.4628296
  60.1788292  68.3244553  48.8166199  60.4595757  69.0599594  47.5238686
  29.8275375  70.7902451  15.9103374  29.2329922  70.4725876  15.2307463
  29.3361568  70.6879501  16.7253914  78.2994080  36.6387215   7.9652042
  77.8076172  36.8821106   7.1808968  77.6540375  36.2141724   8.5304356
  71.5913391  27.0871658  23.8355389  72.2377090  26.8464928  24.4992523
  71.3580856  27.9915218  24.0452156  76.2522125  37.1344414  64.6171570
  75.6389313  37.7032166  64.1517487  77.1108856  37.3694725  64.2654877
  83.7225952  41.0322342  78.2859421  83.4272385  40.6908722  79.1300201
  84.5827942  40.6336060  78.1541138  85.9256210  39.8621216  56.8889618
  86.0057602  40.1602020  57.7950325  86.7761383  39.4709396  56.6894035
  59.4349976   6.0952616  79.1657944  60.1743011   6.6154113  79.4806137
  59.7407036   5.1895843  79.2160416  75.7414780  16.2691841  38.1669617
  76.3902359  15.5937347  37.9692039  75.5321884  16.6564369  37.3169823
  61.7558861   6.1359444  49.5820274  62.3142395   5.7350116  50.2481537
  60.9379120   6.3294520  50.0399628  84.8346786  70.0236816  48.9745712
  84.9645844  70.5800323  48.2065659  85.5277176  69.3662186  48.9140396
  47.8936882  37.1092987  18.9726410  47.0267792  37.0490379  18.5713062
  47.7264023  37.4382324  19.8558445  84.5132980   5.0570989   8.7368011
  84.7528839   4.1478786   8.5574951  83.5598068   5.0742450   8.6544285
  65.9735184  31.9090919  41.4808731  65.2866821  31.2444668  41.5334587
  66.6225128  31.6346130  42.1287117  39.1120567  60.1619110  31.5686760
  39.9442749  60.3031197  31.1173382  39.3566322  59.7575645  32.4010925
   3.2526207  57.2944756  21.5852909   3.5473380  58.0266151  22.1269054
   2.3044398  57.2680359  21.7136879  86.1891708  70.2080383  10.7990541
  85.2417145  70.2298050  10.9334936  86.4185257  71.1072693  10.5645056
   5.5540891  15.3974600  53.1602631   5.2687035  15.3586454  52.2474213
   6.1943593  14.6905518  53.2412987  65.9539566  20.1476536   0.6171951
  66.8600540  20.2386131   0.3223393  65.8283768  19.2040672   0.7177275
  53.0542870  49.9789925  14.6177778  53.2925415  49.0537834  14.5589581
  52.2218094  49.9823723  15.0902252  50.9520912  54.5287743  43.3407822
  50.5752907  54.8263588  44.1688499  51.8978195  54.5483513  43.4872246
  35.3909073  68.9425278  68.7081985  36.0316658  69.5564880  69.0669632
  34.6335411  69.4862366  68.4913788  69.5752182  38.1888351  57.3786888
  70.4712677  37.8546562  57.4193954  69.6346741  39.0771217  57.7303162
   7.6001668  33.2831345  10.9754276   6.8279648  33.1265984  11.5189648
   8.3133917  32.8465309  11.4411716  47.9576492  52.1890984  89.3945694
  47.7348595  52.4781494  88.5096741  47.6439819  51.2857742  89.4375534
   1.2064681  23.2563782  65.6575623   1.7460818  22.5768871  66.0617218
   0.8394772  23.7418022  66.3964233  11.6460743  57.6964684  85.3979111
  11.4817343  58.3853111  84.7539215  10.9781942  57.0350990  85.2169113
  15.3059597  67.1062698  63.4254837  15.8928423  67.8624420  63.4229164
  14.4533978  67.4656067  63.6709290  56.1539993  51.5845947   9.3003654
  55.7768478  52.2813606   9.8374949  56.5429420  50.9793587   9.9317503
   1.3286878  49.1550713  84.6545181   1.5008000  50.0847282  84.8039856
   2.1461318  48.7185745  84.8942947  61.6522598  50.4146500  70.0282745
  62.1442451  49.9635582  70.7143478  61.5225410  51.2996826  70.3690414
  40.9237366  22.5217133  10.5625858  40.9520569  21.8827686  11.2747507
  41.6593323  23.1085606  10.7379236   7.0700631  21.8568497  67.0653229
   8.0156851  21.8331165  67.2118454   6.8085923  20.9364300  67.0390320
   7.6139326  18.1651287  55.4568825   7.3624415  18.2272034  54.5354004
   8.2303343  17.4334850  55.4881630  60.4914284  30.7631855  47.8596878
  60.7206688  31.5363941  48.3752708  60.5334511  30.0383148  48.4834099
  84.2422028  37.4334831  87.5178146  84.7717133  36.9835091  88.1761322
  84.4171295  36.9594536  86.7048416  79.8692703  34.0137367  28.9117661
  80.7308884  33.6047211  28.9927044  79.2775650  33.4189949  29.3726368
  63.3522034  53.5553894  34.6941338  63.7801476  54.4096870  34.6369362
  62.7847633  53.6226883  35.4620590  57.6224594  52.8610001  49.6876869
  58.4696426  53.0284386  50.1005783  57.6959267  53.2590256  48.8202705
  32.7856331  56.2876854  76.0932999  32.2628212  56.6423416  75.3741837
  33.1512833  55.4744453  75.7451935  75.8462219  41.9393158  41.0143166
  75.9902725  42.1093864  41.9452057  76.7247543  41.9259682  40.6345329
  52.1607971   0.6748012  81.1929092  52.6673584   0.1058171  81.7724686
  52.0962524   1.5035971  81.6674271  59.7853050   1.9704751  10.3423929
  60.3844490   2.6294966   9.9917469  59.9322739   1.9921100  11.2879953
  19.9571762  40.0824966  64.3197937  19.0191765  39.9548492  64.4615479
  20.0545139  41.0267715  64.1968918  86.3636246   6.8345900  52.5855713
  86.4595032   7.6875453  53.0092506  87.2363205   6.6364255  52.2459145
  32.6154709   7.8985767   7.1258197  32.7222900   7.8508115   6.1757984
  33.1036682   8.6808214   7.3827033  34.1978836  52.2628975  36.6611099
  33.5520248  51.5771179  36.8308144  34.4858131  52.5411835  37.5305252
  25.7202702  66.0595398  53.1843796  25.9342537  65.9323959  52.2601089
  26.1264992  65.3154526  53.6288338  41.4985046  16.2959938  11.7158594
  41.9007530  15.6638145  12.3114929  41.2995300  15.7898703  10.9281540
  31.8840828   8.5081949  21.8036785  32.8202553   8.6522293  21.6656036
  31.7394238   8.7368956  22.7218304  52.7512627   6.2746577  58.5195541
  53.3572693   6.2474899  59.2599945  51.9864807   5.7823167  58.8177872
  47.8506050   5.2692113  38.3967743  48.6060410   5.0248580  37.8621330
  48.1008720   6.1009312  38.7990723  79.4136658  31.3111210  74.3383408
  80.0925140  31.1650581  74.9971771  79.8858719  31.6550064  73.5800552
  27.2229824  27.2565670  12.2851400  28.0966110  26.8703480  12.2231627
  26.6451225  26.5144997  12.4630318  65.3462753  65.2087936  22.8704777
  64.9444809  65.7663345  23.5367641  65.8851395  65.8059845  22.3516159
  10.1145277  24.3459396  58.1921692  10.6103401  25.0159302  58.6628265
  10.4994955  24.3344498  57.3158722  54.4639664  65.2146759   9.8970346
  53.7962112  65.1830597  10.5821152  54.2357750  64.4964828   9.3068209
   5.3481102  15.4447441  10.4668579   5.7233810  14.5649567  10.4297380
   5.8932061  15.9628258   9.8746643  27.1855793  39.0682259  59.4029922
  26.8227043  39.5093575  58.6349106  27.9916477  38.6604385  59.0864525
   1.9433013   5.5790277  45.0324860   2.4961565   5.2383466  45.7357063
   1.9194332   4.8751550  44.3842354  72.8216095  61.5537224  88.3821869
  72.9981461  62.3115387  87.8247070  71.9313583  61.6953697  88.7040710
  48.3833771  43.7198029  36.0827675  47.4908485  43.9752121  36.3159904
  48.9186134  44.0228386  36.8161964  13.5916395  59.9065895  54.6911812
  13.1190844  60.0112114  53.8653641  12.9119768  59.6939850  55.3307838
  78.8438034  48.7338295  73.3809967  77.9035339  48.6140327  73.5143127
  79.0441971  49.5613823  73.8182983  38.0057259  34.6460342  27.5328617
  37.3855438  34.8840828  28.2220211  37.8259773  35.2645493  26.8247910
  64.1017609  61.9103546  11.0104027  64.7817230  61.2932549  11.2807236
  63.9421082  61.7026558  10.0897484  60.7521400  14.5275841  81.5509415
  61.0396996  15.4400749  81.5209045  60.6823769  14.2680836  80.6322327
  67.8767090  67.1741180  83.9190140  68.3084106  66.3298721  84.0498505
  68.5931396  67.7856216  83.7486420  72.6325912  33.7515907  72.4905548
  73.3166275  34.2319374  72.9570160  71.9849243  33.5428848  73.1637573
  73.6309662  45.5361366  66.9466248  73.0115280  45.0810165  67.5170670
  73.5068436  45.1322632  66.0877228  66.4042892   1.2577926  42.1369972
  65.4520416   1.3489064  42.1030693  66.7210236   1.7764769  41.3974838
  19.1580086  60.9978905  59.8835945  19.5842991  60.1597443  59.7046547
  19.5196285  61.5951424  59.2288055   2.9584606  63.2279282   3.4646406
   3.7337587  62.8755493   3.9016457   2.4901204  63.7010574   4.1524196
  80.6230850   9.4806862  80.5887222  79.8356781   9.7405882  81.0669250
  81.3460236   9.7278128  81.1653748  84.4433594  46.2220497  71.3273773
  83.8353424  45.5203171  71.5600128  84.0003281  47.0242615  71.6037979
  62.0194702  29.2341061  81.0541840  62.9257545  29.1974087  80.7483597
  61.6513443  28.3835163  80.8149948  61.3160782  58.2676811  88.6880112
  61.7609024  59.0793266  88.4438934  61.5443954  57.6509056  87.9925385
  84.0568314  27.8060112  54.8244553  83.2058334  28.1957016  55.0248795
  84.6915207  28.4829922  55.0591812  41.3757973  61.9501419  30.1540871
  40.7487488  62.5275764  29.7186451  41.8386459  61.5155449  29.4377594
  16.5531406   3.7547343  18.5415802  17.2301197   4.0808454  19.1345253
  16.4713249   2.8261616  18.7590446  67.6277695  63.7266541  81.8940430
  66.9645462  64.3201981  81.5417862  67.2889481  62.8510818  81.7074814
  15.6620064  14.9548941  82.0189667  15.8025637  14.9296656  82.9654541
  16.3357391  14.3766422  81.6612778   1.0278125  11.5625267  30.7968254
   0.3421008  12.2301865  30.8129902   1.8459094  12.0594530  30.7931232
  21.0021935  49.9257202  45.6295815  20.2772179  49.8123093  45.0149422
  21.7566280  49.5406036  45.1837730  75.6488113  11.5800667  15.6438284
  74.9462738  12.2273417  15.7046671  75.7925262  11.2969770  16.5468445
  36.8042030  53.1544724  55.2651215  37.0981026  54.0173683  54.9731178
  36.7923317  52.6233749  54.4688644  69.3523102   8.8434172  84.2568741
  68.9924164   8.0484037  83.8636017  70.2273178   8.5902147  84.5509415
  62.5307961  66.0647202  61.5956001  62.4635201  66.3744125  60.6923828
  63.1481781  66.6674347  62.0100937  43.2451630  15.1676483   7.8290415
  44.1175156  15.2704363   8.2093868  43.3379936  15.4798889   6.9289746
  22.9061852   8.1243839  61.1382713  23.4508839   8.2101135  61.9206963
  23.1719341   8.8552284  60.5801735  25.7897549  58.7281342  57.9767303
  25.7110481  59.6798172  58.0425835  26.7304516  58.5610046  58.0349274
   4.5056443   9.9767294  14.5494328   4.0178099   9.5117912  15.2291985
   4.4671431  10.8960323  14.8133125  54.0538025  40.8985596  36.2775002
  53.7565727  41.7876587  36.4708633  53.5133438  40.6208839  35.5378838
  34.1059952   0.1515168  74.6922836  34.1670952  -0.4861194  73.9810104
  34.8151741   0.7709452  74.5202332  77.8407135  27.4805031  46.3201065
  78.7900772  27.4543304  46.4394913  77.4994431  27.7502937  47.1727371
  74.8700027  16.4927902  17.0410900  75.5652084  16.5810871  17.6931057
  74.7212296  17.3847752  16.7273045  67.4582596  45.6703758  67.6311951
  67.3857880  44.8901329  67.0814743  68.0636520  45.4170341  68.3280106
  76.4374771  22.0012150  60.9035187  76.6650391  21.3920231  60.2011414
  76.0968323  22.7725754  60.4505310  13.4963608  18.5355549  83.7484970
  13.5263720  18.5159340  82.7919693  13.0783787  19.3708153  83.9579315
  19.6158504  66.0650101  32.6824455  20.4106712  65.5396194  32.7743988
  19.9295254  66.9293518  32.4164619  11.2570362  67.6344833  52.6491699
  11.4239464  67.8835678  53.5581970  11.3029852  66.6783829  52.6505089
  60.0275307  36.8818550  37.0940628  60.1947670  36.0312119  36.6882629
  59.2671509  36.7336731  37.6562843  74.5833817   8.5931177  56.0408173
  75.0041809   7.9145632  56.5687561  74.5578537   9.3601885  56.6128159
  51.1478729  28.5774632  18.3982315  50.2786598  28.8221169  18.7157898
  51.6547508  28.4099636  19.1927433  79.1789627  23.9942055  81.9665909
  79.4844284  23.5594521  81.1704102  78.4427643  24.5334263  81.6776505
  12.5405464  47.5142441  25.3816586  13.2023897  47.4314880  26.0682049
  12.0695200  46.6811905  25.4013901   8.8737392   3.5955584  33.5708160
   8.5180693   4.0273190  34.3475494   8.7528019   4.2322373  32.8663673
  34.3097382  48.0207291  38.6546860  34.4968224  47.0975227  38.8247528
  34.9040375  48.4963989  39.2350121  49.9193687   0.9511264  88.8121643
  49.1129837   0.4541016  88.6745224  50.5794830   0.4829730  88.3009720
  84.8697128  68.7812576  22.9358902  84.4077148  68.6409378  22.1093941
  85.4335022  69.5367737  22.7698574  57.3050804  15.0335150  22.9381809
  57.6896057  15.8878956  22.7422028  57.2387772  14.5998716  22.0874214
  46.8277168  62.5049515  73.4581680  46.8987465  62.0464325  74.2953949
  46.0641785  62.1129341  73.0344162  30.8206902  57.5647316  86.5429993
  31.4002972  58.1020737  86.0030441  29.9450340  57.9121094  86.3733292
  84.0460052  50.6181679  53.3556328  83.5889664  50.2209091  54.0969391
  84.9601517  50.6657181  53.6354446  72.7906570  23.5382786  63.6180115
  72.1344223  23.2364922  62.9899101  72.6247025  24.4769211  63.7054138
  47.9804192  21.8992615  33.0434303  48.5452995  21.3787212  32.4723091
  47.5633850  22.5305004  32.4570427  54.1576843  43.8048820  68.5792770
  54.1187325  42.8546562  68.4707108  53.2793312  44.1083641  68.3498840
   6.6674142   2.9352887  19.5116310   6.1590786   2.2969751  20.0120144
   6.7629991   2.5393100  18.6454353  52.2573204  65.6393661  11.2127638
  51.8514175  66.1000061  10.4784012  52.3756790  66.3132095  11.8822117
  65.2142792  50.0529823  10.9217529  65.1987076  50.5204124  10.0865889
  65.9991837  50.3774300  11.3632174  83.8757858  52.9330597  39.8037682
  84.7830582  52.9919167  39.5044098  83.6684113  51.9997330  39.7576065
  45.4767799   4.1476893  44.2235680  45.5243950   3.9934459  43.2800789
  45.8056335   3.3386517  44.6154213  63.4685860  50.6503868  35.2471352
  63.9447784  50.1289558  34.6009293  63.5864449  51.5553932  34.9585037
   0.9651763  38.1895790  56.0112419   1.2818699  37.9241600  55.1478233
   0.1284502  37.7352028  56.1095428  56.7678947  31.5455360  55.8471947
  56.4412842  30.7087059  56.1777534  56.8915443  31.4006920  54.9091301
  71.2958374  51.0251465  51.5230713  71.7169418  51.5510292  52.2030334
  71.9937210  50.8446388  50.8933029  45.2839775  24.1758327  16.5294285
  45.3591576  23.6781178  15.7152662  46.1476822  24.5706005  16.6494427
  80.0518646  52.9784126  83.4938812  79.6172180  53.4084778  82.7574310
  79.3361130  52.7017212  84.0660477  27.2333546  54.0186958   8.0802193
  27.0458260  53.6045914   7.2378502  27.4683514  54.9194183   7.8572769
   0.2991301  21.3998642  71.3107452   0.4716955  20.6825218  71.9205627
   0.9873536  21.3232403  70.6499100  61.4970741  64.5873108  85.2419891
  61.6445465  64.8381195  84.3300858  62.3733635  64.4208908  85.5893402
  84.6301270  18.0746727   0.0763785  85.4168549  17.9812527   0.6135533
  84.0742111  17.3399620   0.3359887  80.3058777  54.1604996  52.1769485
  79.7888412  54.0251846  52.9710464  81.1285248  54.5381241  52.4882202
  12.8492098  20.1418724  88.4654846  12.4846010  19.6541767  89.2040253
  13.0489588  21.0063934  88.8245544  82.9698181  17.9089947  24.4360962
  82.9814224  17.4647427  23.5883141  82.3047256  17.4421768  24.9420338
  15.3758307  70.0936050   6.9982376  15.0173006  70.4184647   7.8241658
  14.9588223  70.6339188   6.3271208  64.5977554  32.6029091   1.1168839
  64.8654022  32.5348167   2.0333784  64.0393677  31.8388805   0.9730338
   2.4334004  23.5247841   7.4378581   3.0435147  23.3938046   6.7120233
   2.4610114  24.4665184   7.6069851  17.5030365  68.4628601  71.2150574
  17.2498627  68.5569458  70.2967529  16.8872051  67.8210678  71.5687332
  70.6389236  36.8437996  38.0143051  70.4786758  36.5481529  37.1181183
  69.7705612  37.0599709  38.3540764  78.5176392  68.0940628  76.0121384
  77.7923050  68.2814636  76.6079559  79.1061478  67.5351486  76.5195923
  12.6536980  18.7669353  81.0754471  12.1479540  17.9991627  80.8090286
  12.0297613  19.4915485  81.0321808  79.1686554  20.8758183  34.9337349
  79.2206497  20.8937111  33.9781151  80.0399780  21.1433754  35.2260513
  53.0737839  57.5713081  66.3283844  53.6340637  56.7964401  66.3719254
  52.5053024  57.4992142  67.0951080  21.5940800  24.0454884  14.8982067
  21.3937798  24.4353848  15.7491436  20.7864475  24.1433430  14.3938408
  80.5023346  53.0847130  35.9793816  80.1848450  52.2449760  36.3114624
  81.3042068  53.2505836  36.4750824  53.5520058  47.2695007  28.4455338
  53.2566795  47.5058098  27.5662308  52.7591209  47.3004837  28.9808903
  58.9368286  29.3924809  15.1604948  58.2076263  28.8033791  15.3540268
  59.2443504  29.1172638  14.2968292  65.5401917  64.3324890  70.2588348
  65.4000702  63.8269844  69.4581680  64.8609238  64.0242310  70.8586731
   6.7955694  12.5544300  21.3147545   7.0654306  12.4380045  22.2257156
   6.4115500  11.7127066  21.0692692  48.4241753   2.2319193   4.8976221
  47.7872047   2.1171224   4.1924148  47.8950844   2.4482915   5.6653957
  38.7264709  52.2768974  68.5818863  38.2772408  52.9205551  69.1297226
  39.5332069  52.0789413  69.0575104  52.8672028   1.9100549  16.1356525
  53.1831856   2.6009018  15.5533133  53.4919014   1.1942327  16.0191040
  57.6693916   1.5732027  60.8029594  57.8001671   1.9851874  59.9489136
  56.7361717   1.3615812  60.8264198  49.4050941  53.1437187  66.9813538
  50.3511963  53.0522957  66.8683777  49.0473366  53.0384903  66.0997772
  51.2514648  38.8359566  13.2733746  50.3990288  39.2657471  13.2036190
  51.0670395  37.9106064  13.1123047  77.6150970  10.6644020  35.5756111
  78.0471344   9.8102779  35.5688477  78.3173218  11.2894487  35.3955307
  57.9311142  33.3185120  38.9517708  58.7145882  32.8334274  38.6927490
  57.6156769  32.8644295  39.7331429  55.5380936  30.9806690  11.9520903
  55.6237869  30.9174957  11.0008287  56.1313019  31.6900043  12.1994295
  86.2313690   9.3218822  31.7066898  86.1281281   8.5298843  31.1791344
  86.7126694   9.9255323  31.1408405  59.8612900   1.4258230  75.5958405
  59.5270844   2.2624834  75.2725143  59.1506462   1.0754994  76.1329498
  48.3776131  47.8974838  85.0169220  49.0095024  47.2249718  85.2712402
  48.2357864  47.7514343  84.0816269  66.1797562  16.3851051   7.5842247
  66.6230164  16.7066479   6.7991366  66.6314240  16.8181267   8.3086023
  56.8802452  16.1822624  88.4535294  56.5363808  15.9817429  87.5830231
  57.7264175  16.5975761  88.2869720  42.8693008  66.0694580  29.4074478
  42.7749252  66.3758392  30.3093681  42.0928650  65.5308228  29.2549839
  22.6760826  37.6405067   9.5664253  22.6357746  38.3147545   8.8881912
  23.4467201  37.8692627  10.0860605  42.6629066  52.8079987  29.4386482
  42.8123436  53.7531052  29.4125824  42.0129433  52.6872826  30.1308937
  17.9250603  68.2347260  35.9529800  18.7709846  68.6210861  35.7263298
  17.4102497  68.9671860  36.2916641  37.2199860   3.8092692  64.7353134
  37.3530998   4.5371385  65.3425369  36.2708855   3.7645719  64.6193924
  39.4710960   5.2917037  18.8056698  39.2565498   4.5722103  18.2119274
  38.6221809   5.6108665  19.1117916  84.0143738  69.2560272  77.9144058
  84.8156281  69.4920349  78.3818741  84.0631866  68.3046875  77.8206100
  82.3566284  42.0341759  56.8721466  81.4971848  42.4514923  56.8136024
  82.9687653  42.7021599  56.5634117  42.0332184  50.4692955  36.4391365
  41.8776855  49.5284309  36.5216751  42.2065468  50.6025581  35.5072403
  84.7887039  29.9293270  26.8874493  84.4165955  29.4901657  27.6522408
  85.5174255  30.4423027  27.2368031  49.8565102  69.5234299   6.2951546
  48.9129868  69.3890610   6.3842945  49.9366455  70.3406906   5.8033261
  60.4054375  15.6424932  37.7989426  60.7115326  16.2412758  37.1177673
  59.6339035  15.2220449  37.4192162  41.0334587  68.7246704  38.6833229
  41.8216438  68.5645065  38.1643410  41.0272331  69.6715469  38.8233910
  31.1464443   0.4600468  83.7863770  31.7634544   0.6749510  83.0868378
  31.5347290   0.8414714  84.5737610  51.1119385   5.4969740  22.7854385
  50.5768700   5.4328098  23.5765247  51.9608727   5.1357641  23.0405312
  79.4880371  65.4017715  70.2391815  79.3495255  64.7905273  70.9626617
  79.5575485  64.8440170  69.4643784   7.5766678  58.8147774  62.9815178
   8.4357185  58.4414482  63.1787262   6.9836340  58.0634155  62.9799118
  46.6498718   7.7656569  31.3458920  46.7224312   8.0481749  30.4342175
  47.2917252   7.0605373  31.4299412  86.9134750  41.0486832  85.5273514
  86.0620117  40.7773666  85.1843948  87.2523193  41.6586151  84.8720627
  36.2835922  57.4635315  50.3684959  35.6196709  57.6873550  51.0206795
  36.0482140  57.9823494  49.5993042  24.4736958  23.3531704  20.7995701
  25.2078056  23.8930054  20.5064945  23.9205685  23.2596054  20.0239868
  46.1316948   9.8937693  23.0619221  46.5053177   9.1443567  22.5982189
  46.2835121   9.7026796  23.9874859  82.0775146  24.7138615  79.0907135
  81.9889221  25.5765343  79.4959030  81.5535431  24.7696362  78.2916031
   3.6375821  42.9669418  76.6463013   2.9369931  43.3750572  77.1550751
   3.4435973  43.2030373  75.7391815  76.8090744   7.6102490  85.6483002
  76.5171051   6.7555485  85.3313141  77.5808716   7.8111520  85.1189575
  52.9796677   8.8846865   8.9473763  52.7078362   9.7581987   9.2290049
  53.8843803   8.9977379   8.6559219   8.8782034  67.7486801  21.1462498
   8.3091459  67.0260315  20.8813343   9.7560120  67.3675003  21.1658764
  52.6903610   6.5216818  35.1835670  51.9379311   5.9478574  35.0393257
  53.4499397   5.9772658  34.9764862  24.4951305  66.6848679  11.0954447
  24.2462540  67.0739975  11.9338188  23.7567806  66.8722534  10.5158262
  21.5187836  65.0463867  17.3598175  21.0799789  65.3540039  16.5666904
  21.5857048  64.0985489  17.2442284  27.3096237  46.6334534  38.4929657
  27.0148735  47.5332718  38.3526688  28.2185440  46.6296043  38.1928329
  53.6564331   3.6296005  14.0881577  53.9097290   4.5290980  13.8808470
  53.4458313   3.2386007  13.2402201  52.7022171   8.3112106  52.4317398
  52.0928192   8.9900866  52.1419220  53.4076881   8.7917109  52.8649406
   1.9880061  39.1868057  62.3494301   2.7580237  38.6192360  62.3152657
   1.3183198  38.6562080  62.7809601  48.1081047  62.1401939   7.6667032
  47.1813011  62.3790092   7.6512885  48.3648109  62.2356453   8.5838852
  30.6742039  35.0638542  53.9581146  29.8900185  35.5765991  53.7622032
  31.2472343  35.6716843  54.4254608  27.6195240  58.7472916   3.2660615
  28.2156811  59.4569855   3.5051579  26.7453308  59.1135864   3.3996515
  40.6434174  28.8848858  76.8651581  40.5403633  29.5690289  77.5266418
  39.7502098  28.6883049  76.5827332  44.9439850  31.5730610  72.4078445
  44.2084999  31.8463421  72.9561234  45.7039986  32.0111313  72.7908554
  63.6477127  14.7315617   6.7040324  63.9035873  15.4607372   7.2688894
  63.4534035  15.1391487   5.8600249  44.3194275   7.0398822  32.3826256
  43.6200752   7.3602867  31.8129959  45.1271782   7.2874084  31.9326210
  57.3596039  55.9383354  88.8467636  57.7209320  56.8144493  88.9812927
  57.0617676  55.9391747  87.9370804   4.1702352  32.5512962  57.5870895
   4.7281466  33.3090630  57.4117165   3.6154621  32.8261528  58.3170967
  25.7223320  59.3338776  53.1210670  26.2667542  58.9526634  52.4322166
  25.0721092  59.8559418  52.6510735  14.8043966  48.1733322  52.5796471
  14.9233627  48.8861580  53.2073021  15.6767130  48.0290108  52.2129478
  58.2518616  48.6027870  15.1609278  59.0568810  48.2281418  14.8034096
  58.2451859  48.3259888  16.0772076  42.8990173  44.2502174  60.9410057
  42.5086098  44.1601601  61.8103180  42.9608650  43.3534126  60.6121521
   9.1353283  35.2080574  84.7705994   8.5618429  34.4592361  84.6074524
   9.9481840  34.8208923  85.0955658  45.7848587  64.2913742  63.8121109
  46.0572701  64.3330765  64.7287827  44.9597206  63.8065147  63.8292809
  80.7144547  39.5601158  29.0291653  79.9588089  40.0560608  28.7140865
  80.7213135  38.7674446  28.4926414   4.1529908  64.6114426  14.2195196
   4.9497609  64.9748535  13.8330975   3.7095182  65.3656693  14.6077232
   9.0074797  43.5588989  29.6684837   9.6574621  44.0074120  30.2094002
   8.1655474  43.8084831  30.0493927  60.6860886  49.9995308  35.1853333
  61.5959969  50.2791290  35.0847206  60.2256165  50.7846756  35.4815521
  61.0722084  57.5472107  23.2877808  60.2032471  57.4775276  23.6831112
  61.5813026  56.8518295  23.7043152  54.0612259  66.7549667  67.1637344
  53.4784241  65.9968338  67.2062149  54.9212456  66.4096680  67.4032440
  22.6814137  13.4777966  81.7406845  22.7731991  13.8485479  80.8629913
  22.5406837  14.2361650  82.3075180  44.1162224  34.9745369  62.6597977
  43.3145676  34.7243500  63.1191330  44.7573395  34.3127670  62.9191513
   1.8640426  69.7635498  32.8313828   2.1626573  68.8598633  32.9334602
   1.1527590  69.7101059  32.1930656   4.9835773   0.8138841  84.7065811
   4.4458537   1.0172242  83.9412460   4.9494381   1.6073190  85.2409286
  70.6107483  39.1720123  53.2327576  71.3270950  39.8067131  53.2481689
  70.7921448  38.5881958  53.9692993   2.9764087   5.3584819  84.5631409
   3.2052686   4.6486435  85.1631241   2.1692703   5.7257962  84.9234695
   1.4148275   6.1597004  17.5152130   1.7646716   6.2997284  16.6353092
   0.4663566   6.2352543  17.4106846  65.1495743  14.2941961  58.8826675
  65.3262177  13.3545427  58.8370209  64.5593796  14.3909292  59.6300240
   1.3053758  59.7992706  37.4532814   0.9462528  60.6673279  37.6369476
   1.4995902  59.4329681  38.3160324  62.4408722   2.6360176  12.0573978
  62.4918098   3.2042611  12.8259926  61.9216080   1.8862069  12.3478823
  16.5453491  11.2269182  84.8685379  15.7523184  10.8656940  84.4724960
  16.2462959  12.0083122  85.3335342  36.1778259  45.9195633  62.9844208
  35.7076912  45.0874176  63.0367241  37.1018143  45.6767845  63.0438995
  71.7503586   4.7466822  38.0604706  70.8837051   5.1528635  38.0478249
  71.9622040   4.6632109  38.9901924  11.3720484  22.5535488  61.0908852
  11.2363148  21.6451149  60.8215218  10.5391512  22.8136864  61.4843826
   7.8429966  45.6966209  88.2183762   7.0775409  45.5694351  87.6578979
   8.0763073  46.6173515  88.0998459  44.4689751  53.0837326  68.3785019
  44.6597214  52.4831543  69.0990295  45.3266296  53.2962837  68.0104294
  18.6970444  50.4017754  26.4482918  18.9610786  51.1499367  26.9838028
  19.4930668  49.8775635  26.3600750  53.6223335  51.5870438  25.5661678
  54.0368271  52.4059792  25.8377838  53.1494370  51.2887573  26.3431015
  13.6558809  41.6012039  75.7913055  12.8829126  41.7468224  75.2458267
  14.3691664  41.4716797  75.1662674  87.1120682  54.8817787  35.4972878
  86.2325668  54.5160942  35.5920830  87.1603851  55.5656738  36.1652565
  37.1528511  61.0375824  73.5410538  36.7468529  60.8062325  72.7056656
  37.6094322  61.8603973  73.3657303  44.7350235  57.2313080  29.1807232
  45.4496803  57.5135880  29.7515278  45.1686440  56.9515343  28.3745403
  77.3014603  14.4649334  12.3234272  78.2002411  14.4216919  12.6498642
  76.7927704  14.7926216  13.0651035   6.9655590  65.8419495  51.7779121
   7.3380194  65.7413254  50.9019089   6.3294101  65.1304626  51.8508759
  73.7437820  26.3722973  68.8013992  73.0934143  25.6875305  68.6453705
  73.5536575  26.6862411  69.6854324  64.1449661  34.7251472  38.0987244
  64.7904358  34.1591568  37.6753387  63.5729523  34.1224365  38.5738831
  75.5726013  49.5975113  65.2500610  76.0091324  49.0239410  65.8798981
  75.2157669  50.3091888  65.7814865  18.4352341  17.8628082  79.4841385
  18.5188866  17.7916031  78.5332642  17.9453239  18.6735916  79.6214294
   8.1595821  11.1498051  11.7664061   7.6956644  10.3545380  11.5045643
   8.7114592  11.3638229  11.0141687  24.0946922  11.4572144  79.9338837
  24.6873436  10.8100920  80.3162842  23.7597790  11.9481697  80.6842346
  83.2479553  22.9961891  25.0312767  83.6992722  22.2064857  24.7330914
  83.7175903  23.2555714  25.8239918  36.3214455  51.1191483   4.3906875
  35.3995323  50.8770790   4.4784760  36.3028603  52.0239182   4.0788021
  43.8366318  48.2596855  70.6132126  44.5606728  47.8217888  71.0606995
  43.2584610  47.5476036  70.3395538  24.7803192  67.0735397  24.6118336
  25.3228951  67.6284637  25.1720982  25.0629826  67.2828293  23.7215919
  51.4379692  14.3617735  67.5702438  51.9042168  15.0412579  68.0572205
  51.4711685  13.5932903  68.1399460  17.9464722  59.3131714  53.1035233
  18.8479919  58.9915237  53.0974770  17.7458458  59.4462204  54.0299568
  67.2100525  16.9603806  25.2537518  67.9566040  16.5162315  24.8517151
  66.5454254  16.9826298  24.5652695  80.7745056   2.2433088  33.7024612
  81.4789886   2.7112637  34.1507339  80.0756760   2.8912678  33.6128578
  57.8459015  28.0920448  71.5318222  57.7581139  27.1428833  71.6190872
  58.7537270  28.2720814  71.7761002  49.6215019  10.0531931   4.3858128
  49.8556061  10.7764931   3.8042088  48.7293015   9.8192387   4.1299238
  43.3646965  66.5803833  35.9947395  43.5247841  65.7500381  35.5462646
  42.4115105  66.6363449  36.0620728  66.2520981  29.5529423  59.0275459
  66.0422211  30.2375660  59.6627426  66.5010681  28.7987289  59.5617790
  56.8445473  67.1983795  23.0620041  56.4752159  66.3375244  22.8651447
  56.1227913  67.6826553  23.4629688  56.6255684   2.8485873  37.3340454
  55.9694290   3.2571769  36.7694511  56.1624489   2.1235108  37.7535896
  56.6422348  69.9593201  73.9597092  56.2548790  70.5582199  73.3213501
  57.0309944  69.2632980  73.4299545  82.7245941  30.0400238   0.8672253
  83.1316071  29.2037144   0.6410457  83.3016205  30.4150562   1.5325220
  49.2606239  29.4065723  13.5557928  48.9643974  29.1933880  14.4406843
  48.5205994  29.8668194  13.1598577  43.2019043  17.6715908  21.4619274
  42.7058601  16.8535767  21.4300079  43.6826286  17.6280899  22.2885132
  85.0897369  29.1428280  18.5770416  84.2906189  29.3679066  19.0534668
  84.9800491  28.2199688  18.3478413  75.5600204  50.6393394  26.0747566
  75.8158112  49.7518921  26.3262424  75.2267761  51.0304756  26.8823376
  18.8720779  59.9745483  10.9056749  18.1377792  59.3932381  10.7078962
  18.4666996  60.8270454  11.0642586  51.5354004   9.1040440  39.3439980
  50.9452896   9.1494980  38.5917130  51.7897987  10.0128231  39.5041046
  60.1989670  36.0900688  56.0196228  59.5073166  35.4740562  56.2612305
  59.8147392  36.9534187  56.1720276  83.6601410  32.4801407  45.8833122
  84.5974426  32.6626701  45.9495087  83.6069489  31.5282421  45.7979050
  74.7860260  10.3040743  75.0997391  75.5509567  10.5306320  74.5707932
  74.6097794  11.0910358  75.6153564  55.0120316   9.0467138  33.0589218
  54.0737000   9.2023077  33.1664238  55.0778236   8.5206985  32.2619209
   8.2197886  70.4663086  49.5184402   8.9011469  69.8821716  49.8512611
   7.3984857  70.0473175  49.7756195  82.4997711  47.1879272  14.4097662
  83.3207245  47.0206566  14.8726768  82.7708817  47.4929657  13.5439243
  83.3740387  59.2266350  75.9155502  83.3071594  59.8233185  76.6610184
  84.3038559  59.2305908  75.6882629  85.6071014   9.5074854  39.8190384
  85.9540100   9.4056072  40.7053261  84.9387741  10.1879110  39.9001732
   1.0826750  57.2046471  42.1395226   1.4629576  57.3953896  42.9969788
   0.7577626  58.0495186  41.8283081  84.9495697  15.2071390  69.3081970
  84.6407318  14.5855618  69.9673615  84.3329620  15.1124496  68.5822067
  45.2338982  61.0813713  71.1654816  44.3132591  61.1112061  70.9051590
  45.6511421  60.5260010  70.5069199  40.1187782  42.6269608  85.0663071
  40.2441711  41.6801834  85.0021210  40.9976997  42.9923668  84.9652481
  50.2708473  42.7641716  65.6527100  49.3258362  42.6136475  65.6756668
  50.5878716  42.1905518  64.9550781  41.8215370  40.6205215  62.1055183
  41.5782928  39.7818642  61.7134514  42.4219513  41.0153542  61.4731865
  37.6859169  48.8018303  84.1946182  38.4786987  49.3279839  84.2989883
  36.9953346  49.4412613  84.0200958  70.4797745  39.6671448  36.7121124
  71.1596222  39.0934143  37.0654716  69.8225937  39.7156067  37.4063759
  51.5384064  17.0592880  85.8753052  51.1473198  16.2580090  86.2235031
  52.3212013  16.7618542  85.4116287  14.1278353  42.6198730  26.0222702
  14.3616905  42.5048752  25.1012287  14.8399391  42.1996040  26.5044651
  21.7940025  22.0282307  11.5752449  21.5576077  22.9557323  11.5657616
  20.9683075  21.5690308  11.4216337  76.0769043  46.3141708  25.1259136
  75.9465103  47.0144882  25.7652760  76.3629074  45.5640831  25.6472607
  81.8248520  43.5082397  19.7791767  81.6070175  43.4422607  18.8494282
  81.0501099  43.9031525  20.1792469  23.2119980   4.0666175   3.7194836
  24.1404152   3.8337970   3.7276285  23.0179882   4.3093500   4.6248417
  76.5677643  15.5782766  15.0149736  76.4968033  14.7312469  15.4551296
  75.6615219  15.8423462  14.8561811  16.3450089  33.0282402   4.3789430
  16.1499138  33.7679024   4.9543347  17.2940903  32.9203949   4.4409328
  54.2407761   4.8978896  28.0239754  54.9251442   5.4259748  28.4350700
  53.9169922   4.3355613  28.7276669  50.7521935  35.2715797   4.6776395
  50.7298927  36.1268959   5.1067877  51.0065880  35.4630852   3.7749538
  46.6120834  38.5847015  58.8154793  46.6286545  39.5189972  58.6080055
  47.4887772  38.2736664  58.5898781  59.1995316   8.1674576  55.6309814
  60.0273132   8.0970802  56.1064339  58.5272217   8.0433197  56.3009262
  18.2311382  58.1247330  68.9829712  18.3821411  59.0692368  68.9462967
  18.3617420  57.8968620  69.9034348  76.5075226  35.1997070  84.8453827
  77.3488388  35.0969353  85.2901917  76.0159073  34.4119720  85.0778122
   5.2348604  33.0549126  70.4158554   5.8939514  33.2985992  71.0658188
   4.6831350  33.8325005  70.3310623  51.0107002  45.1803741  28.1926060
  51.7546349  44.9568977  28.7519417  51.4002228  45.3625374  27.3374329
  52.8026695   3.0027270  57.7643013  53.0501404   3.6148541  57.0712700
  51.9357910   2.6881914  57.5077400  62.7935829   7.3441052  30.5350456
  61.8578720   7.5148487  30.6424160  62.9764442   6.6239982  31.1385670
  16.3389874  34.8454857  78.2154617  16.2103004  35.7629776  77.9748764
  16.0340538  34.3530159  77.4534149  11.0264606  50.2858391  81.2910461
  11.4417448  50.7329826  80.5535889  11.5462761  50.5450897  82.0518417
  27.7615490   8.8536921  80.9845047  28.6649723   8.8839006  80.6696320
  27.6351185   9.6912975  81.4302216  70.0238800  59.8441811  80.6477966
  69.9643326  59.6775970  79.7070847  69.7520523  59.0213852  81.0544205
  76.3263092  33.8509140  71.8238297  76.1572418  34.7113914  71.4401245
  76.6844177  34.0414429  72.6908264  35.8946381  52.9810104  71.5575180
  35.6314507  52.4325867  72.2965698  35.4916840  52.5652390  70.7952881
  43.5120544  61.5522499   3.6163762  42.9305534  61.8008881   2.8978567
  43.3257866  62.1888657   4.3064904  74.0543747  37.0355682  49.5578690
  73.1728897  37.1865311  49.8990784  74.1583176  36.0841904  49.5754051
  50.3055458  66.5948257  16.7959785  50.5618019  66.9932480  17.6277351
  49.6016235  67.1549606  16.4689045  22.2098637  26.6688881  85.4079285
  22.7052631  27.4802532  85.5197220  21.4668350  26.9158669  84.8573456
  57.7319412  66.2345886   6.4411931  57.8468857  66.2077484   5.4912987
  56.8076439  66.0258408   6.5765972  46.3379784  34.4189186  22.2623425
  45.8834419  33.8304367  22.8651028  45.6597519  35.0231743  21.9604893
  60.0083160  10.2343493  45.6800308  60.0303917  11.0957136  45.2631416
  59.2568092  10.2737455  46.2715721  19.9512577  52.8093262  11.7142973
  19.4765511  53.4396553  12.2561178  19.5680046  52.9063187  10.8425503
  25.1749992  13.5292234   2.8234262  24.6253071  13.8555918   2.1109989
  25.0250454  14.1432762   3.5422332   3.9897718  64.4994431  83.3798523
   4.0866933  64.5672760  82.4299850   3.8413806  65.3993530  83.6703339
  48.1486282  51.9973564   9.2253990  47.3543396  52.2383308   9.7021246
  47.8307800  51.5514488   8.4403067  82.0345688  24.1223335  37.0054245
  81.6250229  24.1207142  37.8705864  81.3671646  24.4885883  36.4251938
  62.0946236  51.5458870  51.6716118  62.2261238  50.5977631  51.6704178
  62.9277763  51.9036293  51.3648453  65.6971054  36.0160484  17.8697815
  65.7438660  35.7982750  18.8007050  64.8291245  35.7182808  17.5974464
  79.5285034  50.2294121  57.9205589  79.8503799  50.3388672  57.0257645
  79.3356094  51.1191368  58.2162170   3.8499944  46.8087044  13.7046595
   4.5259838  46.2017593  14.0061388   3.8094964  46.6712303  12.7582493
  67.8314896  57.4182701  12.3774366  67.7567139  56.7398262  13.0485201
  67.1015396  57.2478218  11.7821550  59.8555374  42.3196564  13.6171350
  60.4280663  43.0863876  13.6409092  59.8523445  42.0515213  12.6982632
  63.7629852  67.5851364  78.3502579  63.0830040  68.1240616  77.9460144
  64.5852356  67.9888306  78.0724716  13.0080614  61.1598320   4.2427983
  13.7291317  60.7812691   3.7398276  13.2987061  62.0488815   4.4461417
  49.8622208  59.6085052  79.3171539  50.3748894  59.7065125  78.5147858
  48.9698486  59.4437637  79.0125885  39.6789589  28.3227882  69.0885239
  39.8771324  28.3209152  70.0249863  39.6650009  29.2493057  68.8485184
  84.4014053  41.2809601  39.3628922  84.5426025  40.4095383  39.7329140
  84.4348450  41.8696442  40.1169281  73.4635315   8.7494698  65.4601364
  73.5322418   8.4715414  64.5467606  73.8034668   9.6442652  65.4644394
  59.8706741  23.7598686  21.1304359  60.5093803  23.7258759  20.4183064
  60.2951813  23.3005447  21.8550377  54.0126419  11.5885715   1.0987453
  53.4892883  11.9751387   1.8008134  53.8722572  12.1669579   0.3490826
  67.2940445  32.7782326  48.3264656  67.4655838  33.6901207  48.0913811
  66.8659210  32.8276939  49.1811562  54.2199402  39.9515762  79.4103546
  54.3567085  40.8906555  79.5354843  54.8985367  39.6916313  78.7873230
  50.5394402  15.8181639   5.8955369  50.2065277  16.5896530   6.3540196
  51.4237289  16.0640411   5.6238513   6.6378875  54.0870781  88.5853271
   7.5145903  54.2019577  88.9519730   6.4229836  54.9395790  88.2067871
  63.8286476  17.5483246  55.9792175  63.2030334  16.8907433  56.2832336
  64.5966492  17.4241199  56.5368805  32.7226067  30.0829468  69.5854111
  31.8227692  29.7567749  69.5971069  32.7935448  30.5604992  68.7588882
  75.4538345  71.4972763  87.4186020  74.5929337  71.1363068  87.2070007
  76.0665741  70.9737778  86.9021454   1.3388505  55.3914299  18.9800777
   1.1234403  56.3150749  19.1093426   1.6596586  55.3440742  18.0794811
   2.1358087   7.6329494  79.1066437   2.3254473   6.7064767  78.9585953
   2.0310237   7.7073889  80.0551758  72.1319275  36.9755554  80.5966721
  71.9522247  36.1309319  81.0096436  71.9731750  37.6186295  81.2876740
   8.8337383  28.7474442  70.5699844   9.1566629  28.8949547  71.4589157
   7.9774909  29.1749439  70.5521927  86.4987640  65.8829117  76.4917831
  87.3154678  66.3766022  76.5659180  86.1122894  66.1814957  75.6685486
  85.8375854  11.0308685  89.1631851  85.0550537  10.8437977  88.6446457
  86.3021393  10.1950436  89.2057800   1.4770730   9.0867796  48.1782532
   0.6271099   9.3657255  48.5188179   1.4204670   9.2432642  47.2356262
  51.2877655  38.9517937  83.6697769  50.3672791  39.0995102  83.8868484
  51.6261063  39.8214493  83.4565735  16.8937645  15.6944818  10.6724482
  17.5870380  15.4056187  11.2658796  16.4750938  14.8845482  10.3809776
   4.9990478   8.3916759  32.1308937   5.5414310   7.8656039  31.5432701
   5.5047550   9.1921873  32.2711563  56.9741859  45.2319183  43.9956093
  56.9572029  45.9745102  44.5993500  56.2489853  44.6755447  44.2798042
  65.4270706  49.3362045  39.6687088  64.8068695  49.7879829  39.0964546
  64.9182053  48.6264191  40.0604858  73.3531036  26.8028736  63.6629410
  72.7212372  26.9425869  62.9576340  72.8427200  26.4000664  64.3654327
  53.1248970  48.4797325  72.7770462  53.0471611  47.5375404  72.6271820
  52.2394333  48.7591019  73.0097275  79.3412170  54.1258316   1.7127889
  79.2362289  54.9534912   1.2435503  79.8159180  54.3610344   2.5100174
  68.5996017  19.3902378  34.7665749  69.1068420  19.8783340  35.4151878
  67.8282471  19.9341145  34.6070595  77.3730545  29.8486214  31.8624859
  77.0903549  29.8914051  30.9489841  77.9300995  29.0713463  31.9046650
   1.4947715  64.5089722  62.2185326   1.3931233  63.8746986  61.5088882
   1.0355111  65.2898560  61.9094391  54.2750359  34.9585609   9.2638454
  54.3005753  35.5151901  10.0421410  53.7200203  34.2203865   9.5154238
  28.2844410  10.9540529  85.4657440  28.7480335  10.8546515  86.2972717
  27.8628216  10.1065187  85.3237839  69.9762726  48.5291214  38.0145073
  69.9871292  49.4804230  38.1200447  70.8749084  48.3046532  37.7730598
  74.5754089  69.2872009  29.5398178  74.7542038  69.4905243  30.4579277
  75.4368286  69.2866745  29.1224670  67.7151413  26.6256294  45.7959480
  67.0302582  26.1437531  45.3323135  67.4646072  27.5449734  45.7050171
  79.3375092  45.6958351  38.8238792  78.4241409  45.9453659  38.6834450
  79.5580444  46.0654793  39.6788406   3.5282059  59.9004440  49.9843025
   3.4835725  60.3628693  49.1474037   2.6147647  59.7237473  50.2093277
  18.2405205  56.0850983  53.2397842  17.3246422  56.3617249  53.2101440
  18.3785725  55.8105316  54.1463089  40.0779953  25.9801140  86.9460526
  40.2700386  26.0009956  87.8835526  39.9994049  26.9010258  86.6970901
  28.1969986  63.5946007  28.8316040  28.7922955  64.0243607  29.4457397
  28.0113411  62.7454453  29.2324772  59.0462494   0.0991948  27.6518040
  59.3855705   0.9870772  27.7647495  59.8186646  -0.4624327  27.7164326
   3.0633576   5.8423724  19.6926327   2.6168857   5.7604728  18.8499069
   2.3562105   5.8614678  20.3374672  84.6377182  44.5348206   1.1775446
  84.1158066  44.5733185   1.9790157  84.0255737  44.2306519   0.5074779
  86.4383926  14.2278280  73.6455078  85.5482025  14.4299145  73.9335251
  86.8254929  13.7516127  74.3800812  50.8697395  10.6674824  69.7148361
  50.1606140  11.1012096  70.1894455  51.6268921  11.2395029  69.8403091
   4.5834379  39.0341492  53.1064453   5.4281268  38.8371849  52.7015533
   4.7294459  39.8539772  53.5784607  64.3518829  44.2135124  19.1241856
  64.4206314  43.3212814  18.7844448  65.0062561  44.7085686  18.6312866
  64.2621078   8.7297153  51.8853073  63.8198814   9.5599689  51.7082558
  63.5727501   8.1587152  52.2243958  73.8213425  50.8042336  66.8110657
  73.9993362  51.7262154  66.9968033  73.0152893  50.8151665  66.2949295
   1.0841569  12.8477650  64.6383972   1.5926501  12.4229231  65.3291779
   1.5603663  12.6472416  63.8326416  29.2822590  55.3116531  87.3606110
  29.4594269  54.7015533  88.0765839  30.0974464  55.8025322  87.2569733
  15.8132668  61.8462524  26.5444412  16.3911495  62.6046677  26.4602337
  16.3332367  61.1115952  26.2186508  33.2222939  69.0505753  81.5400085
  32.8151131  68.9586411  82.4013977  33.9037819  68.3786011  81.5242844
  40.7051353  15.8571587  87.2754288  40.2950439  16.6375751  86.9025955
  40.4001198  15.1385164  86.7215805  77.3857117  59.7589302  30.6250153
  77.9049988  59.8614273  31.4225559  78.0268936  59.7962418  29.9152794
  31.7024765  65.8276596  82.8778000  32.5254898  66.2503281  82.6323776
  31.1034088  66.5533905  83.0528793  64.4351578  26.7894077  10.5956402
  63.7584763  26.1883755  10.9072428  65.2219620  26.5349541  11.0777359
  72.0819244  57.9831734  49.6488991  72.5416946  57.5795021  50.3850365
  71.1547241  57.9036179  49.8729324  18.0351181  56.9413643  86.8846893
  18.3796616  56.3590431  86.2076187  17.5287285  57.5954475  86.4030533
  23.9660301  52.6627426  85.7758179  24.5873642  52.0212135  85.4314117
  23.1295700  52.1979218  85.7982864   4.3821602  54.2065392  60.6419334
   5.2234459  53.7506294  60.6667786   3.7713602  53.5627480  60.2831993
  53.0109253  69.0175018  41.5611725  53.2387238  68.1121521  41.7725296
  53.4440269  69.1842651  40.7240105   3.4501450  10.3676138  10.8023243
   2.6524129  10.5750332  11.2889786   3.1930943   9.6596489  10.2116108
  81.5813751  52.2910652  46.1489906  80.7661209  52.4244652  46.6325111
  81.5341797  52.9136810  45.4234886   0.9412776  67.7483902  86.0359344
   0.6676522  66.8334808  86.1014328   1.0356134  68.0357819  86.9440842
  74.3036423  46.3662491  56.3654099  75.2404709  46.2668381  56.5348244
  74.2278900  47.2147789  55.9289627  74.4513626  62.8340988  59.9766998
  73.7084808  63.0779610  60.5288773  74.8512497  63.6683578  59.7310600
  81.2200546  59.5916290  13.4502964  81.0635986  60.2519302  12.7752018
  80.5317688  58.9407883  13.3128386  79.0305481  17.3718796  11.2063761
  78.5300903  17.3665104  12.0223093  78.3659439  17.3954010  10.5179138
  33.7678070  35.2886887  18.5281563  33.9953270  34.4398766  18.9076061
  32.8493652  35.4182968  18.7645988  72.8591385  30.8022594  80.6369629
  72.6575470  30.5230389  81.5300598  72.6596603  30.0379829  80.0962906
  56.3014107  19.7210979  26.5389080  55.5531921  20.1788921  26.1557293
  56.0646133  18.7947922  26.4929180   1.0602807  19.4735527  49.8314781
   0.4611895  19.9489765  49.2558975   1.7234961  20.1199627  50.0734138
  36.5671692   5.9429779  88.8702545  37.3138351   5.4270387  88.5660706
  35.8375092   5.3235798  88.8834686  75.4354477  24.5898762  62.2465210
  74.5976944  24.8195190  62.6485977  76.0730743  24.6770096  62.9550896
  82.3572998  54.3811722  18.4062176  81.6740875  54.6154861  17.7780876
  82.5298157  53.4547958  18.2379894  63.9954109  52.0009804  18.4634781
  63.7223434  51.6600418  19.3151989  64.7162933  52.5978203  18.6643353
  69.6862946  29.0688210  54.3216972  69.2906265  29.7060223  53.7270050
  69.0137100  28.9093609  54.9838371   8.4253435  30.4427681  20.2068539
   7.6899853  30.5578480  20.8087139   9.1566849  30.1861420  20.7685604
  30.1554222  70.1320648  70.0767517  29.9188747  70.4582825  69.2085037
  29.4712906  70.4705353  70.6543655  21.4787369  50.0642509  66.1724167
  21.3216305  51.0047874  66.0891342  21.9650040  49.8316841  65.3814087
  60.7097969  58.8339806  32.2270889  61.6262856  59.1080284  32.1928291
  60.7304802  57.9829330  32.6647186  62.7168884   8.1813316  68.0968246
  61.8007278   8.1034203  68.3629303  62.6900940   8.1710882  67.1400528
  42.1072121  57.6111755  63.4652176  42.2175293  57.5284767  64.4124374
  41.2168579  57.3011093  63.2998047  44.6084785  57.7913208  39.1027489
  44.1354980  57.2319412  39.7188797  44.2508583  57.5595055  38.2456589
  51.2832909  26.1165981   7.9304752  51.5289040  26.9539089   7.5370078
  52.1118050  25.6486530   8.0345192  58.0624123  40.3944702  65.7819443
  58.3122864  40.0275764  66.6299896  58.7804375  40.1544838  65.1962204
  17.0010185  55.5097580  42.1123695  16.0556488  55.6550560  42.1497002
  17.0972862  54.6769409  41.6504402  46.2650681  54.4653473  74.3759384
  46.5589943  54.7578583  75.2386551  45.3211365  54.6241455  74.3779526
  82.3947144  49.7229156  44.9400368  82.9878998  49.3789825  45.6079178
  82.1085739  50.5682106  45.2862091  50.2840691  49.0195274  62.0106773
  49.4216614  49.2919235  62.3241806  50.8559532  49.1113930  62.7727432
  28.3259258  60.3956604  25.5980396  27.4679909  60.0193138  25.4017124
  28.2120113  61.3360977  25.4608307  22.0537682  47.9015274  60.5060234
  23.0012112  47.7882919  60.5819473  21.7205849  47.7288208  61.3865891
  62.4956093  27.8983154  87.5296860  62.2086487  28.0508957  88.4300232
  63.2050209  28.5265999  87.3946762   7.3210726  36.6790428  76.3535843
   7.7504234  37.4066811  75.9036560   6.3953366  36.9217339  76.3722153
  14.5359058  40.6233978  66.8502808  13.7687407  41.1935997  66.9008789
  14.4336042  40.1573219  66.0205002   3.1103809  43.5030136  80.8047638
   2.7975211  42.6517105  80.4987717   3.9747450  43.5984383  80.4047623
   8.8125286  55.9352074   2.0082715   8.6611433  54.9913940   1.9580010
   8.4728661  56.2766571   1.1810628  64.5475540  15.2261286  22.4668655
  64.3234024  15.6647921  23.2875729  64.2689819  14.3195133  22.5960197
  48.9212379  30.9530373  36.6987152  49.0785942  30.6180649  35.8159523
  48.4060860  31.7485847  36.5647163  29.0852375  50.1317596  54.0319252
  29.9201012  50.3652878  54.4377594  29.2669582  50.1335907  53.0921364
  28.2471008  53.8050461  73.7426987  28.0941086  54.2639236  72.9167175
  27.3952770  53.4331398  73.9714203  12.3580313   2.3956106  61.7622719
  12.2804060   1.6635947  61.1504211  13.2155800   2.7762899  61.5727310
   4.8870687  59.5962563   9.3622808   5.0813203  60.4028015   9.8397589
   5.7329693  59.1554108   9.2826595  71.1159363  31.7719822  84.4331360
  71.1385651  31.2554626  83.6275787  70.2059479  31.7200813  84.7254486
   3.3213830  44.4205399  30.9746704   4.1958613  44.7978668  31.0702991
   3.4243605  43.7438774  30.3055267  67.3676987  21.9620514  70.0747604
  68.2867203  22.2139301  70.1652069  67.3962402  21.0421371  69.8117523
  72.7669678  60.4743576  25.3103218  72.6069717  60.4216385  26.2525826
  72.3123016  59.7142830  24.9472828  70.7339020  22.9790192  61.8800583
  70.7151413  22.4665279  61.0718269  69.8148193  23.1777477  62.0590363
  22.5744572  27.9278221   8.0883646  22.8822365  28.3265095   8.9023390
  22.1589241  27.1107693   8.3640242  21.5037060  11.8116255   4.7180123
  22.1094170  11.4333534   5.3553939  21.8797646  11.5861673   3.8671424
  55.3889313  57.1622467  43.3527870  56.2682495  57.4937210  43.1706886
  55.5089874  56.5517273  44.0801697   2.0965834  18.5400791  65.5129852
   2.8361261  19.1202621  65.6938019   1.7022256  18.8957958  64.7166290
   1.2694325  37.7688179  82.5474396   1.9443504  37.7677650  81.8686752
   0.8851179  36.8932114  82.5044174  53.1777916  22.6272278  15.8409977
  53.9975815  22.9725533  16.1944466  52.6308327  22.4733562  16.6113148
  80.5602264  24.0897179  66.2978973  80.8986130  24.9819565  66.3729477
  79.9108582  24.0201817  66.9977036   6.8363914  66.0419312  77.3628387
   6.9404554  65.9468613  76.4160767   7.3866591  65.3526154  77.7346954
   6.0463638   5.4621153  19.9262867   6.1520486   4.5262098  19.7555752
   5.1455965   5.6530609  19.6647739  31.6302433  57.3058929  65.8176727
  31.1298275  56.6586075  66.3144989  32.4489822  57.4007111  66.3044052
   4.6315036  46.9034348  66.3910828   5.2169795  46.5378418  65.7279129
   3.7535655  46.7777061  66.0310135  38.5161438  37.4851761  76.2655945
  38.8700523  36.7404518  75.7794189  37.5672417  37.4057159  76.1681213
  74.9132996  46.9718170  86.9415665  74.2126007  47.3088303  87.4998474
  74.8830109  46.0231667  87.0655670  76.9964600  21.1653233  82.9849167
  76.5043869  20.3837509  83.2363892  77.5751877  21.3335552  83.7285614
  19.0091286  69.4817505  77.9732361  19.0593414  69.8285599  78.8639832
  18.8461266  68.5457230  78.0894852  74.2422714  46.4809837  53.3511086
  73.3886566  46.2169914  53.6944542  74.5636749  45.7075272  52.8877487
  34.2997551  47.7101707  47.6203156  33.5486908  47.1169510  47.6052094
  34.7198067  47.5433388  48.4640884  74.3570709  33.7003555  60.9689636
  75.0164948  33.0311852  60.7856636  74.6267853  34.0796280  61.8054047
  73.2570724   2.2723427  56.4201279  72.9636536   1.7913628  57.1939468
  73.0668716   3.1886373  56.6212730  69.9129639  43.4826469  27.6626225
  70.8308105  43.7363663  27.7597065  69.4489594  44.0082436  28.3142967
  81.8928299  26.8921509  59.9566498  81.4213409  26.2888908  60.5311165
  82.7031555  27.0871258  60.4273796  34.1851349   4.5743370  74.7918015
  34.8908539   4.0276575  75.1372452  34.1140671   4.3204956  73.8716125
   5.4604955   5.6055703  78.2899094   5.4915762   6.4762416  78.6863937
   5.1180563   5.0394783  78.9816513  27.2949276  41.7521706  82.8710480
  27.4796371  41.1775055  82.1281662  26.4535141  42.1558342  82.6581879
  37.1933670   0.4303522   3.6582296  37.9255371  -0.0327572   4.0652795
  37.4992561   0.6316762   2.7738471   4.3570867   8.8447905   0.5541841
   3.7664616   9.5968809   0.5960541   4.9554257   8.9688234   1.2909595
  52.2631302  53.9554825  37.2213173  53.1282768  54.3325424  37.0613937
  51.8053818  54.0431404  36.3852463  60.1240082  29.9939671  40.2815475
  60.1247025  29.2313824  39.7030182  60.1071167  30.7448063  39.6880951
  39.7373695  62.9943810  24.4222069  39.6007385  63.7679825  24.9691086
  40.2914314  62.4212685  24.9521046  22.4429989  55.9398613  18.8455238
  21.5283051  56.1635742  18.6737099  22.4224510  55.0124969  19.0817642
  64.4767303  51.6163292  43.5979843  65.0170975  52.3301849  43.2593803
  64.0274811  51.2696075  42.8271484  55.1382599  53.5814514  10.8563242
  55.4712830  53.8347130  11.7172461  54.4920120  52.8997917  11.0405369
  17.2147789   1.5195415  50.4948502  17.8380299   2.0619156  50.0115051
  16.9216557   0.8669453  49.8589020  19.3572674  50.3914299  33.2729111
  18.4810524  50.6808167  33.0184784  19.7143097  51.1229973  33.7764626
  31.4424744   7.3528166  79.7451477  30.9318237   6.6032171  79.4392624
  31.4502068   7.2644696  80.6982269  65.1455612   7.2532725  44.6664314
  64.6177063   7.9525814  45.0518723  66.0492935   7.4976835  44.8658447
  63.5332298  36.8066940   2.6151900  63.9593925  37.0488319   1.7930059
  62.8213196  36.2229691   2.3531184  68.7358475  46.8196907  59.4707947
  69.4619370  47.4387360  59.5470352  69.0098648  46.2126122  58.7833366
  20.6748638  10.3156872  59.5637283  21.3160610  10.0689650  58.8972282
  20.3433456  11.1656656  59.2741356  23.3578224  35.2041931  24.8467388
  23.9003410  34.6213493  24.3155136  22.8773956  34.6177368  25.4311104
  75.1955338  47.7465553  68.3468399  75.4396210  46.8941422  67.9862213
  75.7707062  47.8601036  69.1034851  65.4538574  12.6414833  31.6839314
  65.6730042  12.0267439  30.9837151  64.7540741  13.1821842  31.3176365
  65.8763657   7.6112890  37.2572517  65.1614151   8.1945124  37.5120583
  66.6653061   8.0409546  37.5876961   2.4317336  58.1778870  79.4262772
   2.8505816  58.0405464  80.2759476   2.3795135  59.1293907  79.3359985
  80.2036209   8.2903757  15.0303440  79.2812119   8.0471077  14.9515162
  80.3164215   8.5050621  15.9563131  43.0669518  51.6252403  60.5258179
  43.0688629  51.6213379  59.5686264  43.9556999  51.3651886  60.7681656
  74.4497604   7.9853158  77.0301590  74.8088074   7.9984436  76.1429443
  73.5154648   8.1573429  76.9130020  12.1520662  57.0796051  21.6249561
  11.6294374  56.2780228  21.6013374  11.8439569  57.5435638  22.4034424
  57.3045578  56.7617874   5.8980103  56.9254646  57.3630257   5.2568970
  56.5747337  56.2012978   6.1615310  59.5352478  14.5244932  79.1129150
  59.9605026  14.4854832  78.2562561  59.0125198  15.3258572  79.0845566
   2.1607783  44.5774345  85.6209717   2.3990471  45.3862610  86.0740280
   2.9904616  44.2369995  85.2863617  84.0410385  66.0441437  54.2207603
  84.7574615  65.7116623  54.7615280  84.4509506  66.7003479  53.6571999
  27.4147263  56.2841721  61.9928246  26.6540070  56.8349113  62.1778107
  27.1170940  55.6874352  61.3061256  60.9679184  51.5075378  88.3480988
  60.5616646  50.6442986  88.2705917  60.3824348  51.9967575  88.9261169
  77.5955124  15.7467566  21.3960457  78.5319138  15.7883301  21.5900917
  77.2996597  16.6556320  21.4475212  78.1223068  50.1136436  89.1053696
  77.8069305  49.5171509  88.4264221  79.0686340  49.9716263  89.1282349
  78.2248306  54.3177528  27.1313534  78.5507660  54.1923981  26.2401257
  78.9258652  54.7921867  27.5782356  76.4447174  10.8802385  33.1379585
  76.0579453  10.0136633  33.0126991  76.8942490  10.8223028  33.9810448
  33.9029274   3.9051352  61.5186386  33.5736084   3.3674886  62.2388573
  34.5690765   3.3609650  61.0986900  68.6515732  54.3995743  77.6525497
  67.9256058  53.8526878  77.9527512  69.0592957  54.7193489  78.4573669
   8.9438238  58.5754051  39.2847214   9.8878317  58.5144424  39.1385536
   8.5927773  58.8939438  38.4531364  14.6945839  68.1214600  57.5327148
  15.3031015  68.3267288  58.2425079  14.7511377  68.8738098  56.9436493
  64.0872574  27.1784134  40.9582481  64.3086929  27.0750256  41.8837242
  63.1900063  26.8523064  40.8887787  81.2960129  26.7210274  66.1988983
  81.3333206  26.5650539  65.2552261  80.5436096  27.3009853  66.3162384
  11.6133575  58.7367477  32.8579750  11.4948807  58.5879364  31.9198666
  10.7928104  59.1394958  33.1421051  65.5498962  70.4023132  80.5308075
  66.2484131  69.7730255  80.3510895  66.0063171  71.2298126  80.6829987
  46.0619087  30.5950394  15.2844181  46.4828987  31.2781696  15.8062735
  46.1949768  30.8703423  14.3773708  53.8786736  46.5387688  24.5295563
  53.9237938  46.7919579  23.6075535  54.7651634  46.6821060  24.8609562
   1.3570979   8.4818964  69.8941879   0.9044840   8.5665998  70.7333527
   0.8927066   7.7778230  69.4415817  85.0357971  27.6992397  47.5130196
  84.2319183  27.2259865  47.7275887  85.1274338  28.3454685  48.2131805
  56.3722572  70.9148636  23.5742283  55.4714928  70.7029190  23.8190308
  56.4544296  71.8519363  23.7513714  60.8787460   3.3350232  28.6225166
  60.7876205   3.2005541  29.5658321  61.2201958   2.5033598  28.2939110
  24.4190922  70.2498016  34.2837563  24.1216679  69.8570023  35.1044159
  24.9578819  69.5722046  33.8753433  64.3978119  40.2932320  87.0988312
  63.4872894  40.3805771  87.3808670  64.9050140  40.7139244  87.7930908
  25.8639584  50.0448036  48.3931732  25.7708302  50.0669670  49.3455734
  26.7322044  49.6696434  48.2460823  65.7570267  24.4242573  20.0915775
  65.1397858  23.8435650  20.5365925  66.5060577  23.8650131  19.8855629
  74.5643921  63.3317223  38.3925285  75.4477768  63.0091858  38.2141266
  74.5352707  64.1931000  37.9761047  66.9378433  62.6994629  64.9720459
  66.7989578  61.9749870  65.5820312  66.9686432  63.4780731  65.5279694
  40.8786240  67.8686829   5.4476671  40.5427055  67.1201477   5.9407120
  40.5270004  67.7514572   4.5651422  16.5051594   5.6079073  21.5798416
  15.9202738   6.3586597  21.6823654  15.9190283   4.8528795  21.5287113
   7.1230431  53.7737808  14.5348730   7.5417032  53.9808311  15.3703871
   6.4634533  54.4581032  14.4214010  50.7187538  41.3315811  42.4025688
  51.0846519  41.2765846  41.5197754  50.2386322  42.1596069  42.4116859
   1.8283864   1.5586281  19.4588642   1.7687103   0.6204231  19.6389828
   2.6857996   1.6695846  19.0480576   8.5947723  66.3982773  87.2864456
   8.3219433  67.2701492  87.0007248   8.2241917  66.3070374  88.1642761
  12.2353020  43.5275612   4.9970779  11.9694490  42.9250336   5.6917119
  11.6706877  44.2916527   5.1137156  27.7475395   1.6872934  76.5258026
  27.7396450   1.0015372  75.8580399  28.3783092   2.3301091  76.2015381
  18.7916374  52.3354263  62.7842331  18.5991268  52.9397507  62.0673218
  19.6014004  51.8993530  62.5189857  70.4552612  27.9383564   3.2987518
  70.8802719  27.2907524   2.7364256  69.6076050  28.0968151   2.8833008
  42.5436096  51.9783211  21.8624821  43.0749130  51.9936485  21.0664196
  42.4036446  52.9011192  22.0748272  50.1310272  67.5358276  60.2885170
  50.4526291  67.8638458  59.4487495  50.5225372  66.6663361  60.3718262
  11.3780336  39.3589668   4.9823747  10.8305550  38.5921402   5.1511216
  12.2620687  39.0790138   5.2197351  66.0792847  16.0122528  41.1309357
  65.5097656  16.4076214  41.7909088  66.9665298  16.2111435  41.4300499
  69.1534271  67.0030746  22.7151089  69.0483017  67.9483109  22.6068668
  69.4692154  66.8984299  23.6126385  32.6090012  53.4626617  65.3559799
  33.1228256  54.0667229  64.8199539  33.2613754  52.9704514  65.8543549
  65.8187180  26.7448902  76.6904678  65.5652466  25.9691677  76.1902313
  66.5968018  27.0756207  76.2416611  51.8400574  47.1698799   1.4719707
  52.6738892  47.6343346   1.5443457  52.0834541  46.2448235   1.4364610
  20.8478069  24.7475433  17.6061306  19.9585171  24.4046021  17.6943779
  20.7742081  25.6699390  17.8510818  56.0230751  18.5473099  65.4802933
  56.8705254  18.1347618  65.6472168  55.3831329  17.8543377  65.6430817
  42.3545723  66.6732712  17.7460041  42.6912727  66.9939499  16.9093266
  41.5164452  66.2662201  17.5267200  62.5082054  61.7383385  16.3370438
  63.1457520  62.4113312  16.0986137  61.6913109  62.0275078  15.9304762
  86.2518234  32.1995850  46.9220314  85.6438828  32.3275299  47.6502266
  86.6358795  33.0641022  46.7759323  77.4506226  14.6084785  61.8373909
  76.5916901  14.6256018  61.4152946  77.5625076  13.6995802  62.1159897
  81.3061066   6.0339708  68.8514938  80.4645615   5.5894184  68.7494736
  81.7674789   5.5235791  69.5169754  83.5910034  25.9790840  49.2521477
  82.8659592  25.3675671  49.1233368  84.0144653  25.6822453  50.0576286
  28.4108601  68.7971268  65.2391129  27.7093029  68.3729248  64.7450485
  28.1378784  68.7239075  66.1536331  10.2029037  63.1114998  76.4671707
   9.5129204  62.6432610  75.9971619  10.8948336  62.4610634  76.5871658
  58.2421150  14.7180166   1.0726279  57.7245064  14.8898163   1.8592643
  57.9658432  15.3924437   0.4521011  80.4089890  55.2419968  16.7090969
  80.3849640  56.1190414  16.3264198  79.4904785  55.0252151  16.8690281
  82.1182098  55.5363617  84.5871658  82.1854935  54.7483444  85.1263580
  81.4564209  55.3211021  83.9299545   6.7583613  11.0456076  77.3574829
   6.9189720  11.0725975  78.3007278   6.3218913  10.2060938  77.2127686
  48.2401505  50.7281570  33.7450218  47.3075638  50.5150032  33.7778358
  48.5910988  50.3954239  34.5710678  17.3780880  59.8555946  75.3693542
  17.2004471  60.5336227  74.7174683  17.4756870  60.3343811  76.1924362
  17.1247807  55.6688423  75.4568939  17.8072701  56.2985611  75.6890411
  16.3143158  56.0653038  75.7765732  38.5341072  11.8598690   0.9047821
  38.0999794  12.1268091   1.7150341  38.7184029  12.6816349   0.4498443
  76.3649063  31.8749847  64.7908630  76.3753433  32.8144493  64.6077499
  75.4378204  31.6375504  64.7718582  53.9646530   1.9974116  35.2824783
  53.3711548   2.2037165  36.0045776  54.1850395   2.8481255  34.9030762
  29.4412975  44.0445213  57.5755959  29.0196877  43.6313400  58.3290939
  28.7336903  44.5119591  57.1317215  78.6467209  29.9682579  38.2276840
  79.1055603  29.1293678  38.2719536  77.7440109  29.7362938  38.0096474
   0.9189163  29.3315163  17.5248585   0.9075544  28.8525982  16.6961613
   0.2028227  28.9493446  18.0321922  50.4485550   4.9516902  37.2937202
  50.7461205   4.0419459  37.3009758  51.0702744   5.4115496  37.8578339
  86.7538300  59.7734756  24.0695210  87.3771896  60.4469261  24.3417721
  85.9894867  59.9147072  24.6281433  44.1268158  70.1132431  10.6659012
  44.0103531  69.3417435  10.1114159  45.0361137  70.3758698  10.5229673
  56.5343552  48.4295845  52.0115509  57.2864380  48.9520912  51.7329979
  56.6641006  48.3052826  52.9517365  44.9341507  13.5405607  62.7708588
  45.8512192  13.8130884  62.7400589  44.9169998  12.8294182  63.4113388
  85.9332581  61.0573540  46.7678604  85.3968201  60.2756882  46.6357231
  85.4938507  61.7383118  46.2584915  31.0319824  56.1042824  12.3101463
  30.3824501  55.4410210  12.5434341  30.7740631  56.8784904  12.8104544
  35.7611084  47.8179779  65.1972275  35.1354103  48.5402718  65.2522659
  35.6817703  47.5003815  64.2977448  18.4476204  39.3607407  48.7974014
  17.6142273  39.0273857  48.4648895  18.7640915  39.9447594  48.1081963
  28.1040497  42.3089218  59.5208130  28.1280994  41.3526001  59.5539474
  27.2947216  42.5440254  59.9746246  18.6015167  57.6963501  83.5485382
  17.7032433  57.5263443  83.2649307  18.5067425  58.2337837  84.3349380
  53.0015984   0.4830640  23.1951675  52.6104698   1.3543015  23.2599354
  53.2856750   0.2811804  24.0866699  16.7204514   0.2593249  69.3235016
  16.6294918   0.8193465  70.0944290  17.6043510   0.4365135  69.0016937
  48.9559212  50.4398155  18.6653519  49.6426620  51.1054649  18.7044106
  49.2607727  49.7465363  19.2507229  61.3840714  61.2282753  39.4087906
  62.3263931  61.3468704  39.5279236  61.1028404  62.0089760  38.9316750
  34.0125999  56.3431740   8.0146294  34.7259560  56.9614372   7.8561873
  33.7115364  56.5466690   8.9001694  78.9406815  47.2956963  17.9216099
  78.5333939  46.4991684  17.5811787  78.8252869  47.2371788  18.8700256
  82.2155228  41.7426033  52.6327209  82.0418625  42.2536507  51.8422127
  81.5282440  42.0066452  53.2444115  27.3161411   2.6349757  29.7830105
  27.9249878   3.1171048  30.3425522  27.2506313   1.7707313  30.1892395
  16.8451538  44.2952766  45.2674408  17.2974186  45.1271095  45.4079361
  15.9185305  44.5032310  45.3872566  10.2814150  57.3843460  47.0122833
  11.1518269  57.2969475  47.4008408  10.3855467  58.0582886  46.3405762
  52.8708496  11.4702864  17.5586681  53.4501610  11.3754339  18.3147316
  53.4612923  11.6369448  16.8239346  26.3972912  19.1125526  15.2825108
  26.9289474  19.7138290  14.7609367  27.0279808  18.6580238  15.8409615
  45.2630653   3.9996185  29.1525497  44.9792099   4.7165017  28.5853310
  45.3316154   3.2445977  28.5681896  76.1807251   4.7968855  86.9261398
  75.8776398   3.9555600  87.2675247  75.4268723   5.3791761  87.0203247
  85.6381836   7.0018353  16.4530869  85.0733414   6.3293924  16.0722904
  85.7057266   7.6714673  15.7724533   8.8799124  17.0006313  87.6868439
   9.3301268  17.1103172  86.8492813   8.8024645  17.8887997  88.0352554
  34.2093430  57.1170769  83.4103317  33.9867325  57.8559608  83.9766617
  34.4057465  57.5157547  82.5625610  74.8360519  39.5236473  56.5836449
  75.1520233  39.3143730  55.7046700  75.5454025  40.0305061  56.9787941
   3.1737051  69.7553101  21.2313881   3.9519017  69.7473450  21.7886829
   2.8540895  68.8533173  21.2534180  11.2952576  53.0231628  62.6388855
  11.5640249  52.4819450  61.8965378  10.9331131  52.4012566  63.2700081
  67.0803375  64.8121490  42.9834366  67.8837357  64.9295044  42.4764824
  67.1754456  63.9492340  43.3866348  58.0766983  20.5833740   2.4625404
  57.1618805  20.6415176   2.1869383  58.4044151  21.4802475   2.3958075
  67.8968735  45.0388336  51.3812408  66.9777374  45.2853546  51.2780380
  67.9284058  44.1179276  51.1220703  68.5620041   7.5636816  62.9534874
  67.7282715   8.0296526  63.0167122  68.7385483   7.5150390  62.0139656
  51.1182594  19.4948750  84.5023193  51.8909645  19.9591160  84.8242493
  51.1287613  18.6595345  84.9695740  17.2163887  46.0856705  51.6928024
  17.9936867  45.9132080  51.1614876  17.2154255  47.0350761  51.8147125
  21.6983662  37.7097435  67.4828033  20.9959507  38.3180466  67.7126083
  21.3902874  37.2781715  66.6858902  61.4935722  34.8711891  32.9108315
  60.8801422  34.7460709  32.1867599  61.1900330  35.6673126  33.3470459
  78.1112823  15.0294809  69.1827545  78.9551239  15.3866549  68.9060211
  78.3305206  14.2030544  69.6130829   1.9019771  47.6236572  72.0066071
   1.3819152  47.2300453  71.3060074   1.4836084  47.3229904  72.8133240
  18.8849621  66.6069107  78.5075226  18.2281456  66.7773285  79.1826401
  18.8799839  65.6554184  78.4032745  26.3711338   7.3717194  74.2824554
  26.2213249   8.0302296  73.6041031  26.6473312   7.8752437  75.0482254
  55.4007607   8.6781998   7.7461977  56.0631256   8.1730766   8.2177420
  55.8849182   9.4101305   7.3639703  79.3978195  43.2719994   6.4607782
  78.4602051  43.3414078   6.6404705  79.6558456  42.4380302   6.8534026
  30.7208939  70.3667068  12.6319056  31.4899464  70.8504868  12.9331512
  31.0421181  69.8361664  11.9028206  50.7350159   4.6308203  34.1267929
  50.4573441   3.7343681  34.3152199  51.0973701   4.5883174  33.2418480
  75.4793777  42.3840637  33.6834717  75.5381546  42.4569092  34.6360855
  75.1539078  41.4969482  33.5307274  68.2158051  32.3121681  11.5870562
  67.7242050  31.4972439  11.4847794  68.4817581  32.3176613  12.5065508
  85.8694992  41.6954536  54.1476173  85.7314453  41.5383034  55.0816803
  86.7914581  41.9437828  54.0802116  59.8135185  15.2562904  60.9316139
  59.7166252  14.5300999  61.5476418  58.9179230  15.5503016  60.7651787
  71.0688019  57.0086098  65.4875183  72.0038223  57.0770531  65.2944183
  70.6436539  57.5156479  64.7958603   1.7128485  60.1382675   3.5180812
   1.3344954  59.7824440   4.3221149   2.6250854  59.8487854   3.5341039
  56.1786957  61.6807556   4.9452128  55.2353630  61.8180771   5.0318346
  56.4178429  62.1560059   4.1494880  19.8845482  12.3283529  35.9334373
  19.8341408  12.9775352  35.2318306  20.7633133  11.9573326  35.8537712
   8.6047916   4.5550075   4.2215199   8.3232708   4.5236216   3.3071933
   8.5385275   5.4794106   4.4609337  68.1694717  26.6593246  21.3834915
  68.2967911  26.8109474  20.4469910  69.0053635  26.3028450  21.6842213
  68.9371948  63.0410576  44.2590714  68.1082458  62.5943184  44.4308472
  69.2827988  62.6119804  43.4763336  37.2230072  -0.2571045  72.0832672
  37.7066879   0.2641531  72.7240295  37.1898651   0.2945494  71.3017197
  65.3279572  44.7315140  24.2662601  65.8622589  45.3484993  23.7661819
  65.9624252  44.1494598  24.6844711  75.1626892  49.4724808  37.0961647
  75.2054443  49.2847786  36.1585236  74.4838028  50.1425819  37.1755714
  61.8393402  39.9611015  88.5388565  61.0298119  39.8904533  88.0329895
  61.8860321  39.1418839  89.0317459  40.9464111  40.2902031  56.7901802
  40.5893135  40.6623459  57.5965462  40.7512589  39.3550835  56.8510056
  33.1699104   1.2675463  51.5730400  32.8353157   1.2469921  52.4696159
  32.4109230   1.5031043  51.0394821   2.6426837  61.2351990   8.4986858
   2.5910368  61.6076431   9.3789425   3.3419852  60.5839996   8.5547943
   0.4391419  62.1564026  37.7467918  -0.0489222  62.3187637  38.5540504
   0.0568521  62.7604027  37.1101837  70.2048187  23.8031540  53.5181694
  70.5874557  23.8571949  52.6424408  70.8603973  24.2010937  54.0909615
  51.1878052  52.8231659  40.9957504  51.1331100  53.0945778  41.9120331
  51.4935951  53.6031456  40.5327606  34.5220451  59.8473091  53.9189453
  33.6967812  59.5607834  54.3101921  34.8547363  60.5122948  54.5217209
  21.8393574  46.6473694  49.7512474  21.7597160  47.4960785  49.3158340
  22.7692375  46.5748978  49.9664307  81.4429855  34.7127228  87.7094650
  81.1998520  33.7949562  87.8311996  82.0245285  34.9059982  88.4447784
  57.5951576  34.4077682  72.7116776  58.0549164  33.6108093  72.9757080
  58.1920776  35.1179199  72.9474792  27.6068916  14.4073706  86.5967560
  27.7941113  13.7423248  87.2592468  26.9178162  14.9458208  86.9859619
  51.7728615  31.1069813   6.8404627  51.2344894  31.5179272   6.1640654
  52.3086777  31.8206806   7.1865368  27.5145321  71.1367645  20.8851700
  27.4083138  70.7250137  21.7427311  27.2505264  72.0466080  21.0219860
  84.5313797  47.6218224  75.2628403  84.4600067  48.3561363  75.8726959
  84.0458069  46.9125862  75.6840668  38.9100723  65.5052032  79.3894958
  38.8010063  65.5791321  78.4414062  39.8448792  65.3389053  79.5108032
  47.6294365  17.7663746  87.1697845  46.7545280  17.6189594  86.8105698
  47.5723228  17.4573555  88.0739288  82.9987259  51.5625992  35.0518188
  82.9808655  50.6185608  34.8946381  82.4524765  51.9313622  34.3576584
  56.9547272   5.2969222  44.4723587  57.2006798   6.0294433  43.9074211
  56.3869743   5.6871042  45.1369247   5.0781598  13.8899527  84.6474686
   5.9338908  14.2822428  84.8208618   5.1271958  13.0217457  85.0475235
  20.7743931  68.6911697  15.1028519  20.2956028  69.4751129  15.3719645
  21.5475922  69.0266876  14.6491776  13.3373251  58.1244545   1.0619699
  13.2253227  57.5874557   1.8463926  12.8233528  57.6768303   0.3898842
  70.9912338  21.9838753  56.9934006  70.3832092  22.2816944  56.3167610
  71.0480957  21.0371132  56.8644104  64.9959564  21.8590984  17.4734573
  65.4590454  21.4531002  18.2062225  64.3145218  21.2281151  17.2416286
  42.3503342  55.4454536  53.8575401  43.0336494  54.9396324  54.2973747
  41.8269997  54.7902985  53.3958893  12.7600489  30.0457973  82.0787125
  13.4762230  29.5373554  82.4592590  13.1119432  30.9323463  81.9985123
  62.8390045  37.0060768  57.8461075  63.7666817  37.1643829  57.6712265
  62.6655083  36.1476898  57.4597015  34.1467323  23.6795807  73.0009155
  34.7908134  23.2681408  72.4246368  34.1073952  23.1046810  73.7652283
   8.0195904  49.9157639  84.9005737   7.6981239  50.6844482  84.4293900
   8.6788149  49.5368042  84.3191605  32.8809624  31.0575161  72.3267212
  33.1803360  30.2270927  72.6968689  32.8604240  30.9050846  71.3819656
  74.8157730   4.3426666  24.1691265  74.6770401   4.7270398  25.0347137
  74.1510849   4.7526665  23.6156635  39.9050865  53.8835907  20.8711243
  40.2132187  53.1471443  20.3429813  40.6703110  54.1493874  21.3810368
  36.9992790  41.7293549  58.9305229  36.6095581  42.4445915  59.4333076
  37.8451920  42.0723152  58.6423569  29.3600330   8.9238691  65.5530167
  29.6918964   9.6625519  65.0426712  28.5102024   9.2203588  65.8787689
  13.8355322   0.1786971  58.8671341  13.9581442  -0.7500208  59.0638123
  14.5603685   0.6158872  59.3140221  52.7250481  57.3996925  70.7349091
  51.8701477  57.0806084  70.4458389  53.1869965  57.6146355  69.9245834
   0.5160656  71.2753143  86.1555023  -0.3311010  70.8473434  86.0314560
   1.0129477  71.0558624  85.3673477  50.6523209  43.1909676  68.7067947
  50.4465828  44.0517731  69.0713730  50.7653694  43.3486404  67.7694626
  12.3144026  39.0745049  73.9973068  12.1421528  39.9568138  73.6685333
  11.8446770  39.0333595  74.8303070  26.8551579  46.2343826  21.1212158
  26.4848003  45.5056801  21.6192703  27.1918030  45.8310280  20.3210869
  28.5179749  50.6043968  80.2565002  29.3755989  51.0181389  80.3541260
  27.8934002  51.2871132  80.5015182  71.4972305  70.9056168  37.8841972
  70.5789108  70.6687164  37.7546234  71.9143448  70.7161713  37.0437431
   2.0785112  56.0068741  60.7670784   2.8380585  55.4312057  60.8561020
   2.1828399  56.6510658  61.4673386  17.5319290  19.6890564  11.7281809
  16.7641354  20.0675488  11.2998466  17.1802731  19.2397785  12.4967642
  40.8216057  61.3218002  88.0475082  41.4020195  60.5944672  87.8231430
  41.2581635  62.0954018  87.6908646  46.0248833  19.9661083   4.3571658
  45.0966949  19.9422474   4.5898280  46.2805672  20.8795586   4.4854970
  34.4270210  29.1645889  64.1511917  34.9790077  29.5543575  64.8291397
  34.9145699  29.2993851  63.3385658  21.4033966  46.5165749  86.7506866
  21.4655437  46.5057755  85.7955704  20.7965813  47.2313919  86.9431534
  56.7466736  64.7373581  17.1874599  56.3935776  65.5926666  17.4324017
  56.0275726  64.3041382  16.7276287  21.3028030  43.2714767  84.2675705
  21.2129173  42.7581444  83.4646683  22.1026936  42.9398956  84.6755600
  85.8014908  33.4230881  29.4160595  86.0992737  33.7677155  30.2579575
  85.8551865  34.1694984  28.8192158  46.5533371  71.3634872  81.0157166
  46.3147697  70.7808609  80.2947083  46.3634033  72.2420349  80.6865997
   0.5655036  58.8540688   5.9443359  -0.1536053  58.3224258   5.6030560
   0.6825079  58.5493965   6.8441782  23.1792603  40.9325371  78.1502609
  22.3199291  41.3497543  78.2111816  23.7675095  41.5265732  78.6164322
   1.6420896  11.8648558  40.4910011   2.1243196  12.6837950  40.6051254
   1.0180166  11.8512650  41.2166595  10.9980431  38.8567619  61.4936104
  11.6458130  38.5864639  62.1444283  10.5012121  38.0605888  61.3051834
  18.3126507  37.0994492  53.3977547  18.7714024  36.9326286  54.2211304
  18.8606415  36.6865425  52.7303391  64.8294220  10.7947512  27.7904415
  65.5011444  10.5784302  27.1437321  64.2501373  11.4079943  27.3381271
  68.8626785  12.7256203   4.5602875  68.0805511  13.2691631   4.6555114
  69.1307755  12.5322294   5.4585948  69.9300003   2.1507580  34.5814743
  69.8685303   1.7807759  33.7008133  69.1468201   1.8322613  35.0302734
  72.6192245  13.2785168  77.7255173  73.1633148  13.4002275  76.9474487
  72.9875488  12.5076275  78.1571426  66.6635284  24.3693676  72.7393951
  67.5714645  24.3647842  72.4362946  66.3137054  23.5230942  72.4606934
  62.5863762  14.7072697  50.2684593  62.0466728  15.0485859  49.5553970
  62.1870689  15.0628500  51.0624046  44.1051674  37.8594208  15.2976370
  43.4118996  37.2375069  15.0766582  43.6609917  38.5467949  15.7940865
  68.4087524  40.5544510  32.0226212  68.1833038  41.2055397  31.3581791
  68.2417908  40.9948921  32.8559074  76.8844986  65.6850586  11.4252176
  76.8825073  66.6212082  11.2256012  76.3874741  65.2867432  10.7106943
   3.4052026  33.5360641  64.2362823   3.6004329  32.9854317  63.4780502
   3.7969410  33.0722618  64.9763260  54.7679863  14.8117590  49.2960129
  54.9764366  15.2021055  48.4472427  55.0728302  13.9071836  49.2249756
  41.9949303   0.3332293  71.8120575  42.7369270   0.8593305  72.1101990
  42.3484001  -0.5521111  71.7256699  61.7155457   0.4629741   7.0170598
  60.8516579   0.5864096   7.4103713  62.0356865  -0.3563569   7.3944693
  36.0947266  30.4211006  82.0699158  36.3724136  30.4374256  81.1540298
  36.6842194  31.0336075  82.5098801  32.1770058  16.1064720  79.3746414
  32.0728645  17.0571365  79.3343430  31.8910542  15.7975483  78.5149689
  18.9153767  62.5886230  72.9068298  19.2276859  63.1097221  72.1671295
  17.9671688  62.5428658  72.7841873  17.5533752   7.7213855  60.9528542
  18.4913158   7.8522186  60.8136330  17.1469822   8.5171118  60.6094933
   6.2693520  56.9742050   3.9814212   6.2635517  56.3840523   3.2278192
   6.7934966  57.7224350   3.6956606  54.8100014   2.1154256  44.2837563
  55.4073563   1.9069101  43.5654831  54.8747826   1.3651487  44.8746223
  41.0985184  34.1836014  62.8268776  40.6349220  35.0145378  62.9310875
  40.7001419  33.7822914  62.0545578  85.2916183  41.1297569  88.3601761
  85.6343384  40.8173752  87.5228043  86.0004272  41.6582794  88.7268982
  71.0709686  69.5136337   8.5265779  71.1792221  70.4642792   8.4985847
  71.7960205  69.1744537   8.0017128  68.9122162  44.7891922  53.8820305
  69.6563416  45.3825531  53.9841805  68.5345612  45.0224152  53.0339661
  79.8150864   8.4357557  53.2970581  80.2201309   9.1850777  53.7337379
  79.2626343   8.8238525  52.6185226  67.2546539   2.9947028  60.5922165
  67.5408859   3.5975821  61.2783890  67.6399460   2.1532631  60.8366699
  50.1875229  65.4234238  32.2191315  50.1311913  65.3810043  31.2645321
  50.3063469  66.3536453  32.4109497  24.2127209  45.2730446  44.8363609
  24.4936657  44.7867470  44.0612411  23.3012371  45.0111313  44.9660873
   6.1186128  13.3152142  81.4651413   6.2174292  13.0020103  82.3642349
   6.9927058  13.6184654  81.2197189  63.4079628  54.1556778  62.1190643
  63.4861679  53.2674980  62.4672852  63.9362984  54.1474037  61.3209267
  32.1270447  61.1737518  48.5124741  33.0187187  60.9746780  48.2269630
  31.7159595  61.5791054  47.7489777  44.6873512  52.3617859  77.5730743
  44.5597458  51.5412636  78.0492020  43.9957275  52.9377823  77.8988342
  74.4010086  30.0115051  31.5495052  73.6933289  30.1095543  32.1865349
  75.0213852  29.4163532  31.9704056  43.6391792  18.2768917  69.5943069
  44.3687286  17.6597595  69.5382462  42.9785919  17.9214840  68.9997177
  54.0626068  34.8795128  19.3269119  53.7159195  34.6566353  18.4629879
  54.7085037  34.1969948  19.5091686  11.6194010  56.4690742  34.2008324
  11.6984615  57.2182426  33.6102982  10.7952204  56.0520744  33.9496994
  73.8865204  33.4773216  13.4774342  73.9000778  33.7738914  12.5674372
  73.1414032  33.9345474  13.8672781   7.1872168  43.3870659  83.3063507
   7.1372213  44.3429604  83.3071594   6.9834809  43.1373329  82.4050369
  72.2122040  60.2598686  52.8607864  71.8782806  60.4180222  51.9777718
  71.9291306  59.3692589  53.0679550  29.8168240   4.8604178  84.1688385
  29.9662857   5.6887507  83.7130280  29.9278469   4.1917224  83.4930038
  83.5892715  43.6339340  49.3233452  83.1560898  42.9428291  48.8223839
  83.4320755  44.4310493  48.8172531  77.1167068   8.6590843   5.1992488
  78.0023956   8.6835804   4.8370504  77.0530548   9.4529371   5.7302656
  57.6729698  65.3451920  28.9786892  57.7201881  65.7625198  28.1185493
  58.0056496  64.4594498  28.8337440  35.2472076  28.3861313   0.1281775
  36.0573044  28.7310238   0.5037131  35.4687881  27.4949360  -0.1418283
  55.2409973  46.0311890  34.5222740  55.8772583  45.9479446  33.8120079
  55.1261024  46.9751701  34.6314926  44.6147346  68.7249451  18.3479900
  44.6991425  68.4507904  19.2611980  44.0952225  68.0337143  17.9374504
  29.7652626  67.0299301  70.4310532  30.6999550  66.9371948  70.2467041
  29.6810799  67.9061584  70.8070526   5.8357592  17.9029903  83.9175873
   5.5361986  18.4486599  84.6447372   6.2188816  17.1330662  84.3379059
  54.4121399  68.4478073  22.1322746  54.1936569  69.2351456  21.6336842
  53.7205734  68.3817139  22.7907600   3.5916045  12.6739492  15.1053953
   2.6596887  12.6354303  14.8902645   3.8760319  13.5301676  14.7856712
  19.4505367  22.2819939  72.3891296  20.2837467  21.8767834  72.1487198
  19.0039692  21.6179295  72.9143219   3.8921187  43.9232445   1.6937596
   3.3183262  44.6868019   1.6306818   4.7538257  44.2490768   1.4338989
  37.2080040  40.0560532  82.0082932  37.0214310  39.2753448  81.4868393
  37.4583130  40.7194138  81.3652344  45.8067627  18.9144707  77.7585220
  46.4015999  18.8434238  77.0119629  45.0737381  18.3404694  77.5361862
  56.5606804  46.1243134  77.0921707  56.5293961  45.9535637  76.1508408
  57.3942375  46.5753708  77.2261963  74.6355667  69.1051712  79.7758636
  73.9105301  68.8405457  79.2097092  74.5510406  70.0561600  79.8445511
  32.2563324  66.0771637  87.4844818  32.9783325  65.6326447  87.9287186
  31.9516907  66.7290039  88.1157684  67.6293564  58.4974403  86.4604111
  68.0197449  57.7032051  86.0956802  67.3301086  58.9899712  85.6961441
  21.3076553  34.3336716  21.5519810  22.2072525  34.6595612  21.5793972
  21.0978432  34.1326256  22.4640083  41.6656723   6.2555223  14.3416538
  42.6096916   6.3890162  14.2565536  41.3860703   6.9180880  14.9733658
  81.1398392  66.9139938  13.0107460  80.5576172  66.8993225  12.2511158
  80.7542038  67.5663376  13.5955238  67.2469177  12.7681828  47.2759705
  68.1319122  13.0925703  47.1092873  67.2955399  12.3769846  48.1482277
  62.3209457   5.9324274  46.7512321  62.9257278   6.6743426  46.7455368
  61.8002052   6.0539999  47.5451355  77.2860260  15.5539970  81.4812851
  77.7373505  15.4471283  82.3186111  77.7961121  16.2178822  81.0172806
   0.0804292  59.6969070   1.3108585   0.6982793  59.5603218   2.0290771
  -0.7529743  59.8819656   1.7437825  67.1925430  45.3417931  11.0648060
  67.8302612  44.6293068  11.0210848  67.5984039  46.0569115  10.5747881
  74.4658279  44.8684464  33.1706734  74.4158707  43.9347000  32.9660873
  75.2163544  44.9447327  33.7598381  73.0386124   6.5277343   1.8620725
  73.0366440   7.4849229   1.8663667  73.8501511   6.2878823   2.3094072
  79.6150970  65.0700684  24.3403358  79.8608704  64.6314087  25.1548367
  78.7781982  64.6737366  24.0979443  52.9237251  45.3443069  51.8963470
  52.3647118  46.1065102  51.7454224  53.0268707  44.9478645  51.0312309
  64.0550919  59.6242561  50.5339813  63.1741333  59.4712982  50.8756676
  64.3009338  60.4818764  50.8807869  37.7489548  44.5634422  72.3850479
  37.0894127  45.0916176  71.9353104  37.4086647  43.6697044  72.3442307
   1.0241485  29.6949272  29.9742546   1.4372382  30.4658470  29.5853195
   1.1538604  29.0015888  29.3271923  77.8580322  66.0457916  37.0344696
  78.5291824  66.1608505  36.3617439  77.9899216  66.7813416  37.6326447
  42.7125206  23.2191181  81.5414352  43.3080063  23.0574818  80.8096619
  43.2531204  23.0963573  82.3217621  84.0075684  33.0327988  41.0630760
  83.7196198  32.2735901  41.5699501  84.8383636  33.2876244  41.4644165
  74.4783325  59.1578369  54.1442261  74.4235077  59.2552109  55.0948830
  73.6859894  59.5813484  53.8139915  48.1685715  52.1578903  40.4019203
  49.1010361  52.0525475  40.5907097  47.8069763  51.2751465  40.4809647
  24.2983398  44.6829109  42.0231247  25.2110767  44.5227737  42.2629166
  24.3254871  45.4825859  41.4977531  38.8506355  18.1541977  73.3029480
  39.0490646  17.9356327  74.2134857  38.5425034  17.3323517  72.9210358
  26.3632889  24.8520870  19.9002686  26.9900131  24.3670750  19.3634148
  26.2861519  25.7029266  19.4685841  67.0942535  26.1760063  43.0213966
  66.1881714  25.8712502  42.9727364  67.0292358  27.1296597  42.9708862
  86.0270844  23.1269779  48.0437317  86.5079117  23.0549736  47.2192001
  85.6254272  22.2663116  48.1627121   0.4720434   1.7692324  24.3423138
   0.9382882   1.0191441  23.9732399   0.5918394   1.6839510  25.2881508
  52.5694008  63.7678795  64.8359451  53.0534973  62.9424057  64.8142090
  52.4162636  63.9313011  65.7665787  59.0997391  60.9283867   1.2215462
  59.2918129  61.1567421   0.3120440  59.6720848  61.4965515   1.7371422
  57.0088539  16.9811974  38.6437607  57.4320755  16.5449162  37.9043159
  56.1988640  16.4897327  38.7801781  55.4142303  30.6373749  19.7698975
  55.5906715  30.6460609  20.7106552  56.1103249  31.1739292  19.3906937
  45.1619797  57.9180374  52.7149582  45.9100723  58.5143051  52.6824837
  44.5266533  58.3612556  53.2772255  64.3636093  52.8164940  55.6186714
  63.6012115  52.8329697  55.0401306  65.1076660  52.9799004  55.0390854
  72.9558640   0.4141729  65.7742233  73.0749435   1.3635693  65.7478027
  73.4147873   0.1371965  66.5672531   6.0650620  56.4244080  14.8030186
   5.4196820  56.2578621  15.4900265   5.6216874  57.0176392  14.1966114
  29.1950569  67.1047440  27.9887352  29.2975140  68.0463104  28.1272545
  29.4821110  66.9627228  27.0867023  67.2808533  29.2552509  48.7444420
  66.7752533  29.7508450  49.3886299  66.6311646  28.7160511  48.2934494
   7.6804581  67.0250473  25.6184292   8.4075375  67.6470337  25.6452599
   7.1237073  67.3380280  24.9054756  74.1451569  15.1029377  50.4086151
  73.7655411  15.9402447  50.6751595  74.4535370  15.2533998  49.5150337
  77.4893570   3.8393316  19.9845371  77.1019974   3.1650620  20.5427017
  78.4337540   3.7202191  20.0853024  50.7839355   4.1011224  55.2699203
  50.2733841   4.5268378  55.9586372  51.0228119   3.2510948  55.6395454
   7.9158907  34.5623322  57.3784218   6.9986954  34.7548981  57.1837387
   7.8908815  34.0991936  58.2157440  49.9897003  69.7490234   9.1673985
  49.9858170  69.2873840   8.3288822  49.0721970  69.9745255   9.3209162
   4.3335476  46.2253418  71.6388626   3.5822029  46.3382797  71.0566635
   4.5056438  47.1026840  71.9807434  35.7603836   9.0285368  42.6270561
  36.1971664   9.8742714  42.7279778  35.2113037   9.1337500  41.8500900
  23.5151005  45.5024681  16.3477783  23.2859612  44.6159286  16.0689068
  22.9155960  46.0688477  15.8619366  67.9198914  32.3194923   1.6431100
  68.1016769  33.1808319   2.0189831  67.8437042  31.7389584   2.4003470
  71.5142288  63.6903687  67.3016968  71.3051300  64.5553131  66.9490128
  72.2008514  63.8548355  67.9480133  44.8589478  48.7350998  60.4165878
  44.4984474  47.8574638  60.5431938  44.6223145  48.9638596  59.5177536
  55.8202858  20.2024155  36.3462639  55.0744476  20.7568111  36.5756149
  55.4330254  19.3496609  36.1486092  19.5873432  64.9815750  81.2728119
  20.1164474  65.6732941  81.6700516  20.2270699  64.3742676  80.9011078
  43.8362732  54.1617279   1.2463483  43.1500473  53.6106224   1.6226540
  44.2222900  53.6246185   0.5544389  50.8244400  22.5217876  25.3748474
  51.7670326  22.3646355  25.4301167  50.5622673  22.7239971  26.2729607
  48.1563721  31.2541332  31.2111511  48.7620964  30.9813576  31.9002972
  47.3350105  31.4301376  31.6700840  76.4013367  45.9081459  20.5172462
  76.2286072  45.0335350  20.1687450  75.7108383  46.0484810  21.1651325
  25.2970123  21.4833927   5.6623282  26.2055893  21.3222256   5.9167795
  24.7824440  20.9247322   6.2448649  56.5383797  12.4500704  18.4122009
  56.9920998  11.6182642  18.2762909  55.9971657  12.5582571  17.6301460
  32.7096825  36.4392052  75.2667542  33.2736855  35.6989822  75.0427017
  31.8200741  36.1096535  75.1393738  67.8168030  28.2440166  66.1247711
  67.6300354  29.1225567  65.7938385  67.7743912  27.6824818  65.3507462
  85.8126755  29.4105949   9.1923256  85.8422928  30.1595440   8.5969858
  85.7655792  29.8003025  10.0653334  34.3154869   3.7539177  88.9196472
  33.9053040   3.6428342  88.0619583  33.7118683   3.3309996  89.5303955
  22.0513248  41.2391777  13.8223066  21.5782852  41.8718643  13.2817755
  21.5286026  40.4391823  13.7675180  18.9895058   7.7773499  66.5768585
  19.2251949   8.0211334  65.6817322  18.5568104   8.5544071  66.9306793
  45.8962708  46.0501900  44.3366013  46.3795471  45.2530289  44.5538788
  46.3150864  46.3743706  43.5392723  85.0343170  45.5732460  66.5680237
  85.3447113  44.8655548  66.0031738  84.8435364  45.1467323  67.4034424
  55.5101471  44.1179695  30.7951698  54.7758331  43.7619743  31.2954559
  55.7583084  43.4117317  30.1986160  35.6526222  35.2183151  29.1165295
  36.0798645  36.0288162  29.3936291  34.8141594  35.2195663  29.5782776
  28.7971230  55.2996788  80.7384415  29.5967407  54.8907700  81.0695496
  29.0895557  56.1326942  80.3685760  51.4557076  27.7829437  10.3936825
  51.2896423  26.8850136  10.1066694  50.8467751  28.3146992   9.8811693
  67.0087280  67.7952957  60.1377106  67.6095581  67.2902527  60.6855888
  67.3160782  67.6450806  59.2437325   5.2048383   1.4610200  75.7115631
   5.4194350   0.6100276  76.0936508   4.3516593   1.3295851  75.2979889
  77.1295547   3.2758822  70.9698639  76.4982300   2.5788233  71.1481018
  77.0017624   3.9026108  71.6819839  10.0400181  48.5104294  52.4951096
   9.2090597  48.0545197  52.6288605  10.4252644  48.5676498  53.3694916
  62.0889473  15.0073175  77.5740433  62.2407417  14.0634785  77.5254669
  62.1841507  15.3119755  76.6716309  40.5585442  31.8302670  18.9123955
  41.1838951  32.5375557  18.7545567  39.7910118  32.2671242  19.2815571
  57.5010567  43.6498718  75.5178299  56.7245598  43.1235313  75.7082214
  57.4956818  43.7489967  74.5657959   6.1892138  10.7350645  27.2600784
   5.5198469  11.4127970  27.3542042   6.4273810  10.5072079  28.1587391
  81.1833344  16.9005356  85.0718918  81.7228241  17.4928589  85.5956650
  80.6623306  16.4194794  85.7148361   5.8689990  71.2405167   1.5401909
   6.0626268  70.7234802   0.7582620   5.1964440  70.7375336   1.9994370
  68.0802307  33.9702759  85.9900970  69.0019379  34.1837578  85.8448029
  67.7483139  34.6924515  86.5235062  47.7046661  46.5069618  58.9168472
  46.8542633  46.1864967  59.2174339  47.6908951  47.4435883  59.1137505
  58.6404419  34.0347404  18.6611996  57.7446480  33.7653580  18.4581738
  59.1163292  33.9236259  17.8381462  41.9734764  12.3749800  44.1280861
  42.3644028  11.5118809  43.9921951  41.1128502  12.1914892  44.5047646
  20.0254822  54.6229668  72.5842972  20.7344666  55.2461891  72.7429504
  20.4522152  53.8769073  72.1629639  43.5239944  54.9942207  63.7166405
  43.3145790  55.7605782  63.1827164  44.2523918  54.5749397  63.2585220
  51.9693413  13.7879896  81.6213760  51.2515259  14.3686514  81.3687744
  51.5507164  12.9399700  81.7691956  16.4945049  50.4583054  31.9948273
  16.2338753  49.5423698  31.8980656  15.7781162  50.8605728  32.4859467
  28.7329979  14.8098879  71.2692490  29.3353806  15.4726305  71.6070938
  28.2161579  15.2706451  70.6083298  56.6503716  69.9913330  43.9654007
  56.2586784  69.1845474  43.6308708  55.9261284  70.4509888  44.3901634
  48.0817490  60.8138046  22.4298706  47.6713524  60.7163086  23.2891159
  48.7310753  60.1114655  22.3934937  45.6375160  51.2831345  60.7366600
  45.5143738  50.3509331  60.9157333  46.4793701  51.3308372  60.2836304
   5.4924302  17.0037155  76.7477417   6.1876640  16.5982723  77.2659149
   4.7455873  16.4129753  76.8451233  78.1495972  58.8023987  57.3107338
  78.5823059  59.6386566  57.1384964  78.2522964  58.6691818  58.2530365
   4.0468984   7.2418761   6.8394790   4.8761940   6.7973175   7.0151734
   4.0279036   7.3461790   5.8881683   2.2742546  30.6298733   0.7095824
   3.1623805  30.8456802   0.4251675   2.2019637  31.0156288   1.5826226
  58.7974586  35.7880745  82.8105011  58.1886635  35.9812851  83.5234299
  59.6079559  35.5317154  83.2505112  69.9652023  42.9380798  68.9315872
  69.6051559  43.8219032  69.0054321  70.7973633  43.0559654  68.4734955
  50.2976913  65.0746994  38.2024651  50.1666298  65.8817215  38.7002182
  51.1907997  64.8042068  38.4155960  22.0387955  63.6067543  25.3388424
  22.4472332  64.2450180  25.9236755  21.7199574  62.9175949  25.9216232
  82.7402649  59.8652534  63.5315437  82.9107361  59.7039299  64.4595261
  81.7896194  59.7925758  63.4464874  29.6669674  15.9468985   7.1580896
  30.4799538  15.6005764   6.7901983  29.5438385  15.4564772   7.9708371
  17.5934563  38.6159554  87.5449982  17.1693382  38.5122414  86.6931763
  16.9393921  39.0584908  88.0859146  33.1258125  48.7714996  84.0069046
  32.9170876  48.1054878  84.6619568  32.6085625  48.5240021  83.2404633
  59.9432182  22.5657730  15.4872007  60.7670403  23.0063801  15.2788334
  59.2652016  23.1791267  15.2037888  33.2009239  66.1745834  38.7329063
  32.9445877  66.7979660  38.0532608  32.3906822  65.9926910  39.2089882
  86.3748322  53.4294014  62.8975945  85.6313248  52.9108620  63.2050781
  86.6018982  53.0441170  62.0512924  80.3664703  38.1189613  82.4626083
  80.9112015  37.7651482  83.1656799  79.5115356  37.7084846  82.5923462
   4.6155477  51.0599442  20.1562614   4.2854104  50.8144455  21.0205364
   4.9312148  50.2390823  19.7784100  79.8560791  60.2620316  29.3599091
  80.8047180  60.2653847  29.4876080  79.6861572  61.0246048  28.8068810
  33.2634048  41.9242477  68.9447174  33.4094238  41.0081596  68.7087173
  32.9313126  42.3281250  68.1429443  32.8880844  57.2402496  70.5821381
  32.2652473  56.9006310  69.9395142  33.5256920  56.5350800  70.6935959
  56.6530380  65.7903519  67.2510300  57.0921974  65.3984756  66.4961777
  57.3664780  66.0698700  67.8247070  50.5612640  15.1799030  87.6545334
  50.6784401  15.4226837  88.5729904  51.0853958  14.3860855  87.5478897
  77.3638306   0.3829135  14.1995344  76.4134903   0.2763014  14.1582031
  77.6910248  -0.4807642  14.4510059  84.7070236   0.4128007  41.6963463
  84.6414795  -0.4540918  41.2958069  85.3924866   0.8563082  41.1966629
  15.6511688  37.9818497  57.6268349  16.1793022  38.6322670  58.0897217
  16.2849445  37.3341446  57.3185539  86.2280579  42.6749229  37.3671341
  86.5395432  43.4269409  37.8708000  85.5281219  42.3013344  37.9026222
  27.9496651  17.0208225  11.1261034  28.0836506  16.5320511  11.9381266
  28.1207123  16.3840103  10.4322395  63.9484253  58.3740349  84.7520752
  64.2507019  58.1173019  83.8808975  64.5102234  59.1105919  84.9931030
  46.7905045  59.5620079  54.6243172  46.8328476  60.0197296  53.7847137
  46.2327347  60.1154518  55.1709633  31.0488853  41.3845367  85.1982956
  30.8050308  41.6370277  86.0888138  31.8983936  40.9542732  85.2954712
  74.3211365  60.1512489  36.2081108  74.4737778  60.8610764  35.5843506
  73.5475616  60.4267960  36.6999245  49.5143089  57.4262466  71.4346161
  49.6945915  58.3603668  71.3290405  48.5615807  57.3732452  71.5103302
  17.6395969  49.7856255  84.3659286  17.1344185  49.0564499  84.7255554
  18.5180721  49.4279327  84.2372055  83.8529739  63.8318024  52.4481049
  84.0819321  64.6166840  52.9458656  83.5535202  64.1638107  51.6017418
  28.2373257  58.3966293  18.7027588  27.5670261  58.1868782  19.3530922
  28.1091785  59.3270950  18.5182533   3.5002596  26.9676361  79.5636139
   3.0382497  27.5607700  78.9711838   4.2282448  27.4878407  79.9037018
   0.2976707  35.4952621  80.0004959   0.7362943  34.6449356  79.9724503
  -0.6064225  35.3068161  79.7488327  81.3611984  58.8521805  53.9155426
  81.9662781  59.5764160  54.0755463  80.5134811  59.1767769  54.2192459
  84.4628906  58.4358711  86.9410324  84.6533356  57.6192703  86.4793777
  84.4599380  59.1036377  86.2552338  14.0525904  60.7617035  29.6640968
  13.9131136  60.2128105  28.8924141  13.2763300  60.6162796  30.2049313
  78.9417801  12.5184898  41.7695808  78.0854568  12.9078064  41.9466858
  79.0500336  11.8568983  42.4528160  54.0956001  47.2415504  11.6909046
  53.8482590  47.6347237  10.8539648  53.3348427  47.3805466  12.2549582
  45.7140388  24.9011841   8.4909105  46.5238876  24.8480473   7.9834161
  45.8182259  24.2427921   9.1778574   2.3750038   1.4881365  78.2528610
   3.0475309   2.1630321  78.3448105   2.7895868   0.6905068  78.5817032
  44.2846832  30.1400814  88.4169617  45.1422272  30.3247280  88.0338669
  43.9185867  31.0027924  88.6117325   4.6061954  16.6595497  74.1852875
   5.0696173  16.0708675  73.5895309   5.2990527  17.0742111  74.6993256
  29.1450558  67.2550888  32.8462448  28.5814323  66.8513565  33.5062103
  28.7407436  68.1053925  32.6737480  57.9848595  14.6581774  54.0176239
  57.0653839  14.4462681  54.1785278  58.0444908  15.6005306  54.1746101
   8.3360271   2.1257939  51.0214958   8.1039658   2.5987239  51.8206940
   8.3635235   2.8006732  50.3432541  26.9449043   7.6242123  78.3315048
  27.4744740   6.8465891  78.1551819  27.2397690   7.9249377  79.1910706
  49.6636925   9.1105118  37.5745316  49.8183365   9.5591726  36.7432556
  48.7467613   8.8389254  37.5331650   4.8474946  16.8141689  87.7503357
   5.0736780  16.3369884  86.9519806   4.0086918  17.2301102  87.5512543
  68.0787201   7.8960590  50.2974167  67.8216019   8.3134232  51.1195641
  68.1081619   6.9614859  50.5022049  65.4342117  32.5051117  64.7445068
  66.0327454  32.9749260  64.1637573  65.5200882  32.9499893  65.5876770
  66.0912476  56.2368889   9.5749464  66.5873108  56.2754669   8.7572298
  65.2061920  56.5079918   9.3311863  83.9354553   2.9338980  84.0401764
  83.7567673   3.7267225  84.5458755  84.4740143   2.3959417  84.6205139
  78.9238663  69.0567932  79.8270569  79.1884232  69.3956146  80.6823044
  79.2961121  68.1755981  79.7929535   1.4499937  48.1792336  43.4039383
   1.3869616  48.5702171  42.5325089   0.9910406  48.7941971  43.9761391
   8.9991703  39.6366272  17.0124416   9.2250633  40.5492210  16.8325062
   9.8189669  39.2408066  17.3082333  27.4859066  65.3796692   2.1473067
  27.3940086  65.3554688   1.1948355  26.7366180  65.8943024   2.4472277
  55.2902756  62.8757324  81.2155838  55.0677681  63.6205215  80.6570053
  54.8028221  62.1417618  80.8415451  -0.0131352  14.9771204  33.2436714
   0.3962731  15.5211706  33.9164467   0.7209252  14.5535526  32.7987213
  43.7375488  64.4107895  46.9565849  43.1448364  64.6323700  46.2383766
  44.5879784  64.7513275  46.6790352  49.7518196  38.7340431   6.9354935
  49.9470482  39.4859581   7.4947300  50.2887840  38.0256424   7.2905574
   6.6411219  19.4146271  69.9841309   6.6647925  19.1499615  70.9037094
   6.9471736  20.3215714  69.9879761  36.4215050  65.9744186  24.7744884
  35.6772499  66.1488800  25.3505802  36.0806046  65.3636017  24.1210995
  21.0214767  64.8054962  52.0611229  20.5821648  63.9784737  51.8629532
  21.6746483  64.5772552  52.7225609  41.5078049   2.8294647  65.4766541
  42.4142456   2.5387499  65.5770569  41.0284653   2.3590593  66.1586990
  38.1514130  68.8148422  60.5483971  38.6897736  68.4683685  59.8368111
  38.0655365  68.0845490  61.1611938  76.0972214  22.5695820  79.3335953
  76.1054764  22.7139702  80.2798080  75.1857224  22.3585167  79.1314621
  43.0158730  25.9457855  65.3847961  43.2633133  26.8250980  65.0987701
  43.2678223  25.9143715  66.3077087  22.5621452  10.0486660  78.0389481
  23.2054806   9.4638472  77.6385269  23.0007210  10.3893290  78.8185806
  49.1998978  50.4990921  84.7887115  48.9280434  49.7187729  85.2718582
  49.0174103  50.2893562  83.8727722  77.8698196  47.9920921  66.4281082
  78.4050293  47.8759499  65.6430588  77.2946930  47.2270470  66.4412308
  66.6855240  34.8518257  27.1744270  67.5132370  35.0887642  26.7561111
  66.3585739  34.1150246  26.6582317   6.2249169  54.2165298  67.3549652
   6.1875730  54.0710526  66.4096222   6.6611090  55.0632591  67.4499512
  13.7198219  66.6992569  60.4556160  14.6123266  66.8691864  60.7569313
  13.7936211  65.9076309  59.9225998  16.8108482   5.6768146  66.9958954
  16.9610615   5.5005436  66.0671387  17.6622391   5.9639192  67.3259506
   4.7063961  31.2211437  24.2790642   4.1327853  30.5114212  24.5680199
   4.8312192  31.7610512  25.0595455  76.8461990  55.3217354  50.0513458
  77.3396454  55.3778381  50.8696327  76.4697266  56.1945076  49.9383583
  40.9260750  53.6292915  52.6945877  40.7854080  52.7606773  53.0713615
  41.4677963  53.4702187  51.9216309  44.1954269  46.8488464  83.4622803
  43.5178795  47.0785103  82.8263397  44.4495163  47.6845093  83.8538666
  85.4167480  30.1091633  37.8254471  84.7569199  30.7707806  38.0331001
  85.2322769  29.8631763  36.9189758  29.8802776  56.0302887  77.3284531
  30.5791740  56.1099892  76.6792831  30.1706200  55.3257179  77.9076920
  49.9343910  36.3173447  88.7752762  49.2193222  35.9253502  88.2740326
  49.4999771  36.7712364  89.4974289  28.0987511  63.1460495  25.6838627
  27.2830238  63.6319389  25.8052387  28.5563812  63.2336235  26.5200062
  56.7276649  26.8044968  75.0000458  56.8611183  27.7353401  75.1788025
  56.2720261  26.4747868  75.7745819  73.5025787  59.4533119  56.9402161
  73.3926392  59.0308075  57.7920609  72.6621094  59.8803368  56.7744102
  86.7030869  50.5391998  75.6409225  86.9140854  49.8241005  76.2412109
  85.9714813  50.9941254  76.0580902   8.4576225  49.1621742  18.3987160
   7.6640625  48.6273499  18.4201546   8.1391201  50.0644608  18.4245052
  80.0816269  16.5497055  42.5979805  80.1029510  16.2704086  41.6826820
  79.3146591  17.1193790  42.6567612  21.3327770  20.9785194  14.9118128
  21.0833015  21.7117977  14.3494110  22.1800404  20.6923542  14.5705118
  46.7516861  11.2159433  77.4121094  46.5535851  12.0790625  77.7754440
  45.9022102  10.8712559  77.1367798  21.4428253  55.9772072  88.9408646
  21.7092896  55.0692062  88.7967758  20.5001602  55.9794273  88.7746964
  79.9989471  43.1627960  56.6322899  79.2339859  42.5958290  56.5342636
  79.7929916  43.7145844  57.3868370  82.3164825   0.5204462  54.0652657
  81.5889511   0.7397553  53.4831696  82.6097565   1.3637583  54.4103012
  33.5811806  36.3090820  68.0364532  34.2436523  35.7979584  67.5715714
  32.9074402  35.6709366  68.2711334  78.7785950  34.5875740  41.2758636
  79.7148209  34.3961983  41.3314972  78.6730042  35.0230827  40.4300423
  26.1882839  47.7458534  25.3527184  26.7815571  47.7349777  24.6016254
  25.8680992  46.8461609  25.4180737  12.7712383  33.4266434  70.4185181
  12.4189196  34.0416527  69.7751923  13.0323067  33.9763145  71.1573868
  80.9571304  18.6876526  13.5432358  80.4576797  18.0634365  13.0167999
  80.4934158  19.5179043  13.4342155  56.3987312  41.4831619  30.1954403
  56.9791145  41.4438400  29.4352818  55.9408913  40.6425705  30.1909599
  53.1451759  61.9327354  14.8301592  52.8956490  61.0089493  14.8543215
  53.0046730  62.1950684  13.9203939   0.8323327   4.2627931  68.1813126
   1.5339453   3.8665059  67.6646652   1.1157829   4.1589141  69.0896606
  72.1685715   1.8256983  21.8953018  71.9414139   1.8282499  20.9654503
  72.0318832   0.9198492  22.1727638  17.9845161  20.7590160  74.2962952
  17.9847164  19.8133469  74.4444199  17.2358055  21.0800171  74.7989120
  81.6492767  21.7137527  35.5842972  81.7586594  22.3636913  36.2784500
  82.5056839  21.6712608  35.1588593  61.4268990  39.9551125  63.1680374
  61.8982964  40.6511345  63.6258240  61.2126045  40.3321152  62.3147011
  33.0774193   2.2585220  58.7636261  33.5738487   1.4526693  58.9064178
  33.7087097   2.9601579  58.9230347  67.1183014   2.5532622  78.8241425
  67.0101471   1.6050560  78.8978958  66.7759018   2.7665782  77.9561005
  78.2574921  40.9773865  11.0406332  79.0857620  41.3656731  11.3224592
  77.6305313  41.2333183  11.7171335   2.8208058  24.7020168  70.2729340
   1.9059439  24.5208187  70.4884033   3.3210881  24.1130314  70.8377762
  32.7811317  68.0278168  56.9258499  31.8460579  67.8869858  56.7774124
  32.9463005  67.6490021  57.7892494  28.9234219  37.1458473  20.3937912
  29.2297211  38.0474281  20.2959747  29.6958046  36.6606407  20.6840172
  33.7768402   3.8637142  20.8439293  34.0978546   4.5165348  21.4660301
  32.8237076   3.9411976  20.8859253  37.7893829  29.0146427  10.5308199
  37.2880707  29.7223091  10.9359493  37.2422066  28.2376194  10.6451254
  44.3561783  17.3489513   6.0648732  43.9686966  18.0688229   5.5670056
  45.0313797  17.7647266   6.6010323  24.0761528  53.7570877   3.9678771
  23.4422836  53.2783737   3.4337656  24.9291897  53.4671555   3.6446137
  40.9027710   9.7477207   7.0987625  41.1007309  10.6471863   7.3595400
  41.0937004   9.7226562   6.1611328  85.7552795  50.6259918  85.4546738
  86.5409012  50.0924454  85.3348846  85.0785751  50.0009041  85.7146149
  77.8428574  60.1668205  44.6823692  78.0365524  59.4037056  44.1379738
  78.2459488  59.9668617  45.5272179  60.8384323  27.0705891  48.2439575
  60.3387909  27.4349499  47.5133209  61.5644684  27.6822586  48.3662796
  30.5489941  14.0458803  86.7311172  30.9436913  13.2963085  86.2854843
  29.6317463  14.0312052  86.4578552  82.8540497  14.9668131   3.8241656
  82.4314804  14.8356609   4.6729674  83.7859192  14.8331451   3.9973378
  65.7797928  37.6780777  11.5195541  64.9168701  38.0109253  11.2729673
  66.3925018  38.1786003  10.9807615  82.1781158  58.8879318  39.1789093
  81.2431030  59.0375099  39.0388908  82.2247696  58.0178947  39.5752602
  66.7655182  19.6931458  78.8625946  66.3996582  20.3773575  79.4231644
  67.6073151  20.0451851  78.5733261  61.3550682  31.0075588  77.1208725
  60.5983391  31.5260735  77.3942490  61.0965958  30.1009083  77.2864227
  74.9459915  16.2506008   1.2521405  75.4993286  17.0103207   1.0708412
  74.3047256  16.2463093   0.5415118  13.8785982  36.2763824  51.2774887
  13.8622475  36.4232864  52.2232094  14.2700338  35.4087219  51.1766167
  75.5509186  59.7872658  12.8830910  75.8767548  59.1306763  12.2674990
  74.5981522  59.7337570  12.8082819  70.2908859   8.1368265  16.8620243
  69.4498367   8.0190792  17.3036232  70.1011581   8.7381458  16.1418495
  62.0304298  48.3244400  27.0766087  62.0714760  48.1193352  26.1425438
  61.1249695  48.5986977  27.2220440  12.7085562   0.3624197  70.0553436
  11.8303919   0.2660436  69.6868668  12.8236341   1.3073167  70.1561356
   3.5607424   8.2907114  23.4920292   4.2805009   7.8022456  23.0925541
   2.8905303   7.6299157  23.6663742  60.4247322  19.1021175  12.4793596
  60.0201721  19.9632969  12.3748102  60.3055267  18.8923550  13.4056549
  23.9875488   1.1059470  86.6159515  23.3921032   1.1167573  87.3653183
  23.6901436   1.8286712  86.0632706  60.0506935  18.3484402  85.3134460
  60.1348534  18.6718330  86.2104263  59.1729660  17.9682884  85.2772675
   1.8217152   2.3386638  66.4242477   2.1826375   1.6026289  65.9300613
   0.8751835   2.1971169  66.4076920  44.4860191  32.0340576  11.8384247
  43.8635902  32.3719330  12.4823608  43.9881401  31.3845634  11.3419323
  85.4776535  59.9153442  20.2678490  85.7954330  60.0896912  21.1537666
  85.6554947  60.7232437  19.7862835   2.7258093  71.7580948  75.2702866
   2.1840119  71.3357391  74.6037292   2.6812923  71.1691818  76.0235672
  61.0893402  31.3580990  58.9441071  60.2886467  31.1560211  59.4281311
  60.8117676  31.9788818  58.2704506  52.8761024  28.7493000  61.0869179
  53.6205673  29.3158493  61.2894745  52.8657608  28.6999855  60.1310425
  68.4666214  59.6533546  13.8197651  68.1772079  58.8396111  13.4070950
  69.0045395  59.3690414  14.5587111  40.8277321   4.2918577  41.1992111
  40.6436501   3.4962242  40.6998940  40.1860886   4.9274521  40.8821220
  11.4300709  64.6506500  69.3586044  11.6707430  64.7273026  68.4353333
  11.6533909  63.7491608  69.5902939  63.2385178   3.6316919  40.3853111
  63.3960152   3.5335975  41.3243561  63.7719383   4.3844757  40.1303406
  52.6643333  49.3948936  17.8526440  51.7648582  49.5326233  17.5556412
  53.1919250  49.4592094  17.0565662  54.0063095  58.8873749  59.9457092
  53.3956680  58.8971367  59.2086487  53.9727783  57.9883614  60.2726326
  62.4626274  37.7814980  20.2524433  61.9142723  36.9984169  20.2041950
  62.4060783  38.0574989  21.1672421  51.7101746  50.5592422  88.5691452
  51.2671204  50.9178848  89.3381119  52.6036758  50.8974953  88.6280518
   3.9996870  48.8895569  85.1100006   4.5799680  48.1390457  84.9825668
   3.7901652  49.1835556  84.2234955  55.4753914  28.9851437  56.8866997
  55.4965553  28.8525009  55.9389687  54.6041069  28.6893654  57.1505432
   9.0432549  55.9541626  44.7927055   9.3247576  56.6169548  45.4233360
   9.5010099  56.1833878  43.9839134   5.4686999  25.9103870  17.8047600
   4.5599174  26.1482277  17.9885483   5.9870443  26.5590229  18.2810211
  77.4533386  46.1707802  28.3631363  78.0810547  45.5230370  28.0427723
  76.9448547  45.7039719  29.0262852  52.8245163  57.0048180  84.5856552
  53.4168739  57.7310295  84.3908157  52.0506744  57.1763496  84.0490189
  40.9713440   9.7431650  70.1292877  40.2047997  10.3153906  70.1639099
  40.8601799   9.2424955  69.3210754  41.3301315  36.2225952   4.6331205
  40.6624298  36.4867783   5.2660584  41.4854088  35.2969627   4.8210645
  68.9384766  54.5908089  72.4144592  69.2268143  55.3576736  72.9094467
  69.5006485  53.8806381  72.7240601  32.6629829  20.6449623  11.4150562
  33.5810356  20.6997147  11.6804047  32.5303497  19.7216034  11.2004614
   6.7627149  13.4288063  67.7354660   5.8478813  13.2795553  67.4966507
   7.2491250  13.2812862  66.9243698  17.1950817  70.0823975  59.3126602
  16.8013840  69.2589035  59.6009064  18.1053486  69.8580170  59.1195297
  54.3946457   7.2834868  49.7289429  54.6608620   6.9693422  50.5930443
  53.4643478   7.4875984  49.8244362  64.4874802  55.2061424  12.3206520
  65.3396988  54.7804604  12.2270727  64.2116318  54.9963188  13.2129030
  72.6102753  69.7664413  35.6162758  73.4677048  70.1736679  35.4929733
  72.2553253  69.6828384  34.7312584  10.3534622  53.0326347  78.4139023
   9.9036341  52.6236687  77.6745605   9.6484222  53.3723602  78.9650269
   8.3104382  33.0458336  18.7674141   8.2569866  32.2074394  19.2261791
   9.2489233  33.2011223  18.6608143   7.8074665  52.6752586   9.9534969
   7.2552691  52.6682739   9.1716652   7.2045178  52.4929161  10.6742163
  31.3629742  53.8554382  78.7782898  31.1351604  53.1488457  79.3824921
  31.4392719  53.4265022  77.9259872  75.8410950  52.7946968   3.6260464
  76.1501617  53.6791534   3.4299645  76.3452835  52.2295341   3.0407052
  10.6142759   4.9207840  88.8242111  11.1020460   4.4878054  88.1236115
   9.6971607   4.7213244  88.6362000  55.9669418   4.6111102  10.6883135
  56.2600098   3.7013030  10.6373701  55.9399452   4.8019018  11.6259184
  83.7433090  65.7298050  82.1001587  83.1157990  66.4413376  82.2273788
  83.8245468  65.3248444  82.9636612  41.5615044  63.9752235  37.3356094
  40.8835258  63.2997169  37.3192329  41.0770111  64.8007355  37.3415146
   4.9284768  23.6624393  37.8860130   4.7889476  24.3775120  37.2651787
   4.8375177  24.0713291  38.7466927  17.6020908  62.2409897  31.9677658
  17.5774994  63.1367149  31.6311607  17.1804752  61.7173996  31.2863541
  12.1892128  29.6949177  63.3896523  13.0681810  29.4563160  63.0951767
  11.7448750  29.9967136  62.5973663  68.0614548  57.1813736  47.8890762
  67.7531204  57.5954094  48.6951370  68.4118576  56.3368950  48.1724625
  51.3159904  63.6507759  83.5901566  51.6932259  64.1740417  82.8829727
  51.2631874  64.2533340  84.3320236  85.7607574  10.8417273  48.2540131
  86.1924438  11.4019337  47.6089897  85.2770996  10.2026329  47.7306938
  31.1996288  64.2789688  27.9028358  31.3158150  63.3315163  27.9740047
  31.1185703  64.5790100  28.8081741  64.0904770  37.2967453  69.7573471
  64.1803131  37.7608986  70.5896454  64.0688782  36.3711700  70.0003891
  28.8503380   3.3972883  60.4676781  29.2741890   3.8861730  59.7622871
  29.5734921   2.9925337  60.9466896  74.7225571  62.7423096  35.0950203
  75.3477325  63.4329987  35.3148727  74.3507233  63.0140495  34.2558937
  36.3423004   1.9622047  15.9888306  35.9652481   2.2455878  16.8217506
  35.9603577   2.5529420  15.3396931  57.3602142  30.0507622  58.6840668
  56.8843346  29.7566051  57.9073830  56.7175369  30.0014019  59.3917122
  74.9440536  32.9702568  78.0829468  74.9622650  33.7033958  77.4678040
  74.1299362  33.0883827  78.5723190  83.5803757  35.5893173  72.6774139
  83.9952011  34.7267342  72.6873322  84.0875168  36.0916519  72.0396805
  67.1654587   9.1675129  52.3798141  66.2978516   8.7636070  52.3612328
  67.0630341   9.9288635  52.9508553  12.3474016  35.5345345  84.6752167
  12.6276379  35.8525848  83.8169937  12.9701424  34.8394775  84.8881073
  13.8933878   3.5955760  87.9171295  14.3515606   3.6796601  88.7533340
  14.0290670   4.4382634  87.4838791  57.0121422  60.5200844  53.1556358
  56.7512169  60.0309677  53.9359665  56.5370064  60.0992088  52.4391556
  52.6713219  58.3648949   8.5262270  53.1296577  58.4249458   7.6880422
  51.7888489  58.6856079   8.3401718  11.2538080  43.5031319  59.5391655
  10.9521656  44.3987122  59.3869095  10.4554586  43.0106506  59.7297783
  44.8996582  61.8642387  49.3508682  45.1053200  62.1878319  48.4738159
  45.7285461  61.9182091  49.8265457  76.3330307   5.6343904  13.3241825
  75.5749664   5.2836418  13.7916708  76.9144669   4.8822923  13.2123280
  56.4902306  66.8092270  39.1466293  56.7850418  67.6947632  39.3591156
  57.1378784  66.2362366  39.5570717  38.6444168  16.6058559  16.4667950
  37.8423462  16.0909157  16.5548153  39.2017250  16.0842819  15.8892136
   9.4511833  59.0227013  73.0037460   9.5862608  59.5743637  73.7742386
   8.5729790  59.2494240  72.6978302   6.2185893  19.5278339  75.0336533
   6.3354707  18.7642651  75.5989304   6.4699535  19.2215137  74.1623230
  73.0837402  29.8257160  72.7438354  72.3956299  30.4442635  72.4986191
  73.7134552  30.3512363  73.2373123  51.2610168   5.3415771  77.3479080
  51.6930504   4.9496779  78.1068497  50.9663544   6.1985645  77.6560974
  50.0703583  45.1489677  58.1147270  50.4411469  45.8087044  58.7008133
  49.1535225  45.0801811  58.3810158  66.5397415  22.5294056  10.5886793
  66.6339951  21.7701416  11.1638870  66.2434692  22.1632748   9.7553701
   6.5709510  36.8034286  12.9421444   6.2908669  36.3698158  12.1360626
   6.4466662  36.1438141  13.6245632  60.5206070  34.4743271  30.2216206
  60.9201241  33.6109695  30.1156654  61.1961555  35.0879173  29.9328861
  62.5156975  53.3982925  81.3872604  62.0614128  54.1259766  81.8119125
  62.0803528  52.6150627  81.7238083  84.5698013  58.2605896  82.4650726
  85.3489914  58.0351372  82.9732666  84.8424759  58.1632957  81.5527039
  38.5468636  55.9756317   2.8085320  38.2321777  55.9924240   3.7123702
  37.7515335  56.0135956   2.2772684   7.9938779  55.9342651  72.2166672
   7.9454761  55.0003471  72.4208450   7.7536774  56.3708687  73.0339279
  33.9084167   0.5593930   6.6950288  34.5437889   1.2708546   6.7747669
  33.4208031   0.5803322   7.5184517  79.1707306  33.7988014  60.2350349
  79.7351456  33.1810341  60.6998215  78.3140106  33.6996002  60.6502800
   7.9292750  32.8925743  25.5574341   8.5232697  32.1642418  25.3759594
   7.9905176  33.4504929  24.7820568  44.8356476  67.6318741  74.0326462
  45.1292076  68.2564926  74.6959000  45.0557899  66.7745285  74.3969574
  80.5595703  45.2850838  14.6691570  80.8380051  44.8387222  13.8694925
  81.0879974  46.0827980  14.6945734  71.1566544   7.6971474  66.6709442
  71.5057526   6.8270340  66.8639832  71.8181686   8.1014967  66.1095734
  81.0930634  48.5907822  80.5306168  81.5962067  48.8972893  79.7762070
  80.4923553  49.3099327  80.7260590  72.8017426  39.6149826  64.6829834
  72.8651352  39.6256294  63.7279434  73.0578156  40.4978294  64.9498749
  46.9478111  60.7915497  61.5743256  47.0681953  60.2068558  60.8260803
  47.0744972  61.6696358  61.2149506  57.2212105  13.8926086  56.9315910
  58.0554733  14.3582544  56.8731613  57.4023552  13.1476336  57.5046806
  18.3771648  30.2025776  87.1684952  17.4781570  30.5065651  87.2934265
  18.2862091  29.3695183  86.7059250  47.8345413  64.9487762  55.6703568
  48.0652580  64.0538864  55.9196930  48.3973198  65.5012131  56.2128754
  20.5482578  27.4822922  10.0337248  19.7074604  27.1499519   9.7193356
  20.5023823  28.4270554   9.8869343  75.9526596  60.0248604  19.9795017
  76.3227921  59.9465027  19.1002445  76.1216507  59.1754189  20.3870850
  55.3869820   8.0132914  74.3848114  55.9145470   8.3497248  75.1091843
  54.6340599   7.6008949  74.8082047  16.4949799  47.1717224   8.2493076
  15.6024618  46.9516907   8.5161982  16.8906956  47.5568771   9.0311613
  18.2754230  42.3557968   6.3181190  17.5718384  41.7117348   6.2382183
  18.6208725  42.4445801   5.4298544  42.8999214  54.8919830  66.5150681
  43.4251060  54.1619720  66.8429337  42.8385162  54.7384224  65.5722656
  86.1387177  67.1399384  80.1538391  85.2844467  66.7758636  79.9216843
  86.6970749  66.3740921  80.2877960  62.8916397  61.3852234  43.9392891
  63.1429901  62.2137222  44.3475075  62.0055580  61.2188721  44.2608833
  25.3628960   4.5406356  62.0387650  25.8060741   3.7100110  61.8658791
  25.3984280   5.0091748  61.2048340  10.6289635  27.0060024  69.9061890
  10.9026079  27.1599159  70.8104324   9.8274965  27.5199909  69.8077011
  69.0303192  34.9381485  13.2384453  69.0760880  35.4409256  14.0516806
  68.1702347  34.5188255  13.2641802  19.6122513   2.0684330  80.4811172
  19.7642937   2.5896683  79.6928101  20.1739559   1.3009733  80.3728333
  45.7913513  67.4349899  35.0860710  46.5863724  67.1378174  35.5286331
  45.0811272  66.9792786  35.5378876  61.1198730  47.4782181  53.1317635
  61.6037750  47.6009445  52.3150597  61.7776108  47.5872688  53.8185844
  48.4869385  28.4481697  80.5124435  48.1248665  28.7182159  79.6685181
  48.8087158  29.2593994  80.9056320  68.5627441  53.8447075  69.8394547
  67.9156647  54.3911552  69.3934555  68.7679138  54.3235321  70.6424866
  25.6195660  64.2917633  24.1928520  24.8521194  64.6347122  24.6507168
  25.9048920  65.0121231  23.6308060  82.3489532  33.3332062  29.2571583
  82.8791962  32.9004822  29.9263573  82.7204895  34.2127151  29.1888962
  32.0640564  23.5360756  75.5328751  31.6154289  24.1023331  74.9049301
  32.3662758  24.1313438  76.2188416  39.8202934   5.9475002  79.0254364
  39.4430313   6.7338476  78.6310196  39.0783691   5.5088415  79.4418030
  25.5305099  49.1238976  81.2185440  25.4155388  48.6504440  82.0424728
  26.2651978  49.7151375  81.3825531  27.4457150  55.4447975   1.0458499
  27.6323242  54.8602448   0.3112026  26.4919777  55.5259705   1.0510710
  70.4753571  55.8562469  44.6604843  69.5419846  55.8115692  44.8679733
  70.5529938  55.4215546  43.8112221   6.4957333  13.0735579  12.9035130
   6.7899022  13.2824306  13.7901182   7.1028242  12.3973570  12.6028070
  62.3016891  36.5390358  46.2104797  62.7405090  37.3858757  46.1296997
  61.5492630  36.7121773  46.7762642  16.8279572  69.2381821  63.6653709
  17.6346054  69.1776352  63.1536255  17.1240196  69.2861786  64.5743637
   5.7210116  48.0163269  42.8592567   6.1350923  47.1550369  42.9135551
   5.6468534  48.3042183  43.7691193  21.6658478  14.4279537  16.2845764
  22.1054668  15.0215731  15.6758204  21.2331028  15.0063086  16.9126434
  61.8883286  58.9024582  81.5316162  62.7881203  58.7506943  81.8207169
  61.6870651  58.1528053  80.9714813  25.7469330  71.4477081  27.2644615
  26.6869564  71.6217194  27.2163887  25.6631107  70.5209885  27.0399895
  68.1712112  28.2000809   1.7067426  67.6185684  28.2225266   0.9255149
  67.6397629  27.7496910   2.3632088   4.6251159  26.4438610  13.4933567
   4.0678229  26.7095509  12.7618752   4.4064412  25.5234337  13.6390581
  10.5025253  23.2214985  73.2540970  11.2761984  22.7748432  72.9103546
   9.9652987  22.5203686  73.6229324   4.4784741  60.1394348   1.2184712
   5.0175481  60.9064713   1.4115688   4.0727181  59.9149055   2.0558367
  79.7423553   5.3457341  82.7753906  79.8810883   4.5590839  83.3028107
  80.5918121   5.5133510  82.3672638  41.8967056   1.0257199  58.0403900
  41.2641602   0.8043954  57.3569183  42.1829453   0.1797632  58.3848534
  61.0466461  59.5138321  50.8068199  60.7265778  60.0490074  51.5330238
  60.6098671  59.8725090  50.0342865  13.8445187  66.6789093  67.5470886
  13.3630409  65.8656921  67.3951340  13.2978401  67.3582687  67.1523056
  52.3052826  22.1286049   2.2203300  51.7517166  22.8524532   2.5133109
  52.2031937  22.1190090   1.2686381  67.3228149  29.2531891  11.7043419
  66.8198242  29.5808544  12.4499102  66.8620224  28.4585304  11.4352217
  28.9804115  70.5520782  87.9540787  28.4284401  71.0852890  88.5261383
  28.7941380  70.8751068  87.0724945  21.9104080   6.1461730  87.4051132
  21.3659134   6.0348287  88.1844482  21.2956886   6.0905070  86.6735001
  55.8735199  46.0299492  67.4611588  56.6675110  45.4953918  67.4687424
  55.1730385  45.4152870  67.2426453  23.9712543   2.7461250  13.7893171
  24.3332081   3.4917471  13.3104963  23.4437943   2.2787371  13.1415787
  51.5934677  45.5587654  25.3064137  51.0100555  45.6303329  24.5509396
  52.4359779  45.8849411  24.9901562  30.3177662  47.7607498  22.6077385
  30.5207443  46.8260841  22.6455517  30.4014244  47.9867249  21.6813641
   8.6007776  35.9689903  37.4123268   9.5441952  36.0075226  37.5695190
   8.5174551  35.9484100  36.4589844  38.1656036  15.0888815  10.8023453
  38.4962959  14.3727388  11.3445778  38.7458839  15.1006432  10.0411806
   5.2265706   5.2759647   2.6205268   4.5663137   5.3527293   1.9317598
   5.9624104   4.8324294   2.1985691   1.8578510  32.0304337  39.8427162
   2.4090791  32.4955177  40.4720573   1.1142441  31.7198486  40.3592606
  48.6850777  34.5951920  45.2919312  49.4691353  34.3485260  45.7824821
  48.1597557  33.7955780  45.2621460  77.9709625  28.1979294  74.1565475
  78.7272873  27.9102421  73.6452408  78.2908936  28.2337971  75.0579834
  18.7617970  66.1058350  63.4921188  19.0362644  67.0118790  63.6334648
  18.4373913  65.8179626  64.3454208  10.6937170  47.4514999  11.4636345
  10.8172016  47.1457291  12.3622370  10.2051620  48.2696533  11.5540380
  38.5748787  14.5316744   0.2073831  38.1721687  15.3222876  -0.1517670
  39.3036499  14.8538504   0.7377822  60.3767281  46.2803192   0.8213562
  61.0290718  46.7059593   1.3776958  60.8260345  46.1431656  -0.0126367
  53.9085693  54.5900383  16.7666550  54.3423653  55.1907463  16.1606808
  53.4408569  53.9755745  16.2010460  20.6081944  59.4883423  78.5722580
  21.3305683  60.0921936  78.7448120  20.6701698  58.8353386  79.2693787
  68.8413849  32.6573296  54.5848389  68.6814041  32.3584633  53.6896744
  68.0874481  32.3396912  55.0817451  18.6621799  28.8784676  32.5573158
  19.6099243  28.7824841  32.4635201  18.5181389  28.9209614  33.5026627
  85.2293015  19.2354202  15.3544827  84.5943069  19.3722439  14.6514273
  85.2394714  18.2874794  15.4869070  49.0600204   4.5867014  17.0873108
  48.8487854   3.7217362  17.4386597  49.5617523   4.4063110  16.2923546
  81.7441177   8.9471769  29.3508434  81.0952682   8.3358850  29.6994781
  82.5788269   8.6359510  29.7010345   3.6054189  62.8798752  43.6244087
   4.5093403  62.9873924  43.9203758   3.5400975  61.9553642  43.3851433
  69.5059891  65.2310257  56.2934189  70.1583023  65.8863449  56.0458679
  70.0198898  64.4959564  56.6278076  27.0969181  64.9044952  50.7510109
  27.6287098  65.4282684  51.3502579  27.6014977  64.8848267  49.9378433
   4.9562206  29.3960819   7.1700687   4.2207689  28.9530563   7.5932364
   5.3001471  28.7517090   6.5514174  10.6798935  64.0161896  84.0921021
  11.1535091  64.7758636  83.7532578  10.5963907  63.4307442  83.3394318
  73.5651169  33.1525879  40.9029503  72.7068863  33.5743942  40.8611832
  73.4584808  32.3426933  40.4040184  15.7146444   1.1689112  74.1385040
  15.1724377   1.9095026  74.4101028  16.5050945   1.2418984  74.6733780
  35.1893425  43.8716393  82.5571365  35.9970131  43.4281693  82.2978439
  35.2149124  44.7075005  82.0913925  81.6757584   7.9586124  51.4967728
  82.4826965   7.7874360  51.9823456  81.0191040   8.1225281  52.1736565
  33.0495033  55.5034561  19.1974487  33.2653236  56.4219704  19.3586464
  32.6232910  55.2125206  20.0036297  52.9655304  44.4408112   6.3506088
  52.3786774  43.6868553   6.2924190  53.7519646  44.0998726   6.7766519
  52.3681374  20.3302326  64.4880829  52.9890480  20.4623604  65.2044983
  51.5367355  20.6615639  64.8275375  59.0335846  55.6175613  29.4835720
  59.2619896  55.9526749  30.3506145  58.4365501  56.2731514  29.1230450
  74.9375687  61.1232567  27.2032661  74.5149536  61.5422821  26.4535656
  74.7934265  61.7299919  27.9294395   0.5979812  64.4658890   4.9127207
   1.1893570  65.2045670   4.7683058   0.6012763  64.3383484   5.8613801
  38.6578026  66.6942444  76.7966690  39.0274696  66.1881256  76.0731964
  37.7837639  66.9409943  76.4943390  36.0710297  47.8420868  19.1123390
  36.4679375  47.7075195  19.9729137  36.4808197  47.1816406  18.5536652
  59.1660233   8.1255274  82.3239517  59.0282288   8.5807686  81.4932861
  58.9202271   8.7658424  82.9916382  14.2533407  47.3496933  27.8187027
  14.8741293  47.9169044  28.2760048  14.5910244  46.4647217  27.9566307
  42.4905205  45.9817085  70.2520981  41.7699738  45.8888512  70.8753357
  42.0866547  45.8391075  69.3960648   3.0537925  30.9029083  61.7701874
   3.0763421  30.2517471  62.4714088   2.1220148  31.0698643  61.6282425
  11.9560280   7.6977754  19.2915249  12.7410660   7.4735503  19.7911949
  11.6487837   6.8620005  18.9403667  48.4149094   0.9802956  52.9274902
  48.1544228   0.2091578  53.4312019  49.3395271   0.8345218  52.7273331
  18.5164528  55.9312859  89.2607422  18.5074520  56.2814636  88.3699417
  17.9337940  56.5106468  89.7517395  60.6836891  22.5951653  68.8058014
  60.6606560  23.0459633  67.9617157  60.4942513  23.2792740  69.4479370
  58.3795433   0.7457421  66.8549881  58.4960442   0.9247891  65.9219284
  58.9300194  -0.0191766  67.0226440  80.7575150  45.4092827  61.8800583
  81.2809525  44.9773788  61.2049980  80.6506882  44.7455826  62.5614700
  62.1585503  35.0609550  75.2557831  62.5727539  35.0432243  76.1185455
  62.2479019  34.1657982  74.9287643  86.7267303  46.6449852  73.8570023
  85.7958374  46.7720299  74.0401230  87.1290436  46.5447426  74.7197418
  59.2651215  22.2016773  51.6865883  60.1926994  22.2310696  51.4521370
  59.2058983  21.5076542  52.3431396  82.6400375  47.6232948  41.0407715
  82.7386169  48.5246124  41.3475914  83.1220245  47.0986099  41.6800079
  79.6489792  51.8562927  29.9857101  79.2376709  51.0105133  30.1638012
  80.5807724  51.7082062  30.1471367  49.1649971   0.8091766  14.8791208
  48.3136482   0.4079387  15.0536118  49.6663780   0.1242991  14.4366379
   3.3891983  53.9122009   0.3252071   3.8257930  54.3027725  -0.4318064
   3.9237800  53.1484489   0.5423166  14.0569658  42.0131035  53.9680634
  14.5241814  42.8102951  53.7182121  14.7191868  41.3233948  53.9233589
   7.9208603  64.6220398  16.3995190   8.0584421  64.2590179  15.5245800
   8.8035240  64.7716675  16.7382679  58.9879532  65.2568207  68.7861023
  58.8967628  65.6588440  69.6499863  59.8674240  64.8789902  68.7893829
   9.4045753  64.7361832  52.3184929   9.6929531  65.0628357  53.1707649
   8.6208353  65.2480316  52.1185074  27.3216400  54.8119087  59.6895714
  28.0248966  55.1663742  59.1455002  26.5256119  54.9614944  59.1794777
   1.4900244  16.0179710  53.6201363   1.2926726  16.6389275  52.9189224
   2.4412789  16.0610867  53.7175407  37.1756248  12.8358469   3.0856416
  36.3261909  12.4168110   3.2238512  37.0916824  13.6917400   3.5059180
  10.2729883  49.7771530  72.9053421  10.1666698  49.3961182  72.0337143
   9.5682821  50.4214249  72.9726791  65.0625839  30.8979111  53.9271812
  65.6269531  30.1503220  53.7301407  65.0279694  30.9264393  54.8833275
  80.9575729  47.5444412  77.3715134  81.2112122  48.4659500  77.4236984
  81.6388702  47.0805664  77.8582153   5.2159443  34.9605217  56.7637367
   4.3542500  35.0554161  56.3578911   5.3685579  35.7984695  57.2005310
  30.6347237  27.0537243  12.4187269  30.8497829  26.2853470  12.9474773
  30.9385414  27.7963257  12.9407110   1.9579099  13.4678450  12.0174952
   1.3012755  13.9915009  12.4766760   1.9892446  12.6435452  12.5030661
  44.1594582   4.4507389  82.6197357  44.2934532   3.5271826  82.8326187
  43.3214226   4.4708738  82.1576538  37.3464050  42.2039795  39.0363159
  37.7568779  41.3437767  38.9480438  36.4237556  42.0511551  38.8323631
   5.3602142  62.4271088  79.2047424   5.6425939  63.2963409  79.4892197
   6.1359529  62.0459671  78.7934113  42.9840088  20.4925785  60.5531197
  43.1055565  20.5022163  61.5025215  43.8633614  20.6217289  60.1977501
  72.1588821  23.4938660  85.9080353  72.8780594  23.6231918  86.5263290
  71.7934952  22.6403103  86.1407700   4.7981205  55.7501678  49.6322708
   3.8510354  55.7726326  49.7692261   5.1337080  55.2322197  50.3639450
  62.7459717  32.6204758  74.1954727  63.6932220  32.7462463  74.1395416
  62.6362839  31.6772156  74.3157120  52.9141350  61.4893112  67.3168793
  52.2467422  61.2105751  66.6898804  53.7017326  61.6160240  66.7878571
  78.4625244  16.3261299  57.9937477  79.1183090  16.4729652  57.3121262
  78.7766113  15.5551701  58.4661942  53.7631836  34.9848289   4.1661501
  53.5756378  35.8961639   4.3909321  53.0483665  34.7300606   3.5827417
  76.9123688  34.9217377   0.3501587  77.5147629  34.2143936   0.5804291
  76.0763779  34.6593513   0.7355072  83.3893738  18.0235043   3.0325189
  84.1808548  17.6343384   3.4044671  83.0700226  17.3692055   2.4111199
  80.8643265  65.1084595  43.7999344  80.7044296  64.5086899  43.0712776
  80.0848312  65.6632385  43.8289795  64.0318756  20.0605373  30.0900364
  64.6114120  19.7376328  30.7800407  63.1498795  19.8697491  30.4092789
  48.2302475  37.2487602   1.7649513  47.8978348  36.4856911   2.2376721
  48.0478287  37.9880142   2.3450017  17.0578613  56.4129791   4.1573987
  16.3516483  55.8968849   3.7686260  17.6098423  55.7683640   4.6001406
  65.4876709  43.7932549  85.1334381  65.2863312  44.1585007  85.9950027
  66.4064255  44.0181847  84.9866943  36.3948250  64.7761917  45.7250519
  37.1341438  65.3207321  45.4546623  36.5403862  64.6209488  46.6582947
  53.9442787  23.3231487  62.5284805  53.8544693  23.3541775  63.4809494
  53.1383743  22.9049397  62.2254143  39.2447929  64.7202682  56.5960617
  39.2781868  63.7999611  56.8571167  38.8185921  64.7108078  55.7390327
  47.7879257  65.8648605  14.4121008  47.7445946  66.3025742  13.5619450
  47.4402618  64.9882355  14.2481489  71.8672028  45.3468285   5.1768527
  71.6012115  44.6595383   4.5660257  72.6656418  45.7110558   4.7946696
  31.8516235  68.6154175  68.2904129  32.6571045  68.5013275  68.7948151
  31.3423252  69.2512207  68.7930145  11.4966011  50.2040596  61.4040642
  11.7366972  49.4875679  60.8165054  12.1749067  50.1975212  62.0794106
  74.9791794  61.6645432  57.3591995  74.5980988  61.8773193  58.2111015
  74.6022110  60.8140411  57.1338768  35.9335594   4.8287520  11.2646837
  35.9680634   5.4512267  10.5383463  35.7762947   3.9819160  10.8471098
   6.3417029  47.2713852  18.9676113   5.5848761  47.8256760  18.7773361
   5.9636865  46.4379616  19.2482185   8.1677942  15.0747280   3.8904529
   8.8560867  14.7504644   3.3096447   8.6368980  15.5534391   4.5738335
  75.7009735  25.8634682  31.6523380  74.7613983  25.6954975  31.5801830
  76.1111679  25.0251236  31.4398422  53.8788605  52.1256638  80.2890701
  54.1727371  51.6908379  81.0895615  53.6552773  53.0138512  80.5672150
  71.3503189  52.0214157  44.8483124  71.0687180  52.7069092  44.2424812
  70.5477295  51.7520103  45.2949677  67.6260605  37.1909561   1.3062252
  68.0913696  38.0274353   1.3012100  68.2072372  36.5907898   0.8390400
  48.8396683  49.0430489  23.1139488  48.0946693  49.1845779  22.5298424
  49.2947006  49.8850212  23.1300812  44.2061577  68.3873138  80.5496063
  44.8737831  68.1798401  79.8957977  43.7312965  69.1313477  80.1792603
   1.2278204  44.4827538  60.3104515   1.2413445  44.2365379  59.3855591
   0.6379830  45.2356262  60.3492813  72.8775024   2.8493533  53.7091866
  73.7247314   3.2095070  53.9713402  72.5345383   2.4409823  54.5040703
  50.3052750  58.9752655  22.8396111  51.1128120  59.3685265  22.5087566
  50.3634224  58.0554543  22.5811653  56.3629112  51.1918373  28.7382927
  56.8777161  50.6703186  28.1224804  55.6594238  50.6062775  29.0183849
  85.4753189  69.5109406  85.1066437  86.0579605  68.8722763  85.5175705
  85.3744659  69.1992264  84.2072601  47.6926079  35.1119614  78.0325165
  47.0068817  34.7057724  78.5626297  48.3613663  35.3734398  78.6654663
  56.3310204  66.0744019  49.3050537  56.9936752  66.7101517  49.5751190
  55.5052643  66.5566940  49.3469543  47.4622269  57.6079483  79.3074036
  47.0113869  58.4189491  79.5424652  46.8197861  56.9189491  79.4770584
  62.9762306   7.2666020  64.6744156  63.7633171   7.7377982  64.4011154
  63.2834663   6.3820977  64.8731308  52.9210968  52.4027710  23.0373173
  53.8084831  52.3255234  22.6868801  53.0168800  52.2256927  23.9731064
  41.3793716  11.9636297  84.2479019  41.3899155  12.1324739  85.1900330
  40.5590935  12.3523121  83.9440842  39.8653984  56.6314659  37.3184433
  40.6193085  56.2588768  36.8612442  39.9657059  57.5776711  37.2141953
  54.0799828  23.4092102  59.5880814  54.8276405  22.8147449  59.6501274
  53.8006172  23.5381126  60.4944839  70.6321487  34.9989967  85.8843384
  70.8172455  35.8857269  86.1936646  71.3326492  34.8122635  85.2593002
  37.8494987   2.3118761  77.8075485  37.4589462   2.5071881  78.6593475
  38.7166519   1.9641173  78.0157394  16.3773117  23.8913765   4.9762902
  16.4836445  23.2539635   4.2701535  16.6432152  24.7250938   4.5884223
  59.2348824  54.0274544  52.3998795  59.9123993  54.5893211  52.0237045
  58.5246010  54.6277161  52.6266327   0.6336781   4.1948280  32.2750092
   0.4962797   4.7478595  31.5059109   0.1890022   4.6575060  32.9852371
  63.2226067  59.9729919  87.7358704  63.5603714  59.1244888  88.0225525
  64.0025940  60.5172577  87.6280746  76.5200577  14.6203022  41.1831360
  76.0736237  15.3150473  40.6991272  76.9408951  14.0895500  40.5068016
  15.2990999  13.4225969   2.4752321  15.9937534  13.8984442   2.9304881
  15.4798908  13.5656948   1.5462166  74.4666290  55.9493256  33.4790459
  74.9230576  55.4884300  32.7751389  75.0278091  56.6988487  33.6778564
  18.8745117  51.6587257  30.3649502  17.9228668  51.5952988  30.4460735
  19.1902828  50.7746696  30.5519505  85.1920700  19.5940056  48.2125320
  84.8590317  18.7209415  48.0049820  84.6354980  20.1884937  47.7094994
  72.6957245   3.3324065  75.1252594  73.2218857   3.9539132  74.6221542
  73.2941589   2.9974623  75.7930374  21.5971642   7.2381034  13.8741961
  22.2668343   7.5551577  14.4802065  21.2935314   6.4168973  14.2610540
  15.6235399  35.9661789   7.6456943  15.0505915  35.5395813   8.2828588
  15.8468390  36.8053017   8.0484858  21.0202332  34.1445351  84.0085831
  20.1621513  33.7916489  84.2439499  21.3296432  34.5738449  84.8061981
  69.1225815   9.3282309  66.0395889  69.9127426   8.8720083  66.3289566
  69.2499313   9.4549990  65.0994110  27.6267281  51.3604317  44.7542114
  28.1929188  51.8210030  45.3735123  28.1929207  51.1735039  44.0054016
  38.3561096  59.1984787  22.7652130  38.9011955  58.4221420  22.8933334
  38.9248123  59.8175354  22.3074112  74.6637955  11.2278643   4.7162724
  74.5513992  10.6606045   5.4790411  74.2476120  10.7499037   3.9989321
  46.6092758  56.8864136  82.5102234  47.2457695  57.5691185  82.2980499
  45.8151894  57.1456871  82.0428619  49.7770653  48.1023636  19.9704952
  50.4669189  47.9344826  20.6124840  49.1170197  47.4320755  20.1473560
  27.1441669  30.0852375  12.3231421  27.8171616  30.4371605  11.7405090
  27.3542595  29.1543045  12.3970051  31.0256863  10.0272713  83.7883911
  30.9063931  10.9410362  83.5294800  31.7221718   9.7051783  83.2162018
  53.7415504  60.8878517  61.9938202  53.6473770  60.3509102  62.7806206
  53.8334579  60.2550163  61.2815666   7.7518606  21.8466034  69.8770981
   7.3425803  21.8869553  69.0127487   8.0003014  22.7512970  70.0669327
  16.4494591  66.0977631  72.1402740  16.0161133  66.2930374  72.9711304
  15.8049068  65.5898285  71.6475449  72.9682312  70.4379730  63.7383308
  73.0621262  71.1551514  64.3652878  73.8459167  70.3213806  63.3745918
  86.0012741  21.3040009  88.7241287  86.9196472  21.5493126  88.8365631
  86.0324173  20.4545784  88.2839737  31.9772015   2.4141743  67.2136383
  31.6953468   3.2657032  67.5478363  31.1751347   2.0087802  66.8841248
  33.9190788  55.7174072  38.5569191  34.2229309  55.4688416  37.6839218
  34.2931862  55.0553474  39.1382523  44.8183060   6.6750245   2.9454665
  45.5088997   6.4355869   3.5635111  44.1136513   6.0511966   3.1202123
  81.3083267  65.8996048  16.3928185  81.2097778  65.1851044  17.0221100
  81.7428436  65.4978943  15.6404476  16.2944984  50.7687035   7.2635865
  15.8601236  50.1659813   7.8671403  17.2288914  50.6339073   7.4216042
  57.5854416  13.1227980  77.7593536  57.7968864  13.6358128  76.9793930
  58.1695137  13.4644718  78.4363632  42.2278099  51.3395805  47.3478394
  41.9114342  52.1886444  47.0392418  41.5200462  50.7299271  47.1389732
  76.5637970  10.9321671  73.1002579  76.9683456  11.7924433  72.9884644
  77.2492905  10.3949146  73.4973526  28.7642384  14.7190685  15.8248558
  28.6606750  15.3400927  16.5458508  29.6953678  14.4972954  15.8316460
  30.3165646  27.5168133  79.7632904  29.5358963  27.0851116  79.4162674
  30.9782581  26.8258762  79.7949219  65.4962006   0.4831229  37.0867844
  65.9594498   0.0688689  37.8148117  64.7164307   0.8678820  37.4869804
  82.6985550  48.4005394   1.5998083  82.9131622  49.3254128   1.7213904
  83.2200699  47.9447861   2.2605264  22.3484383  50.8067780  88.5066147
  23.0603104  50.1683769  88.4628525  21.9796219  50.8151779  87.6233597
  57.1109924  58.2635040  46.6035156  57.5103378  59.1121674  46.7946396
  57.8505630  57.6587486  46.5440254  11.8240805  71.1229706  29.5135155
  11.7312241  70.5320663  30.2608013  11.4021978  70.6610413  28.7890377
   2.6605284   1.7655554  28.5204792   3.4777429   2.2261550  28.3301105
   2.7857144   1.4092205  29.4000168  61.9735680  46.7495003   6.8874249
  61.3623047  46.8386574   7.6186152  62.0748520  47.6395187   6.5500255
  71.7631378  17.1317883  15.6600056  72.5809784  17.6094513  15.5214291
  71.8279648  16.3727036  15.0805054  51.2850075  28.6183472  36.6312981
  50.6126404  27.9904690  36.3668633  51.2813683  28.5845089  37.5878944
  45.4673271  57.4487305  16.4247932  44.8334732  57.5041008  15.7096739
  45.8171310  58.3361893  16.5040455  49.4392738  66.3552856  57.2454796
  49.8303642  67.2212906  57.3608322  50.1139297  65.7459564  57.5451393
  80.5112000  62.6243210  87.8919067  80.2549591  61.7723045  88.2449493
  79.7781219  62.8823166  87.3330994  26.0473061  39.2793655  61.8709030
  26.5133514  39.8693123  62.4633522  26.5724030  39.2796478  61.0705872
  70.3851166  65.3811951  20.4963188  69.6465073  65.4421310  21.1021023
  69.9819260  65.2294540  19.6415386   2.4618709  12.8586864  58.5384903
   2.6892204  13.7592373  58.3070793   2.3378828  12.4192295  57.6972198
   2.3269706   2.9174917  73.5462112   2.4608884   3.5969009  74.2070465
   1.5314867   2.4646120  73.8261032  60.9151802   8.4427156  57.9083748
  60.0444679   8.5443850  58.2927704  61.5069656   8.4135275  58.6601524
  13.2274456  33.6432457  88.3853302  13.8936968  33.9276199  89.0110092
  12.5848093  33.1733513  88.9167862  77.4942932  60.3817635  26.4770565
  76.7738571  60.8163147  26.9335232  77.2777634  59.4503555  26.5197449
  80.5035400  28.6670494  55.5010414  80.8698883  28.7741203  56.3788528
  79.5556946  28.6782360  55.6340790  33.1547012  66.1574249  78.9027710
  32.5845947  65.5413284  79.3628082  33.4250870  65.6894379  78.1127625
  78.3635635   7.9294910  35.2616005  78.8134155   7.9317369  36.1065025
  77.7632675   7.1856170  35.3118477  64.4313889  28.8837109  77.6612167
  63.7931061  28.3247681  78.1044083  65.0169525  28.2716885  77.2153854
  77.7214508  53.4476929  87.3905029  77.5976562  52.6203613  86.9252853
  76.9307938  53.5446587  87.9212494  27.2198601  43.1726570   4.3044333
  28.0304928  43.3353844   4.7867470  27.3996677  43.4905319   3.4196427
   7.7875118  44.6028366   5.0951500   7.2734628  44.9461174   5.8260016
   8.0616875  43.7321701   5.3832536  48.6896858  64.2960892  35.8246765
  49.4213333  64.5392075  35.2573814  49.0828552  64.1916656  36.6911316
  46.8135719   6.6066685  50.8589630  45.9207764   6.7344170  50.5382881
  47.2436256   6.0959148  50.1730919  58.9284706  42.1668091  46.9034500
  58.6983871  41.9032288  46.0124855  58.2406693  42.7826653  47.1561928
  84.9821625  25.6605453  56.4034042  84.4665222  24.8979492  56.1411095
  84.7773361  26.3256989  55.7462540  61.8633881  71.2367249  38.7346764
  62.1089783  72.1530685  38.6072998  62.3967438  70.7556381  38.1019707
  76.7904739  50.8487053  86.3016663  75.8381729  50.9017639  86.2208786
  76.9450226  50.0367966  86.7845230  40.5883408  42.2709312  68.1683502
  40.0133896  43.0173950  67.9996643  40.2282028  41.8645401  68.9566269
  32.2429428   2.5695477  63.2112694  32.6544418   1.8226457  63.6460571
  32.2983170   3.2794085  63.8510056  12.3786182  57.7207756  36.3346825
  12.1738195  57.2200089  35.5450478  12.0966015  57.1574898  37.0553818
  38.6428986  25.3073940   7.6899929  38.1739998  25.7553253   6.9859180
  38.2748642  24.4238167   7.6985879  83.4783554  63.9978065  79.8559265
  82.6627426  63.5024033  79.9306259  83.6171875  64.3637314  80.7294617
  67.1343536  52.4753265  78.5101852  66.8041992  51.9328156  77.7940140
  66.5044708  53.1929665  78.5770569  59.4923668  34.8645592  46.5787506
  59.8940353  35.0462036  45.7291031  59.5344238  33.9121666  46.6648521
  85.3574677  52.4579353  25.2126827  85.2686310  52.5998535  24.2702408
  86.2833481  52.6204681  25.3931446  82.7445602  70.9892044  44.7256660
  82.4150848  71.6788101  45.3019676  82.1429825  70.9915390  43.9811325
   7.6310754  71.4417801  70.1937790   6.8749304  71.0337372  69.7719040
   7.7328072  72.2804337  69.7437286  18.2105083   9.4102221  23.8783760
  18.1529102  10.0574827  24.5812054  18.3962536   9.9251738  23.0931644
   4.6147285  63.5511856  16.8517189   5.2581639  62.8427734  16.8324242
   4.6889729  63.9656601  15.9921083  13.8346109  69.0009460  23.0680790
  14.7016277  68.6965942  23.3361912  13.8561382  68.9728928  22.1115322
  82.2412796  21.9788055  21.9165077  81.3036041  22.0133400  21.7273102
  82.3920441  22.7107296  22.5146618  20.6400452  61.6326408  42.2344398
  20.1156368  61.1344948  41.6074829  19.9985256  62.0132103  42.8343201
  19.0714417  45.2527046  84.3175430  18.9999313  44.7090569  85.1021271
  20.0134144  45.3392372  84.1711502   8.4989090  33.1112709  37.9346008
   9.2664928  32.7206345  38.3522720   8.8096819  33.9533806  37.6021729
  62.7864151  37.1654434  37.2227364  62.9852943  36.6378250  37.9962311
  61.8427391  37.3177452  37.2728653  57.7168922  17.0797749  55.4864159
  58.2741585  17.6879826  55.9719772  56.9425087  17.5942287  55.2585945
  18.0005398  28.7273026  17.1655636  17.5129833  28.9655571  17.9540768
  18.0225182  27.7704296  17.1775265  72.2520676  41.6478157  82.2070923
  71.9687576  40.9549713  81.6104889  72.8203201  41.2041473  82.8367538
  65.7921600  11.4559336  74.9593201  65.8273392  11.2600164  75.8955917
  66.3434982  12.2315588  74.8560410  19.0222816  44.0868111  34.4990044
  18.3844242  43.7319870  35.1182556  18.6170254  43.9634209  33.6406517
   6.4498563  11.3786478  85.5051880   7.0759492  12.0495758  85.7773972
   6.8084292  10.5616674  85.8518906   2.6818790  -0.0308673  68.4897919
   3.1618373   0.4369635  67.8064117   3.3596954  -0.3336588  69.0940399
  79.0659561  33.7486076  33.1523857  78.5890732  34.0313416  33.9326897
  79.9815979  33.9504128  33.3450546  56.8729401  25.0317020  73.0577774
  55.9660873  25.0891266  72.7568588  56.8746910  25.4849491  73.9008636
  38.3667679  50.8739243  55.9099083  37.9463844  50.2800980  56.5319061
  37.8445778  51.6749763  55.9531670  51.9742851  11.9508228  26.2022591
  52.4782066  11.2744713  26.6548519  51.3136330  12.2236109  26.8389378
  54.3110237  22.1113453  30.9339008  54.0305061  21.9637756  30.0307026
  54.5966263  23.0248070  30.9497814  73.5840073  60.7349854  85.1726074
  73.5643921  60.1036797  84.4533691  74.4127579  60.5630836  85.6196442
  55.6102295  28.0106659  22.2864113  56.0383110  28.6216259  21.6866570
  56.2506027  27.8716698  22.9841480  25.6497173  49.8915901  16.3799725
  25.7029991  50.0993881  15.4471216  26.4475689  50.2649612  16.7544804
  33.8665695  29.2108631  13.0691662  33.0312195  29.0963173  13.5222654
  34.4714737  29.5012226  13.7518167  65.4604721   7.2244916  86.0395660
  65.6169739   6.3308978  85.7342377  66.1136627   7.3609686  86.7258224
  82.0636978  23.4298458  47.7980080  81.1853561  23.2064018  48.1059341
  81.9508972  24.2591438  47.3334923   6.6708488  10.6499004  80.3204880
   5.9370480  11.1909676  80.6120605   7.0424695  10.2949915  81.1280594
  58.3620949  21.3705750  55.3240547  57.5355568  21.8316555  55.1809731
  58.5764732  20.9929295  54.4710274  12.2158117   9.9967117  71.8977890
  11.3625107  10.4180689  72.0005875  12.0330744   9.0611992  71.9852905
  24.7500801  67.5847931  55.8867302  25.0859299  66.9040527  55.3036079
  24.3736134  68.2395554  55.2986946  30.6323338  66.0132751  75.4645233
  29.9795074  65.3232574  75.5825195  30.4413013  66.6448441  76.1579590
  84.3594589   3.2559471  81.0915909  84.3798218   3.0805297  82.0323639
  84.5512085   2.4103589  80.6860733  64.2785416  48.8018646  76.3025436
  64.4362640  48.6770515  77.2383728  63.3284492  48.8927994  76.2298203
  39.6339149  34.7135925  68.5393906  39.1551628  34.0303268  68.0701599
  39.2343674  35.5317993  68.2442093   2.0935309   0.6849106  10.8375416
   1.6275917   0.3578641  10.0680132   3.0111735   0.4689592  10.6716232
  61.8662033  32.2385101  21.0827618  61.0828819  31.7791157  20.7801094
  62.2033882  32.6772041  20.3016834  86.2773590  20.0017300   5.7781563
  86.4139557  20.5061989   4.9762311  86.8101654  20.4486065   6.4359174
  68.0622177  35.9868889  48.5304070  68.0016403  36.6562195  47.8488159
  68.8687210  36.1968422  49.0012665  24.5104332  41.2185745  10.1419802
  24.9260063  41.8147202  10.7649889  24.7801189  40.3461266  10.4289293
  11.3848133  34.2651901  81.3878250  11.4341431  35.2148933  81.4967117
  11.7077446  34.1087570  80.5004272  85.5703049  66.6391068  73.9974899
  84.8974991  67.3184891  73.9527130  85.9435730  66.6132431  73.1164474
  42.9060287  61.6576004  46.7733345  42.6261406  62.3537674  47.3676758
  43.2839470  62.1192551  46.0248146  55.0157776  43.4087715  52.7123299
  55.5462608  44.1990814  52.8134651  54.2473564  43.6974754  52.2199821
  58.8028107  11.3022728  75.3378906  58.2797241  11.6320620  76.0685425
  58.2179756  11.3543329  74.5819244  53.8653412  17.7495022  47.9695206
  53.6457748  17.4799328  48.8613472  53.1065750  17.4895763  47.4470787
  67.5767975  13.6058664  29.7425747  67.0389481  13.9848709  29.0473690
  67.2187500  13.9743128  30.5502148  42.0583229  21.9532013  14.1442766
  42.7519684  22.6094494  14.2107859  41.5665207  22.0409279  14.9607744
   4.6349206  32.7517624   4.9090633   4.5893722  32.0029106   5.5035210
   3.8486264  33.2612610   5.1049800  33.8009148   4.8993897  15.0162573
  33.1267471   4.2224360  14.9574156  34.5115929   4.5785580  14.4610682
  58.7156296  11.0976076  24.1893349  58.4871292  10.2682285  23.7696304
  58.0745850  11.1942644  24.8935738  81.0178146   3.9227011  51.1605072
  81.4704132   3.6757543  51.9669838  80.3210068   4.5126791  51.4479446
   4.9537907  52.7268906  69.4548187   5.5595679  53.2825775  68.9644318
   4.5611029  53.3131676  70.1015854  26.7634029  43.6814995  65.9829483
  25.8842812  43.6471596  65.6058655  27.3337612  43.3448143  65.2918854
  18.4110298  49.8009453  59.5916824  19.1329803  49.7088356  58.9699631
  18.7142754  50.4613152  60.2147293  19.1349831  27.3201694  80.9029007
  19.0418587  26.6212158  80.2555771  18.2362785  27.5784607  81.1074600
  18.4136047  25.6032619  10.3572741  17.8654404  24.8186874  10.3710766
  17.9496078  26.2094975   9.7798529  70.6979294  51.3013954   3.4109790
  71.2563858  51.2292862   4.1850333  71.2325821  51.7741356   2.7730992
  35.7383842  60.6014175   2.5203357  34.9409103  60.1143913   2.7278795
  36.4504242  60.0071983   2.7572551  33.3453331  46.9160652  19.6473446
  34.2817001  47.1104202  19.6064377  33.0847740  46.7994919  18.7336979
  45.2614517  39.3198853  10.1648493  44.6857185  38.9365273  10.8265133
  44.9737587  40.2301865  10.0954466  23.0986214  57.2128792  32.8276825
  22.2396812  57.3499069  33.2272797  23.4818840  56.4906731  33.3254395
   2.3731978  54.0653229  45.0648117   2.4326830  54.5934830  44.2687340
   1.5246636  54.2964249  45.4427223  26.4995213  36.9542618  12.2864571
  27.4470882  36.8368645  12.2188826  26.3519840  37.1889305  13.2026424
  80.9345703   0.2312749  67.0202255  81.1315536   1.1273559  67.2931137
  81.7444305  -0.0793192  66.6154022  73.1914673  56.1372986  83.5639343
  72.9794006  55.4141312  84.1540985  73.5926666  55.7162514  82.8036804
   4.9232769  39.2942963  56.2652245   4.1924191  38.8824463  55.8042946
   5.2605972  38.6080208  56.8409576  67.9279861  24.5725098  57.1542206
  67.7183228  24.1068287  57.9637985  68.4005966  25.3533516  57.4425812
  13.2323151  67.7950897  71.3649139  13.6918859  68.4757538  70.8732605
  12.3132334  68.0614395  71.3408585  77.4533691  70.8793564  39.3506203
  78.1193314  70.4311981  38.8291969  77.9472046  71.4962006  39.8908577
  44.4340363  14.8015223   4.5198812  43.7636528  14.1856365   4.2240782
  43.9438667  15.5792618   4.7864976  27.1793442  64.5938263  62.8533897
  27.7807236  64.7699661  62.1298218  26.6738834  65.4013138  62.9467010
  28.0081444  61.5655670  67.6903229  28.0543995  61.0658798  66.8752136
  28.5024261  62.3650818  67.5095062  19.5611210  61.5641251  56.7584114
  19.3573704  60.6901283  57.0913544  19.0383434  61.6443901  55.9606056
  69.7126846  47.3181458  40.6475945  69.7339096  47.3952675  39.6937408
  69.0221100  47.9217796  40.9213867  61.4157829   8.2928276   5.5042701
  62.0806961   8.1595278   6.1798120  61.0295868   7.4267197   5.3741117
   9.2568007  22.0287418  17.9007435  10.1897669  21.8220444  17.8452320
   8.8422613  21.2012310  18.1449013  10.3391829  53.6398163  29.1874371
   9.7672939  54.3973999  29.0639877  10.4998178  53.3141403  28.3017941
  83.3983688  60.4860649  14.9741306  82.6017761  60.1862564  14.5361891
  84.0787811  60.4218712  14.3039436  38.1569824  44.1975327  84.4071655
  37.4447708  43.5971260  84.6273956  38.9543190  43.7045593  84.6007309
  74.2120743  62.3219528  50.3736534  74.8695984  61.9042587  49.8173943
  73.3782959  61.9635506  50.0693665  73.6022873   7.2290668  58.7982597
  73.2795181   6.5281224  59.3645897  74.3161774   6.8273301  58.3030815
   3.4838400  24.9748135  86.7885132   3.5964150  24.0946693  86.4294815
   4.2068386  25.4796562  86.4161682  37.2606201  69.5801773  27.4356995
  36.4311104  69.1690369  27.6788254  37.7982330  69.5200958  28.2253780
  52.7796860  65.1168137   5.5748138  52.1610489  65.8449707   5.5173225
  52.3492737  64.3995514   5.1095114  41.2189903  24.7628536  84.9549484
  40.8338089  25.0347481  85.7879791  40.9541321  23.8483925  84.8557358
  27.8219948  58.0687904  77.9201508  28.5460911  57.5520401  77.5667648
  27.8440571  57.8992882  78.8619690  81.5469208  67.9942017   4.8642087
  81.8043671  67.0727921   4.8332386  82.1515045  68.4320831   4.2650638
  55.4080734  38.4671440  44.9732399  54.7748604  39.1658783  44.8087807
  55.5409012  38.0581284  44.1180840  32.2253151  24.6603432   0.4362489
  32.2324409  23.7056541   0.3673414  31.9851151  24.8329849   1.3465950
  28.7488632  63.9984779  74.6164398  27.8130989  64.0218735  74.4163666
  29.1748009  63.9289093  73.7620621  24.6986313  60.6615143  70.9410934
  25.1262589  60.8051834  70.0968628  23.8284340  60.3324738  70.7158813
  74.1028595  66.9695053  43.7075157  73.9817734  66.8520355  42.7652969
  74.9069214  66.4901123  43.9072723  11.7004347  34.0877457  62.8415337
  11.3853827  33.6048012  62.0775032  10.9110546  34.4684639  63.2264519
  59.1741753  61.5962944   5.2588654  59.5035400  61.2361069   6.0822830
  58.2310028  61.6844749   5.3962770  58.5695801  59.2902222  15.0210562
  59.0353432  58.8334732  15.7215376  57.7835808  59.6374550  15.4428034
  81.2444000  56.1381454  80.8848801  81.5050659  57.0348511  81.0951157
  81.9104385  55.8333397  80.2686615  28.3720207  39.1656723  75.3779755
  27.7461243  39.0553436  74.6622162  29.1613007  38.7151031  75.0775452
  60.1628189  58.8711739  17.6247597  60.7775764  59.3411217  18.1881886
  59.4740486  58.5724373  18.2185459  10.6897097  20.7139606  70.1511154
  10.2816725  19.9429379  70.5451508   9.9739056  21.3426247  70.0581741
  44.9402084   9.8741579  73.6660309  44.4649353  10.0591240  72.8560104
  44.8457947   8.9295654  73.7887650  74.5370865  32.9007072  20.8568020
  74.9941788  33.4813995  21.4651546  74.2131500  32.1862564  21.4053078
  16.0446262  57.4102173  65.4304123  16.8333397  57.9361534  65.2979126
  16.3272228  56.5099640  65.2694473  13.3101835  63.4774933   2.0626328
  13.4654579  62.5608788   1.8347356  13.7274828  63.9734306   1.3582596
  39.3240891  58.0159760  55.7549553  39.3367996  58.8830681  56.1602020
  38.4863129  57.9795723  55.2933960  43.7557220  47.4376602  54.5855179
  43.8303909  48.0155945  53.8261452  42.9826050  46.9030838  54.4045563
   5.1763897  15.4911175   1.0676125   6.0189738  15.1709719   0.7454463
   4.8008332  15.9653263   0.3257806  47.5743561  14.1493568  19.1824799
  46.8620300  13.5100994  19.1692638  47.1514359  14.9834709  18.9784622
   0.5162547  45.7252808  64.0333710  -0.4099123  45.6225891  64.2522354
   0.5447942  45.6652832  63.0784836  45.6300926  12.9096470   5.9182534
  46.5220566  13.2090912   6.0942335  45.2083588  13.6532860   5.4877048
  15.7934771  64.1821899  62.8597183  15.9953966  64.7244110  63.6222534
  14.9926291  63.7171440  63.1018105  84.5900192  40.1764793  21.6914349
  83.6604614  40.3776932  21.7995014  84.6058578  39.4358177  21.0853024
  52.6345100  43.5691986  86.2881241  52.5526047  43.4342346  87.2322159
  53.1593475  44.3653183  86.2046280  64.4416199  68.6595993  53.1508446
  65.2093277  69.2291870  53.2000961  64.0720062  68.8301849  52.2845192
  46.3739357  48.7929039  56.1311607  46.5935135  47.9144783  55.8206940
  46.6043854  49.3690796  55.4023666  51.3681870  50.0296631  68.5093002
  50.4257202  50.0799675  68.3497620  51.4530411  50.0812531  69.4613342
  26.7113285   2.0480094  72.5154495  26.3810978   2.3300183  73.3684692
  26.0804462   2.3984149  71.8866043  13.3005438   7.3287220  70.4763565
  13.6736441   6.7915373  69.7774582  14.0235929   7.8878493  70.7606277
   4.2728033  51.3327065   0.2619703   4.2306108  51.1374893  -0.6741605
   3.5381844  50.8498535   0.6406768  45.9535027  34.4457779  55.5827866
  45.4829903  35.1601830  55.1532822  45.6732559  33.6590767  55.1150284
   8.5975676  29.4050159  64.1828613   8.7928953  29.7546883  65.0522385
   9.3744955  28.8972301  63.9488335  81.9433289  45.9522476  51.7030716
  81.7187347  45.3294601  52.3943901  82.8977814  46.0155373  51.7385368
  31.4608002   0.7135776  76.2514191  31.1651440  -0.1931904  76.3326035
  32.3717728   0.6438239  75.9659424  26.9906483  60.1578369  75.4617310
  27.5614986  60.4117622  74.7365570  27.0869827  59.2073326  75.5208893
  56.0410156  59.3369102  -0.1034572  56.0283470  59.3752174   0.8528921
  56.9618988  59.1993866  -0.3254771  76.3118134  68.4681091  17.3617058
  76.7646713  68.7243347  16.5582733  76.2871017  69.2672653  17.8879871
  20.3793926  33.0505066  70.4101028  19.6267433  33.4104500  69.9408569
  20.1774578  32.1200790  70.5088730  41.0238228  47.4238739  85.2599945
  41.5578194  47.7660561  85.9769211  40.2490883  47.0618439  85.6900558
  64.3940201  58.9671936  79.3487625  65.0594635  58.3061104  79.1579971
  64.0308990  59.1954079  78.4930191   8.0254240  41.8762665  25.5770588
   7.1175318  41.8495445  25.8791351   8.3257904  42.7576447  25.7988319
  46.0441475  71.6516190  71.1119766  45.9532204  72.0019913  71.9980850
  46.3899345  70.7680130  71.2381134  69.7922440  31.1005707  38.1349716
  70.1956787  31.0497437  39.0015106  68.8717194  30.8862381  38.2863960
  10.6650343  62.7403412  13.3374186  11.3588343  62.1655807  13.0141191
  10.9280443  63.6160278  13.0541706  17.1200695  59.3195152  42.4174347
  17.7148800  58.7519722  41.9272003  17.3576241  59.1805382  43.3342133
  17.7497883  68.0746689  15.7768602  17.1797276  68.4614334  16.4414482
  18.5294209  68.6300049  15.7774515  48.9012184  67.2510529  73.2856903
  49.1147232  68.0581970  73.7538376  48.4806557  66.6969147  73.9431763
  29.2141190  34.8403473   8.9378996  29.8176842  35.5552750   8.7358570
  28.9457035  34.5045815   8.0826540  71.5750122  64.1300812  27.9428692
  71.8236465  64.9106903  28.4379082  72.1442642  64.1430283  27.1734390
  27.4575500  40.9954262  73.2400284  28.0030212  40.2635345  72.9518814
  26.7584858  40.5867233  73.7504196  84.0700684  14.9336863  83.5013809
  84.0798035  15.0400057  84.4526062  84.8498077  14.4122753  83.3106689
  69.8349915  64.2866898  39.0285187  69.4874191  65.0985565  38.6593285
  70.4979172  64.0020447  38.3994484  71.7634354   9.9466143  68.3187027
  72.6677246  10.1733360  68.1017075  71.6531525   9.0561581  67.9852982
  22.8143024  32.2383537  18.4383507  22.9839878  32.4925842  19.3454380
  22.5989323  33.0593262  17.9958000  71.0437088   3.4002829  10.0669937
  70.9748764   3.8145843  10.9271383  70.1675720   3.4830518   9.6904764
  77.9087601  50.5776100  62.8906517  77.5387115  50.4472198  63.7637444
  78.3281326  51.4369507  62.9341507  70.8987122  51.9423866  29.3032475
  71.3161392  51.2172852  29.7682381  69.9633179  51.8275070  29.4707756
   5.3159285   6.5823565  85.1170807   4.9249706   6.9829168  85.8935699
   4.6258292   6.0207739  84.7640686   6.1764474  66.8119812   5.4020114
   7.0686398  66.7102585   5.0705338   6.1091495  66.1705856   6.1093359
  85.7474518  13.6566601  30.9995708  86.1359711  14.0855017  31.7620544
  86.0158310  14.1983938  30.2574596  32.2175598  30.9560776  63.3425217
  32.5039711  31.8694019  63.3488655  32.9970932  30.4588814  63.5902176
  81.0401840  43.4468231  81.4615326  81.2139664  44.1909981  82.0379333
  81.2611313  42.6789360  81.9885712  23.0839863  68.7009048   2.7764647
  23.5997334  68.5611191   1.9822987  22.1949196  68.8604202   2.4596922
  66.9458542  23.5235653  32.5472412  66.2014084  22.9298935  32.4492683
  67.5498581  23.0570049  33.1249352  64.2340851  48.4025307  86.5430603
  64.7872543  49.0157051  86.0590668  63.6708488  48.0101738  85.8759308
  86.4458389  13.5088978  21.9972115  85.9049225  14.2485914  21.7206421
  85.8166809  12.8288183  22.2377911  56.3176117  59.9814568  50.4830971
  56.3800201  59.0277328  50.5355759  57.0338211  60.2367096  49.9016113
  52.5054626  37.3073120  63.4763908  52.3876152  37.7159729  64.3339157
  53.0959816  36.5720863  63.6405716   7.8643246  48.3817558  24.7793694
   8.7528391  48.4620132  24.4324799   7.9866776  48.1529236  25.7007256
  46.2365685  71.0157623  18.2853031  45.9086227  71.6481171  18.9246902
  45.6117554  70.2915649  18.3225021  35.1047592  19.7175732  85.8439102
  34.1562195  19.6658592  85.9615250  35.2576256  19.3587494  84.9697723
  40.1807976  43.7926674  30.0214577  39.7346573  43.8424110  29.1760502
  39.4735451  43.7082367  30.6609097  40.6984329  43.4782753  13.6745119
  39.8485031  43.8218956  13.3992338  41.0069695  42.9721413  12.9229374
  54.1760864  28.7985535  45.3619957  54.9907417  29.2275505  45.1002159
  54.1376534  28.9163074  46.3111496  52.2408485  20.3433914  50.4931145
  52.1166725  20.7752666  49.6479568  51.8255920  19.4873905  50.3879738
  84.9217148   0.7512035  79.9608307  84.9306793  -0.1777366  80.1915283
  85.3723984   0.7928892  79.1174011  24.2935410  26.2271118  13.7073364
  23.5096302  26.4219799  13.1937780  24.6735554  25.4584026  13.2820044
  57.4503136  69.0976105  40.1197662  57.8856125  69.7345505  39.5531464
  57.6377907  69.4000397  41.0083694  53.0215492   5.6841927  79.4611053
  52.6534500   6.3935509  78.9342804  53.9522896   5.6780462  79.2376785
  44.0125008   5.3621750   6.8425922  44.0887375   6.3159356   6.8701634
  43.6952591   5.1726837   5.9595962  54.5256729  36.5431938  66.0792770
  54.1147957  36.2681046  66.8988724  54.6690025  37.4834518  66.1869965
  11.0764484   1.3183043   9.6303301  10.3321218   0.8020320   9.9396400
  11.5367785   0.7363911   9.0255938   5.2922778  22.1451836  64.3248901
   5.1500640  22.6728878  63.5390549   6.0807128  22.5149307  64.7222366
  63.7652130  18.2826557  66.3666000  64.3647614  17.5365524  66.3767014
  64.0703812  18.8447990  67.0787125  63.5477219   4.6107821  51.4255142
  64.4143448   4.6654229  51.0227623  63.2876740   3.6967068  51.3111763
  37.3028946  24.3151264  74.7040939  37.4255219  24.6010799  73.7988739
  37.9241867  24.8410892  75.2076721  77.0829315  31.2424316  20.7052898
  76.9518051  31.9282169  21.3600693  76.2039490  31.0540066  20.3764782
   2.8147342  71.6272354  64.6224594   3.2473330  71.0616302  65.2621307
   3.2237468  71.4007721  63.7872009   1.6562190  52.2842407  85.2279816
   2.2966745  52.7958450  84.7337036   1.2308336  52.9222031  85.8009415
  12.8312464  58.2419167  68.1276550  12.4816780  57.9492149  68.9692917
  13.3853254  58.9912834  68.3460007  62.9486351  30.4864769  52.3339157
  63.7458916  30.4139957  52.8586655  62.8514366  31.4252682  52.1743698
  24.0144444  51.0037766  29.3813057  24.4191761  50.1993446  29.7058201
  24.7526779  51.5586929  29.1296921  76.7164154  58.6044159  10.8482456
  76.6938095  59.5370712  10.6340723  77.1068573  58.1912193  10.0781422
  17.5897846  16.0986996  16.3099747  17.9833584  16.7162552  16.9263802
  16.6555882  16.1152916  16.5179024  83.3006363  70.6056213  56.1891937
  82.8963013  71.1165314  55.4879646  83.7730103  71.2515717  56.7143974
  12.9622526  63.1722527  55.0588074  12.2069225  62.7041931  55.4146576
  13.7197037  62.6780548  55.3722878  40.9113808  50.9812241  31.1065102
  39.9995880  50.6899223  31.1095772  40.8958817  51.8215904  31.5645256
  71.7863617  61.5498199  65.6874008  71.8043137  62.2865295  66.2982788
  71.0590591  61.7460403  65.0968399  65.4589996   0.6758280  57.7854385
  64.8686905   0.1336316  57.2621918  66.3354263   0.3702474  57.5514832
  10.7965212  30.0205231   8.8995152  11.4755964  30.0949917   9.5699949
   9.9997606  30.3302937   9.3301487   4.2954388  12.7135401  51.3077431
   3.9769423  12.1224928  51.9899826   5.2422891  12.7482185  51.4437714
  69.5525665  17.6715584  27.5027370  69.9393921  16.8607502  27.8331795
  69.6062851  17.5918102  26.5503788   6.4619975  50.9871941   1.6343402
   5.7578807  51.2474632   1.0404456   7.0630398  50.4823380   1.0865277
  84.7942886  60.2063866   2.7866228  84.2945938  59.4139900   2.9831977
  84.9076157  60.6347351   3.6350963  33.9485054  44.6624947  26.8578625
  33.1309853  44.9600983  26.4587097  34.4194450  45.4686966  27.0687790
  82.5767136  58.4422836  16.7931499  83.0827789  59.1101227  16.3304253
  82.4142838  57.7662430  16.1352577   1.5557985   6.9300241   2.5402689
   2.2425084   7.3223515   3.0794725   1.3304898   6.1174555   2.9932592
  86.1029358  46.3246689  86.9305115  86.2793274  45.5133743  86.4541473
  85.7986679  46.9353180  86.2591248  28.8908901  51.3964615  41.8283043
  28.5920620  50.6982269  41.2457237  29.8391247  51.4253387  41.7008400
  86.3055801  37.1609802  14.1091471  85.3994751  37.4632988  14.1707726
  86.2465973  36.2091255  14.1911459  14.9785366   4.9357042  28.6544762
  14.7837801   4.1984906  28.0758400  15.4405565   4.5432148  29.3952332
  48.5024147  50.4085617  54.4618530  48.4254532  50.9989204  53.7123337
  49.3362427  49.9581451  54.3273430   9.8637857  17.4045086  72.1934509
  10.2014751  16.5129452  72.2789612  10.6280375  17.9642754  72.3306122
  51.3961029  47.6797371  88.0234070  51.5045853  47.4371986  88.9429932
  51.1677017  48.6090088  88.0461349  44.1689453   0.3935048  24.5506382
  44.6924438   1.1842144  24.4204082  44.7920341  -0.3258519  24.4480858
  23.2346535  13.6471186  34.7967033  23.2019501  12.7032242  34.9523544
  22.3306732  13.8879089  34.5940475  10.3584719  39.4900093  36.6283073
  11.0674763  39.0715866  37.1166420  10.5454350  39.2854462  35.7121048
  42.2680664  40.0354729  79.7182541  42.1665306  40.8683739  79.2575989
  42.6955299  40.2681808  80.5424805  27.2187366   2.6252065  67.4385605
  27.7127304   2.5530255  66.6218643  27.5651627   3.4121149  67.8592682
  69.1507721  20.6555595  21.7248726  69.9391174  20.8443661  21.2158585
  68.6500931  21.4710636  21.7023277  28.5246372  67.6689529  47.7852554
  29.2314262  67.8767624  47.1741104  27.7570992  68.1118088  47.4233131
  74.2390823  26.2428131  59.0161896  74.7474976  26.7236996  59.6692581
  74.4668808  26.6561604  58.1834335  58.7454300  46.1453247  69.8633041
  59.5442085  45.7207298  70.1761932  59.0240669  47.0269356  69.6156006
  22.7907085  57.3106270  64.8147278  23.4911633  57.8824463  65.1287613
  21.9887733  57.7015305  65.1616058   5.3422079  38.6950378  47.4486809
   4.7958713  38.6979294  48.2346458   4.8514676  39.2170715  46.8139458
  44.4036674  12.9457903  60.2104263  44.6202431  13.1034565  61.1293755
  44.5429001  13.7909298  59.7831306  36.9597435  66.3640518  81.2606201
  37.5060539  66.1712570  82.0225906  37.5446892  66.2502136  80.5115433
  36.3666878  40.2804489  14.3151646  36.4707336  39.5078049  14.8705273
  35.5259399  40.1489334  13.8768950   2.8608744  32.4793701  11.0806322
   3.2699382  32.6289597  10.2282705   1.9237341  32.4319992  10.8915396
   3.1515281  42.9666405  21.4808102   2.4530771  42.7526703  22.0993690
   3.5208478  42.1187782  21.2339020  83.8017197  55.9533234   1.1063377
  84.1800385  55.5083580   0.3479777  83.7709198  55.2815056   1.7874726
  71.1726761   2.1443284  78.3593979  70.8345795   1.4291642  78.8983459
  71.9699860   2.4259987  78.8079453  18.3407612  41.3372917  41.6821594
  18.2425518  40.3900604  41.5854912  19.1349888  41.4435425  42.2057457
  12.9388533  47.5315018  57.8314972  13.4222517  46.7588654  57.5389404
  12.8794823  48.0857315  57.0533333  36.7144928  -0.2474164  43.0025330
  36.7455063  -0.2770849  43.9587708  36.2016563   0.5359764  42.8037186
  76.7928009  61.1850624  49.8836784  76.4420395  60.5330734  50.4904022
  77.6894684  60.8962898  49.7138824  81.2850342  31.5703907  38.6998787
  80.4737473  31.3455391  38.2443695  81.3410416  30.9375401  39.4158363
  23.8233356  47.3854027  47.1067352  24.0562038  47.1063614  46.2212181
  24.6275558  47.2712021  47.6131134  36.5883522  36.4589500  22.4522610
  36.9845734  35.7147827  21.9989834  36.2352142  37.0062447  21.7508411
  28.7463245  46.9475632  65.4211502  29.3851032  46.9190750  66.1334610
  28.6570282  46.0360527  65.1429214  59.4863739  60.7264404   7.6358857
  59.0936432  61.1349411   8.4073267  59.2161674  59.8095779   7.6866484
  61.7000580  27.1604328  63.5155334  62.0386124  26.6146755  62.8057709
  61.0935555  27.7633877  63.0856133  23.1205425  30.1572247  71.6873550
  22.7664814  30.6587620  72.4217453  22.7883148  29.2695656  71.8212128
  53.9979668  35.3915367  82.8346634  54.8924370  35.2128868  82.5444260
  53.6199455  35.9218216  82.1331406  74.0588150  30.7627201  69.1026382
  74.0796814  31.7032013  68.9257431  73.6212845  30.3851357  68.3396072
  79.7262115  51.2991409  19.8528957  80.0844345  50.8111801  19.1114120
  80.4515915  51.3564796  20.4748020  57.5177460  41.5473518  69.4157639
  56.8112984  41.4511337  70.0544434  57.1534309  41.2001801  68.6015320
  40.3870049  24.9871464  78.2017746  40.9011574  25.2311287  78.9714127
  40.7586136  24.1509991  77.9207077  71.6762314  10.4463625  72.3600998
  71.6706390  10.4245033  73.3170395  71.2781754   9.6158628  72.0992279
  60.9425545  37.4120827  22.9244003  61.2318230  38.3150444  23.0556240
  60.0226364  37.4144440  23.1889324  42.7514076  70.8956375  39.3319626
  43.3865891  70.5568314  39.9628258  43.2389412  70.9567337  38.5104942
  21.3103600   1.8288280  73.0485382  21.3750744   2.7446458  73.3193207
  20.5039349   1.7874531  72.5345383  77.4262314   0.3583583  80.2977829
  78.0631332   0.5994767  80.9704208  77.9476395  -0.0620070  79.6139221
  65.8588562  42.1433372  10.8250074  66.7378922  42.4631004  10.6218557
  65.4888992  42.8106194  11.4030237   7.1449299  31.3151798  22.7413120
   7.8745608  31.7111454  23.2178440   6.3806286  31.4800014  23.2934971
  63.7710648  11.6695461  16.2556000  64.5688477  11.1523333  16.3663654
  63.2323074  11.4442215  17.0140228  25.8485527   7.5723343   8.5354080
  26.6517830   7.4683638   8.0252676  26.0213261   7.1042171   9.3522596
  74.3549194  40.9959641  20.7988739  73.7758331  40.8651352  20.0480232
  74.0287094  40.3874207  21.4618206  80.4215851  22.5870800  16.2436047
  79.8410721  21.9894733  15.7723255  80.9039230  23.0450325  15.5552301
   0.3749702   4.7433457  20.5162926  -0.1526464   4.3274527  19.8344669
  -0.0615156   5.5792747  20.6804123  23.8514862  47.0432587  57.7958069
  24.6129780  47.5550308  58.0686684  23.6619797  46.4779930  58.5446663
  22.8929958  69.4155960  70.1668701  23.7256374  69.3632355  70.6361237
  23.0057144  70.1471329  69.5599213   8.5892305  50.6889343  37.1295052
   9.0692692  51.4651947  36.8410339   7.8674359  51.0350037  37.6543694
  43.1280441  51.4173698  25.4197750  42.6954117  52.2146873  25.7252941
  44.0562973  51.5637436  25.6018429  67.9489059   0.9679607  66.9583359
  67.6906967   0.6764615  66.0839310  67.8828354   1.9221832  66.9219360
   8.4922800  27.4195442  32.0062866   8.2212305  28.1816673  32.5180817
   7.7050753  27.1603737  31.5273590  57.4003334  39.4765091  19.0021610
  57.4668694  38.5250816  18.9209766  56.5176163  39.6268768  19.3404427
  22.8015461  34.5911674  71.0274429  22.7250710  34.8325768  70.1043472
  22.1278954  33.9236069  71.1570358  79.4530563   7.4724274  26.5726166
  79.7379379   6.6441998  26.9587650  79.4165649   8.0808086  27.3107033
  84.7909241   6.2428236  48.1676025  85.1652679   6.9966860  48.6234436
  85.5501862   5.7423277  47.8688545  69.0926208  17.3589153  58.4707146
  69.0727463  17.8620739  59.2847595  68.1716843  17.1935673  58.2687988
  24.4986000  37.1728973   4.4135828  24.2224388  36.4774590   5.0105214
  24.5301666  37.9585686   4.9594355  17.1323471   0.2714906  30.1117973
  17.0165844   0.8421673  29.3520889  16.4360905   0.5315171  30.7149925
  35.7562675  61.4562454  63.0914001  34.9675713  61.7807045  63.5260429
  35.5444565  60.5536308  62.8533821  16.9325066   5.1355147  61.0342903
  17.0006504   6.0460763  60.7471237  17.8299084   4.8046508  60.9964790
  56.7900848  60.2384682  29.5796413  57.5405121  59.8176727  29.1600876
  57.1747017  60.7897682  30.2610874  39.8801422   0.8782417  69.5143738
  39.9878693   1.8276063  69.5721130  40.3420410   0.5377496  70.2805023
  66.9399948  45.7802162  17.9474335  67.1790161  46.6581039  17.6500893
  67.1908340  45.7635956  18.8710327  83.1360168  64.9429016  62.8026314
  84.0435715  64.6448517  62.7414436  83.0101242  65.1381149  63.7312164
  57.9361382  46.8727264   9.5057602  58.2566719  47.0032234   8.6133137
  57.0980263  46.4235649   9.3959532  56.5184097  47.9641533  48.6546326
  57.1091805  47.9685249  49.4077606  57.0956230  47.8610802  47.8980408
  71.1662064  35.6275177  70.9782715  71.3453522  36.3681297  71.5576096
  71.6030807  34.8853951  71.3961563  12.0312147  47.1415672  34.1515579
  11.7464142  48.0335655  34.3502045  12.1721878  47.1403999  33.2047997
  25.0390720  56.6674118  80.0343704  25.9018345  56.9888840  80.2961426
  24.8279629  57.1644096  79.2440186  34.7721100  66.0118790  31.0884266
  35.4800835  65.9301682  31.7274342  34.5905075  65.1124573  30.8158493
  72.6466522  35.1270523  59.1992912  73.5284424  34.8036232  59.3838654
  72.4766693  35.7669563  59.8905678  23.3341255  71.2209473  68.0767212
  24.1771030  71.6034927  68.3201904  22.9669113  71.8353348  67.4411774
  67.6655197  15.5946321  74.3268661  67.8009262  14.7456503  74.7477341
  66.8012848  15.8757896  74.6273499   8.9838219  33.0197258  66.8008347
   9.4962130  32.4993057  67.4195862   9.3170567  32.7652779  65.9403458
  31.3260384   3.4148088   5.3660207  30.4597149   3.0115073   5.3106589
  31.8803864   2.8690476   4.8082800  51.5654297  41.1681900  28.6096935
  50.9081154  40.7669792  29.1782017  52.0058289  40.4275284  28.1929188
  14.7182789  36.0036545  21.4428501  14.2356958  35.2119560  21.2050323
  15.5769539  35.6859474  21.7220840  86.7537918  34.3717651  31.8158131
  87.2439651  33.8282623  32.4327126  85.9516525  34.6021805  32.2845497
  81.6335754  46.0850067  57.9928589  82.4807053  45.7901344  57.6587143
  81.3263855  45.3612785  58.5388336  47.1185989  54.9487991  40.8178291
  47.3912659  54.0607872  40.5869217  46.4219284  54.8254128  41.4625397
  34.6298027  69.9094009  71.7885284  33.9016228  70.5194626  71.9060516
  35.4119987  70.4348145  71.9568710   7.4280915  24.2382107   9.3977594
   6.6802058  24.7915955   9.1726713   7.3813519  24.1478901  10.3495417
  53.0140495  52.3493042  63.5959167  52.8719940  52.0196800  62.7085609
  53.9653053  52.4196472  63.6758652  57.5577316   1.2791492  82.8397675
  57.5976143   0.3322920  82.7052231  58.3848495   1.4949044  83.2705307
   5.4895344  62.6365242   5.0578251   4.7077794  63.0295219   5.4459524
   6.1519685  62.6905861   5.7466574  65.2848740  15.1126556  82.5753937
  65.1535416  14.8361063  81.6684723  65.9973297  15.7503309  82.5305634
  85.0755844  41.5713692  17.5840511  85.5669479  40.7640419  17.4323521
  84.6220398  41.4233780  18.4138889  78.3692093  13.9999352  27.7799702
  78.2015457  13.1005287  28.0613766  78.9375153  14.3616590  28.4599781
  13.8322849  11.7112446  70.6749496  13.3326721  12.4970255  70.8966827
  13.3519144  10.9962568  71.0924072  58.0244942  57.7625275  68.1410980
  57.4740982  58.5353127  68.0141983  57.7061806  57.3728638  68.9553909
  12.3813171  70.1450729  19.1631546  12.7905674  69.5237961  19.7654495
  12.7523985  69.9291534  18.3076382  47.9781113  23.3135090  86.9677658
  47.8943863  23.8943958  87.7239380  48.6835861  22.7116470  87.2050400
  47.7555161  61.7618942  65.7964859  47.6180305  62.7077484  65.8483353
  47.5743484  61.4446754  66.6812363  27.5588570  66.8711166  13.4411774
  26.7845726  67.1384735  13.9363890  27.5722847  65.9168167  13.5144396
  39.0171471   6.3822522   7.4839425  38.9493332   6.9812207   8.2274952
  38.4972153   6.7959652   6.7949252  73.4288788  19.0549335  12.4800625
  72.4920120  19.1729870  12.6368313  73.8398132  19.8062592  12.9076958
  15.3649120  56.3485413  49.7291374  14.6547327  56.4703102  49.0990181
  15.5105505  57.2200432  50.0972443   3.8904366  43.3659935  60.3314133
   3.9068727  42.4242783  60.1607208   2.9965453  43.5404549  60.6259499
  53.6293335  21.5103302  69.5898132  52.8902817  21.5662899  68.9840927
  54.2954292  21.0179615  69.1101074  84.0813599  36.3325729  60.2368126
  84.4669876  35.9178276  59.4651184  83.2689514  35.8493729  60.3876228
  42.0406914  26.7077827  76.0642395  42.6112022  26.6589355  76.8312912
  41.5156250  27.4954548  76.2060471   8.2570744  39.0428047  58.0208206
   8.1765165  39.6697693  57.3020325   8.8614464  38.3774834  57.6917114
  17.1606216   9.9708033  13.7001457  18.1013298   9.9170818  13.8687038
  16.8781548   9.0592470  13.6259155  15.3644266  47.3707199  62.2247543
  15.8912745  48.0749168  61.8469048  15.1392059  46.8137970  61.4795380
  67.6150131  19.3334885  68.9729080  68.5431747  19.1322727  68.8534775
  67.2313156  19.2189941  68.1034851  54.4533348  64.8890991  28.3514748
  54.5027199  63.9523621  28.1609135  54.2998505  64.9337616  29.2952347
  50.5175095  22.3101692   7.9816885  50.0983353  21.7571926   7.3223400
  50.5089989  21.7805576   8.7789783  71.4105301  32.1461945  65.9650574
  71.6637802  32.5278091  66.8055725  71.7364197  32.7661629  65.3126221
   3.5860615  17.0997925  81.5520554   4.3325734  17.0935555  82.1511536
   3.7372987  16.3526497  80.9731445  58.4966431  58.1095200  53.7319107
  59.2508698  58.3674049  54.2618828  57.7372932  58.3603897  54.2579193
  18.6856689   4.6616526  88.7786636  18.8668346   4.7613616  87.8440704
  18.7055759   5.5545187  89.1230850  19.4064922  62.8556671  44.8244896
  19.4378567  63.7935219  45.0133820  19.7223701  62.4391518  45.6263390
  61.7827072  15.2531776   1.7029940  60.8679199  14.9812889   1.6290114
  62.2497749  14.6937847   1.0823823  51.5845108  19.8817444  61.6705894
  52.2636223  19.3420925  62.0753365  51.0027390  19.2535210  61.2426796
  79.6603241  42.6141663  28.9974804  80.0749969  43.1843948  28.3500900
  80.3908081  42.2408600  29.4906998  16.3965416  61.1117706  80.0303650
  16.4827557  60.3335342  80.5809555  16.7897568  61.8152809  80.5467834
  76.3326263  35.5391197  60.5506439  76.0930862  35.2016487  59.6875267
  76.1537552  34.8140526  61.1494026   9.3493052  57.8842621  29.5336418
   9.7642651  58.7467499  29.5213680   8.7323942  57.9256554  30.2643528
  83.3192673  67.5866928  24.6799088  83.9031677  67.9088898  23.9932690
  83.5262451  66.6549683  24.7526073   7.6398668  67.2540054  40.1559792
   8.2026215  68.0104980  40.3210754   6.8578367  67.6223984  39.7449532
  80.5595474  39.8621941  23.4993362  79.6547394  40.1446228  23.6327343
  80.4997864  38.9139862  23.3828869  27.4270668  40.8632698  11.2982197
  27.3741531  41.1187134  10.3772526  26.8062344  41.4403877  11.7428942
  72.6608963  25.8609200  51.6330490  71.9099197  25.4824944  51.1758156
  72.3698120  25.9476299  52.5407829  39.3353691   7.6066375   1.4777004
  38.7481575   8.2596550   1.8584685  40.1320305   7.6643734   2.0051730
  60.0725632  51.7982254  38.5382156  60.5142784  51.4994202  39.3330994
  59.5816956  52.5724602  38.8136139   2.2459173  28.5840797  68.9902344
   2.6097183  29.1188011  68.2845764   1.3743786  28.3385849  68.6797714
  85.8124924  43.5304985  64.9388580  86.1090698  42.8039207  65.4869003
  85.8259354  43.1798058  64.0483170  69.0091324  31.3723145  52.0100136
  69.2890854  31.1728134  51.1166763  68.3314438  32.0401306  51.9051361
  72.7097702  34.3159752  23.7747421  72.9671860  33.3988380  23.6807938
  72.3942337  34.3850861  24.6757946  78.4429550   8.7127380  40.5002136
  77.8940201   8.3029451  41.1687775  77.8240891   9.1620674  39.9245872
  51.3942146  10.9055471   9.6263361  51.0791092  11.6932020  10.0696650
  51.4203568  11.1461849   8.7002468  79.2272720  34.1765556  48.5130463
  80.0986786  34.5720291  48.5351601  79.2098923  33.5927353  49.2713890
  26.4283600  63.5272980  54.6099701  26.2091446  62.6469040  54.9150581
  27.3515682  63.4723167  54.3631973   7.1450915  57.2280693  67.1395874
   7.6730452  57.4397507  66.3697281   7.6090384  57.6396179  67.8687057
   8.7923260  67.9133911  43.3816299   8.9705334  67.0516739  43.0049133
   8.0069847  67.7845230  43.9134789  28.7203407   1.0491360  26.8917103
  28.2172794   1.8164227  27.1645336  29.2901783   0.8589721  27.6369324
  35.7079926  58.3435860  76.1677933  35.6153145  58.5646286  77.0944977
  34.9686317  57.7638779  75.9847336  72.6500626   2.9752262  69.8066177
  73.3615494   2.6871362  69.2347565  71.8592453   2.6154447  69.4048767
  32.4814034  19.8306503  85.7726517  32.0938263  20.2738514  86.5273666
  32.2031021  20.3521004  85.0197449   1.3059481  51.0574379   3.0512536
   1.6420690  50.5284615   2.3277628   0.5710585  51.5405960   2.6734602
  29.1626434  53.6864166  10.0872841  28.5885944  53.0633774   9.6417217
  29.5911636  54.1663742   9.3785954  76.0812988   6.2322955  20.0857830
  76.4797363   5.3619747  20.0811386  76.6602402   6.7578130  20.6379509
  59.4406738  38.6338196  45.8550911  58.9802437  38.7763596  45.0280952
  60.2333908  39.1653976  45.7825890  73.1967926  26.2038059  25.8324394
  73.1169662  27.0410442  26.2894859  72.7240677  25.5825386  26.3863297
  83.9594421  13.6860733  47.4356537  83.8241348  12.8158264  47.8106117
  83.1177292  13.9091158  47.0381546  70.2099228  25.1335773  26.6987228
  69.6021347  25.2979240  25.9777412  70.0109482  24.2408333  26.9809437
  17.6314182   6.9352245   0.7390308  18.1422939   7.7446237   0.7284399
  17.4232140   6.7954783   1.6628022  57.2595444  46.0641823  62.4185143
  57.4650497  45.6388130  63.2510147  58.0363083  45.9204559  61.8779449
  39.8160553   7.6337585  81.9126053  39.3900681   8.1777411  82.5750580
  40.3077583   8.2535372  81.3737717  48.2934265  17.5455647  79.3325958
  48.0391083  18.4676590  79.2965775  47.4640427  17.0700169  79.3795395
  74.9528809   8.7681379  83.4263763  74.4651260   9.5779705  83.5763931
  75.2941742   8.5308714  84.2886200  28.1618729  14.8588896  12.9676619
  28.4623623  14.8154840  13.8754358  28.0285301  13.9451628  12.7155590
  63.2007599  14.2458067  54.1369057  63.5664482  13.3647995  54.0573349
  63.3395576  14.4807787  55.0543785  18.8778782  23.2206821  67.6428223
  19.7629433  22.9548359  67.8922577  18.3654442  23.1309433  68.4463043
  16.3755627  50.9845924  42.7545395  16.4240265  50.8922081  41.8030396
  15.4928169  50.6903687  42.9790916  51.7028770  29.3623123  12.6019773
  50.8455849  29.1274986  12.9571447  51.6780167  29.0575066  11.6949463
  63.5045776   9.8714514  88.1265335  63.3436127   9.1582956  87.5086899
  63.3392601  10.6676712  87.6216202  80.6827469  43.6921310  16.7756176
  80.5469742  42.8351784  16.3713551  80.9550400  44.2574997  16.0528088
  78.1358261  47.9273987  57.9797401  78.6055374  48.7553482  57.8792191
  78.4517136  47.5721550  58.8105545  60.0430222  25.3490143  78.6183701
  59.4545288  26.0104370  78.9822769  60.8943901  25.7842636  78.5740738
  67.6919861  59.5806770   3.8804190  67.7117004  58.6259193   3.9458463
  67.2902832  59.8686829   4.7001281  27.9052734  52.2254372  38.0617447
  27.5413971  52.0308533  38.9254379  27.1715965  52.5950279  37.5704689
   3.6072991  66.7046051  85.9871750   2.7648923  67.1464920  86.0935516
   4.0702682  66.8706970  86.8083344   9.3885479  41.0031281  45.7797623
  10.0366554  41.5164909  46.2620926   9.1037903  41.5811157  45.0718956
  15.9433880  64.4713058  79.3670349  16.7419701  64.1138840  78.9787750
  15.2508869  63.8751335  79.0819931  77.4755325  19.6445713  80.5951309
  77.5106964  19.2521725  81.4674911  78.1450043  20.3284760  80.6129761
  43.1015892  44.1391411  38.2040329  43.3862762  44.3530350  39.0925331
  43.9091034  44.1268425  37.6902199  34.5254936  53.9771690  57.3679123
  34.6836128  53.4455833  58.1480675  34.2196503  53.3524323  56.7103462
  24.8669033  63.4101372  80.6919479  24.7797947  63.9496002  81.4778442
  24.2179108  62.7156868  80.8049927  20.0378838  12.5144253  67.5047913
  19.5734444  11.7360401  67.8124390  20.6128731  12.7532330  68.2318344
  12.3315477  52.9623947  50.8051071  11.7104330  52.3593102  51.2134399
  11.9771957  53.1142845  49.9289780  77.2515411  40.2448311  14.6110344
  76.7474823  39.9690857  13.8454514  77.2811203  39.4687462  15.1705446
  65.2529831  17.9083176  42.8809738  64.9290771  18.6344681  42.3480339
  64.5298309  17.7055702  43.4744148  69.2151566  13.5153179  84.3599091
  68.5281601  13.7517653  84.9830933  69.6394958  14.3458881  84.1446762
  75.6730728   4.8221469  29.2154198  75.5005875   4.3740320  30.0434723
  75.8104248   5.7367549  29.4621181  16.8031616  54.7420845  61.8350639
  17.4332848  54.7432785  61.1145248  15.9537239  54.8625565  61.4105949
  86.9920273  55.1351318  21.7491398  86.8719330  55.4538002  22.6437111
  86.4878845  55.7432671  21.2085476  43.5547523  56.2881584  41.4244537
  43.6900253  56.7535362  42.2498970  44.1702652  55.5558968  41.4586868
   4.6237240  48.7214737  75.7674942   4.0397696  49.3961334  75.4209976
   5.0112185  49.1178398  76.5478668   2.6297152   8.6113930   8.9525194
   3.3208816   8.0986042   8.5335112   1.8288370   8.3506126   8.4977455
  53.3207207  33.9838943  73.4801941  53.8965530  33.6239777  72.8055725
  52.5085945  34.1894836  73.0171356  29.6591835  11.8403559  13.1422663
  30.3291702  11.5570631  13.7644358  29.5099449  11.0756102  12.5862780
  43.2949028  68.5863495  62.1753464  43.1584091  68.6741867  63.1186829
  42.7664909  69.2856979  61.7907333  50.8370018  43.6513138  55.7675095
  50.4211845  44.0441055  56.5349998  51.5293732  44.2675514  55.5285339
  78.9337769  36.5481224  69.3567352  78.7260895  36.8414383  70.2439041
  79.8889771  36.4880638  69.3417892   7.7822418   3.1587574  72.3028412
   8.6592979   3.4559143  72.0605545   7.9327364   2.4767971  72.9574509
  43.9524002  40.8958244  72.2765198  44.1945724  41.6754265  71.7767181
  43.7056427  40.2524605  71.6121292  68.7045975  26.6785774  84.3073959
  69.4090652  26.5645676  84.9453354  68.0026398  27.1045990  84.7993164
  57.8306541   1.7194253  72.8615417  58.6197739   1.6569237  72.3233795
  58.0450287   2.3744104  73.5258179  68.6308975  21.5416489  53.4099884
  69.1720276  22.3293743  53.4638405  69.0676956  20.9952145  52.7566490
  63.3183861  24.2631569  64.5253677  63.2177849  23.3229237  64.3768005
  63.3810387  24.3499889  65.4765549  37.4882317  13.6812267  72.6715546
  37.2266846  13.4886990  71.7711334  37.5355110  12.8244038  73.0956421
  85.5145493  21.4127617  40.7358513  86.3355560  21.3108139  40.2544212
  84.8418732  21.4542313  40.0561256   1.0940132  54.0136757  25.7759228
   1.9901799  54.2050781  25.4993687   0.6721150  54.8711014  25.8311863
  17.0644150  11.1488400  73.1438980  17.9506702  10.8325977  73.3193283
  17.0460281  11.2978458  72.1985474  27.6329098  12.2394848   2.1342356
  26.8965950  12.8510723   2.1402237  27.2346153  11.3835545   2.2922790
  20.7916794  49.5577850  58.0505638  21.3094692  50.2289581  58.4951477
  21.3654327  48.7921143  58.0225677  72.8566055  36.6935234   3.7418909
  72.0162201  36.3933716   3.3956325  72.6243820  37.3508263   4.3978300
  59.0192146  38.9838829  42.5674400  59.7730370  39.5703468  42.5038452
  58.2617950  39.5687866  42.5883141  16.7693768   1.2181981   3.8326123
  16.8138351   0.2875657   4.0521088  16.4329090   1.6355120   4.6256261
  42.6758881  38.7602348  70.8755646  42.5081825  37.9279404  71.3176041
  43.0068436  38.5107498  70.0127411  61.5081024  58.2773514  36.7415161
  62.0126915  58.5119591  37.5203476  62.0060921  58.6479340  36.0128822
  77.9318008  37.7158508  46.9780998  78.0032883  38.6542473  47.1528473
  78.4494400  37.5798874  46.1845055  28.7439556  33.3076744  78.0651169
  28.4574432  32.4238853  78.2954559  29.1910572  33.2032394  77.2252197
  76.5908203  62.8441696  15.9811583  76.5456085  62.8822708  15.0257864
  76.2267609  63.6803970  16.2717056  49.6737938  45.0566177  62.0718193
  49.9202957  45.2318687  62.9799805  48.7195358  45.1311989  62.0639992
  78.2768250  26.8906574  19.9709415  78.1364136  27.2101364  19.0796223
  79.1607590  26.5236359  19.9573555  80.8182678  18.9995880  78.0944977
  81.2712021  19.0401039  77.2522125  81.5140228  18.8447399  78.7333832
  13.3528481  66.6093597   1.5922107  14.1182146  66.0349045   1.6135342
  13.1496506  66.7031784   0.6615440  54.5488777  46.0451012  40.3748245
  54.1634750  46.8066292  40.8081474  55.4795113  46.2567291  40.3015442
  78.7670212   1.5405158  60.0046234  78.8257523   0.9930840  59.2216187
  78.2747498   2.3111424  59.7217216  45.7385216  39.6369781  63.8302917
  45.0597305  39.0003471  63.6062927  46.5436440  39.1215630  63.8788452
  13.1712742  41.3535004  31.0673542  13.1165972  40.4407043  30.7844334
  13.9335423  41.7022400  30.6052265  85.2726898  46.8446198  10.7020292
  86.0528564  46.9323578  11.2496433  84.7627945  47.6341591  10.8833103
  22.8892975  65.5734253  46.5158310  23.6197376  65.8217545  45.9492416
  22.9614697  66.1585236  47.2699432  44.4717407  67.2423859   2.4046679
  43.8787041  66.7131729   2.9380312  44.7415390  66.6586685   1.6956427
  83.3295441  22.6040211  44.2377396  83.6708374  23.0316563  45.0231590
  84.0036392  22.7492523  43.5738564  21.1663113  62.9631310  79.7748871
  21.5979023  63.0573120  78.9257202  21.8302231  62.5654716  80.3382034
  67.7650452  14.5661869  86.5627136  68.1133957  14.8718243  87.4002457
  67.1350479  13.8855143  86.7994080  52.5702362  21.1270695  21.6049156
  52.8690453  20.3824120  22.1268616  52.4501877  21.8324375  22.2407436
  56.3913918  31.7455883  47.9330559  56.7296448  32.5790443  47.6056900
  55.4415474  31.8627701  47.9502831  32.2075615  52.4404259  88.1218414
  31.3802147  52.4883690  87.6428604  32.8692741  52.3037720  87.4438400
  51.2965508  64.9904709  34.7699547  51.1843567  64.9496918  33.8202286
  52.1600571  65.3849258  34.8924065  78.9593811  44.5031013  24.2759743
  78.1720123  44.7905006  23.8137188  79.2888031  43.7705231  23.7553558
  67.2192688  61.2500648  35.2562981  67.7618484  60.4624710  35.2954750
  67.7640152  61.8939171  34.8036003  58.4772530  50.0577774  58.9684982
  58.8881111  49.9544983  58.1101494  59.0173912  50.7092781  59.4157448
  57.9592056  20.9876614  71.5053940  58.0309219  21.7249279  72.1116333
  57.0720139  20.6537781  71.6382294  28.5961170  53.0043831  46.7717896
  28.5665073  52.8301620  47.7125359  29.1523361  53.7789841  46.6890450
  56.0317955  48.7711525  61.9980888  56.4801636  48.2507782  62.6647301
  56.0729637  48.2337837  61.2070312  51.4454346  23.6965179  13.6075487
  51.6696625  24.5162086  14.0480738  51.9487610  23.0287800  14.0734015
  83.4615707  51.8539162  58.8995552  82.5332108  51.9340782  58.6805687
  83.9141388  51.9443741  58.0609703  17.5056458  11.6606941  17.7607098
  17.7035561  12.3242149  18.4216213  16.7313957  11.9962130  17.3088303
  19.6318932  15.8398399  11.8289242  20.5859756  15.8357840  11.9059944
  19.3194084  15.6442194  12.7122803  72.2350388  48.3789558  54.5605011
  73.0730820  48.6093712  54.1594810  72.0139847  47.5282555  54.1814499
  31.6996193  51.9559097  76.9266510  31.3581047  52.2243462  76.0736923
  31.8945045  51.0243721  76.8242416  75.4108582  32.0529900  50.5614204
  74.9361725  31.2415314  50.3813248  76.3323898  31.7943039  50.5710297
  65.5960693  32.4482155  36.5884056  64.8691864  32.8618584  36.1228180
  65.4290619  31.5091934  36.5072823  65.0751648   5.5920253   6.2693005
  66.0109406   5.7205253   6.1142344  64.9042511   4.6973796   5.9749732
  74.7445145   0.1840993  79.3440628  75.5582657   0.3209369  79.8291550
  74.1873322   0.9196005  79.5986557  47.7789726  63.2068291  16.9826965
  48.2215347  62.7189217  16.2882061  48.4764481  63.4341202  17.5975952
  61.2603531  33.4736938   9.9938107  60.9531517  33.4823570  10.9003334
  61.6907158  34.3209000   9.8786545  52.9180679  42.2716599   9.4852362
  52.0239944  41.9892502   9.2925901  52.9001427  43.2212830   9.3663950
  74.4173889  63.0220032  77.4531555  75.2205658  63.4025192  77.0976944
  73.9500885  63.7641373  77.8366928  80.9878159  13.4488001  56.6729889
  81.2623520  13.0993481  55.8252029  81.6121826  13.0798159  57.2976913
  80.4065857  14.8492212  21.5662117  81.1207275  14.6568470  20.9585724
  79.9326782  14.0216541  21.6485386  74.4051819  29.0355797  60.9539871
  75.0356750  28.9491329  61.6689987  73.8209839  29.7403507  61.2336960
  78.2887497  42.9989510  61.1958160  78.5203094  42.2284546  61.7144127
  77.4176941  43.2445412  61.5075607  74.4566803  19.0006199  15.4617147
  73.9808502  19.7866726  15.7299328  75.0149460  19.2927723  14.7411480
  16.1541634  31.4344501  83.9540939  15.6299763  31.4629021  83.1536865
  15.6478729  30.8851490  84.5525665  26.4355335  38.8772392  85.3591080
  26.9295673  39.6846085  85.2165680  26.7098465  38.5784988  86.2261353
  75.9313507   4.0096288  61.9571762  75.3704758   3.8049576  61.2090073
  76.5661469   3.2936895  61.9835739  56.5084076  11.3458614   5.1286407
  57.3616028  10.9725437   5.3498273  56.2753372  10.9342604   4.2964787
  19.5166531  36.5867958  24.4308929  20.4198551  36.8896790  24.3375149
  19.5806847  35.6320038  24.4084225  19.1207676  52.5604248  27.9396458
  19.0648270  52.4101410  28.8833179  19.9784603  52.9658012  27.8121033
   7.3085480  60.7330704  29.5479393   7.3195162  61.6674957  29.7552090
   8.2278461  60.5090141  29.4032974  74.5778351  10.4160042   7.6403470
  75.3002243  11.0439930   7.6430216  74.9466400   9.6250038   8.0334492
   3.4839289  10.8829746  32.6863098   4.3897200  11.0978880  32.4636307
   3.0775993  10.6607771  31.8486023  38.1090584  60.4340782  12.6250353
  38.7050743  60.8476334  13.2495117  38.0742912  59.5173416  12.8981943
  27.6034775  12.2498865  72.0691071  27.5291786  13.0415554  71.5362167
  28.5460091  12.1143112  72.1665039  46.1896400  62.7893295  85.1057663
  45.9247818  61.9291649  85.4316483  46.9757538  62.6174202  84.5874023
  40.3929443  34.1845894  88.8724518  41.1642380  34.7287750  88.7137146
  39.7222366  34.5446548  88.2921600  76.9517670  28.1027908  42.3831787
  77.1208954  27.1617069  42.3385735  77.0822754  28.4123402  41.4868660
  19.2104855  64.4544220  69.0274277  18.3941078  64.8984909  68.7981567
  18.9576359  63.5404243  69.1574326  50.0556793  39.9153748  17.8235512
  50.8759460  40.0863457  17.3607731  49.7612419  39.0699539  17.4847279
  12.9285965  65.5714645  82.6308136  13.3757076  65.7464676  81.8027420
  12.8533010  66.4294968  83.0483551  72.6904602  44.4060020  64.5444107
  72.7381973  43.4548798  64.4478989  72.4521255  44.7234688  63.6734085
  47.0308838  57.4036942  30.6820202  47.6460533  57.9959869  31.1144390
  47.5224075  57.0458717  29.9426975  34.4366379  52.1109810  55.2705688
  34.1326790  52.6636276  54.5505562  35.3871384  52.2239609  55.2744331
   3.5583558  64.2845001  36.3695564   3.3176644  63.3700752  36.5183258
   4.2607660  64.2447357  35.7205048   6.2363811  61.9380035   2.0519555
   7.0442686  61.8809128   1.5417687   6.4882231  62.4066658   2.8476725
  54.2879677  24.4803448  46.1370010  54.6672783  23.9959507  46.8702927
  53.4148750  24.7291794  46.4403572  31.6325874   4.4849596  81.8389969
  32.1826096   3.7055826  81.7597733  32.0433617   4.9982948  82.5346832
  39.8023643  36.2341652  17.1428757  39.0824051  36.1488228  17.7678623
  39.4430733  35.9083138  16.3176708  28.0229206  45.4040375  55.7127342
  27.4426346  45.7712975  55.0459366  28.8318825  45.9090996  55.6307335
   2.7635605   4.2786198  14.8832760   2.7708921   5.2315955  14.7937450
   1.9420158   4.0868545  15.3355169  48.8681450  60.8871078   0.2820561
  48.1566086  61.1191444   0.8788020  49.5976677  60.6566811   0.8573239
  64.2385864  54.5932617  49.0976372  64.4752197  54.1467476  48.2847061
  64.5092010  53.9899902  49.7897797  55.2533379  60.4104309  37.9208870
  54.8803253  59.5290222  37.9353256  54.6127281  60.9492493  38.3851318
  39.5183411  66.3364944  49.9541359  39.8561211  66.1793365  49.0724106
  38.8226738  65.6881256  50.0632133  45.2190399  23.1854401  66.9188843
  45.4324608  23.2348652  67.8506775  44.3107567  22.8841515  66.8968582
   9.2745552   9.4789066  46.0821571   8.3258095   9.4860106  45.9554214
   9.6317873   9.7325106  45.2310982  36.9993019  24.8341770  67.4330139
  37.7721825  24.2808590  67.5458298  36.3797302  24.2851162  66.9524994
  34.4639091  49.6239014  88.0956879  34.4577942  50.4193115  87.5632248
  35.0265236  49.0175438  87.6139908  31.8290291  63.7686119  31.4118729
  31.0995483  64.3275070  31.1440563  32.1720276  64.1849899  32.2025757
  68.9694595  70.5393143  85.2588806  69.2205963  71.3283539  84.7787018
  68.4707947  70.8637924  86.0087280  35.9087219  12.3234968  86.5275116
  35.5715485  11.5583019  86.0616608  35.1936493  12.5850248  87.1076126
  66.5838699   6.3637748  20.2599926  65.8290558   5.7752914  20.2735100
  66.9931946   6.2480369  21.1174831  81.5911179   0.0814031  42.5699463
  80.9783173   0.5040311  41.9682045  82.4261703   0.5207887  42.4091377
  45.5144157  36.4813309  17.4503746  45.1457672  35.6003799  17.5155563
  45.0827484  36.8657608  16.6874142  29.9206944  69.2882538  40.0655632
  30.1148796  68.3509979  40.0746803  30.7647018  69.7093124  40.2286301
  77.6311035  39.0808678  32.1424713  77.4625473  38.7311172  31.2675438
  77.9508286  38.3302040  32.6429825  80.0403748   2.7113960  87.7244568
  79.2412338   3.1110756  88.0677643  80.1743698   1.9366995  88.2704620
  75.1455460  23.0665970  82.0344162  75.8639603  22.4965801  82.3086319
  74.9802704  23.6257095  82.7935638  73.2356949  16.2290897  39.8434181
  74.0912704  16.4479790  39.4742279  72.8821869  15.5650940  39.2514954
  12.5570612  27.7644920  72.3252945  13.2260170  27.1711636  71.9836960
  12.1659832  27.2882576  73.0577545  44.2778053  16.9944363  76.6423187
  44.9178886  16.8505363  75.9453125  43.4371567  16.7639294  76.2468338
   8.4106302  63.3833923   2.7654061   8.8536434  64.2296829   2.8267827
   8.4179773  63.0437431   3.6602900  42.5082359  57.9137802  84.5406494
  42.0188484  57.2494240  84.0555115  41.9146843  58.6633949  84.5854263
  74.0249252  31.3840256  15.8063211  74.4060287  32.1090622  15.3110304
  73.9039688  30.6892624  15.1590919  10.3742981  13.6085529   8.0155506
   9.7365999  12.9014769   7.9174786  10.6300869  13.8264151   7.1192584
  25.1819496  53.4728546  63.0102997  24.5061684  54.0862617  62.7217140
  24.9437122  53.2612877  63.9129143   2.9704933   5.2017550  74.9312592
   3.9195063   5.1916909  75.0557785   2.8447087   5.6273150  74.0831375
  65.3206787  48.2987061  71.0083160  64.8268661  49.1120491  70.9041367
  64.8576355  47.6654472  70.4598541   6.1926255  63.0844116  54.0787773
   5.9221621  63.8916054  54.5164070   5.4534650  62.4880524  54.1980591
  67.8030701   8.5542765  70.2905273  68.2454910   8.5432873  69.4417725
  66.9325638   8.9050369  70.1023331  40.3686485  45.1040154  71.8935318
  40.6817932  44.3303947  72.3622437  39.4284439  44.9571724  71.7901917
  54.7617264  57.9559326  48.4182167  55.6628342  58.2192612  48.2314110
  54.2236595  58.6020432  47.9607697  49.1417694  11.7724504  44.9411888
  48.6346588  11.2675428  44.3054657  48.7248459  11.5860758  45.7824211
  61.7699013  50.6658936  59.5827103  61.6374283  50.1169701  60.3556061
  61.6032677  50.0819473  58.8427963  24.4365196  54.0966911  81.1178055
  24.3861065  54.9425354  80.6725616  25.2303505  53.6900711  80.7703552
  40.4624901  54.0932732  34.2643356  39.5095367  54.1276398  34.1811142
  40.6152840  53.8977852  35.1888199  36.6435852  47.4306297   2.2298012
  35.7604599  47.6199799   1.9128270  37.0978317  48.2722511   2.1902537
  41.1784897  69.4682617  25.8844757  40.5590439  69.0673523  25.2747288
  40.9119072  69.1437836  26.7446365  75.3378677  17.5980282  54.5821419
  75.5964355  17.9088821  53.7145309  74.8723373  18.3376369  54.9726410
  27.6087990  63.2123375   3.9488804  27.6822662  63.8640137   3.2516351
  26.6971169  63.2693481   4.2349138  56.9407463  11.6503124  40.4135818
  56.9416237  11.9673290  41.3167572  57.8671646  11.5571146  40.1915550
  75.5447540   5.6723537   2.7752795  75.6198883   4.7222157   2.6868277
  76.4235229   6.0008245   2.5852706  30.9389992  58.4479065  19.1731033
  30.0215492  58.1796761  19.1224060  31.2022343  58.2331200  20.0679817
  53.9819221  12.2773981  52.9269753  54.1378098  12.7196112  52.0924797
  54.7639046  11.7427654  53.0644722  25.1318741  21.2308941  45.6578445
  25.3973026  20.9323540  46.5277023  24.9336147  20.4263439  45.1786537
  72.6320953   9.4586124  60.8370934  72.7272644   9.0019960  60.0012245
  72.1591263  10.2616634  60.6188354  61.3513985  32.4553452  84.5954514
  60.7426949  33.1938171  84.5760803  62.1762276  32.8327980  84.9010925
  33.7057648  41.8206444   9.7246723  34.2831688  42.1957130   9.0597210
  33.9740753  40.9038200   9.7852983   5.3620157  59.7141762  54.4557381
   6.1508245  60.1014977  54.8352051   5.2231288  58.9119568  54.9591103
  46.9165688  61.2982025   5.0370131  47.3267441  61.4060707   5.8951225
  46.5182304  60.4284363   5.0695829  40.3907433  60.9134369  51.8361282
  41.1547241  61.4070854  51.5380135  40.5743942  60.0097733  51.5794258
  23.8322201  52.6123390  16.8009396  24.7492790  52.8501701  16.9375820
  23.7829208  52.3696938  15.8763180  73.9217987  71.3040771  16.9118385
  74.8169556  71.2362823  17.2439919  73.5656891  70.4200592  17.0008831
  82.9052887  18.9369164  86.2601852  83.6530075  18.8515816  85.6686859
  82.7429123  19.8791027  86.3065872  82.2377853  28.5749168  57.9749603
  83.0657806  28.1105404  57.8524208  81.9724350  28.3595409  58.8690681
  16.8996983  61.8452530  41.6286011  16.6373634  61.7129021  40.7176132
  16.9973373  60.9605293  41.9806786  84.3629074  60.7912560  56.6222954
  83.5713348  60.5233688  57.0890732  84.0835190  60.8859291  55.7116852
  54.8799934  61.0890121  19.4844627  54.2840042  61.3271065  20.1946316
  54.3589287  61.1955795  18.6886196  10.2940159  65.6724319  71.4719162
  10.2911472  66.6192017  71.3310165  10.6610193  65.3113022  70.6649933
  22.0996437  45.3253174  31.2857456  22.9214249  44.9544716  30.9642124
  22.3309898  45.7322884  32.1206589  35.9394722  17.1092129   3.1590142
  36.7257500  16.9953709   2.6251245  35.2533493  17.3330383   2.5302284
  50.0145416  58.7227287  58.8884087  49.1770744  59.0919876  59.1686440
  50.3136711  59.3082237  58.1927452  72.4538193  54.8705597   5.1962962
  72.6491241  54.8966064   4.2595949  71.9268799  55.6541557   5.3529692
  74.3058701  51.0300446  72.2569733  73.5962906  50.6087952  72.7420273
  74.9905014  51.1734200  72.9103928  22.7715855  15.4142208   7.2487960
  22.5799809  15.3893452   6.3112988  22.6957817  14.5033350   7.5330033
   4.5735164   8.8414974  81.9491730   5.1635036   8.1044531  82.1070099
   3.9979532   8.8555813  82.7138748  43.6585045   1.8371670  12.5177393
  44.4709854   1.3317903  12.5442066  43.6934929   2.3880174  13.2997694
   7.7021089  62.7162285  73.3673859   7.0433125  62.9007492  74.0368423
   8.5184441  63.0550041  73.7348862  11.3421049  40.9807434  40.6664886
  11.1788921  40.0902138  40.3557625  10.5897121  41.4844360  40.3559532
  12.8621330   2.0503399  57.0537720  13.1382647   1.6346614  57.8705902
  13.3710194   2.8600395  57.0131187  29.5031528  59.6808205  28.0292645
  29.3034801  59.9042511  27.1201763  29.4181385  58.7281075  28.0659695
  68.8418427  42.7937012   7.1326461  68.0060883  42.3304253   7.1884851
  68.7796936  43.4806786   7.7962971  12.7121162  46.4037399  76.6508789
  12.1224451  46.0790443  77.3313904  12.2403564  47.1363831  76.2547684
  39.9396591  17.8407841  83.1261597  40.6271210  18.4627647  83.3644180
  39.1915207  18.0915031  83.6680603  55.6247406  15.2758980  86.1496658
  55.3316956  15.4385471  85.2530670  56.2069206  14.5194950  86.0778732
  25.2813835  69.6257324  57.5479431  25.4465408  68.7544937  57.1875420
  25.6818485  70.2252502  56.9183083  60.5289459  26.7098446  16.9305210
  60.2049713  27.4730835  17.4087887  61.4756279  26.8423691  16.8809471
  66.1571350  67.4594955  38.2642632  65.5956421  67.7121658  38.9971466
  66.6737213  66.7268448  38.5998116  36.3074341  67.1610489  13.2063103
  36.5171547  67.1957932  12.2730141  36.7445831  67.9268570  13.5786972
   3.3008549  66.1942596   8.3382902   2.4553313  65.8123550   8.1027689
   3.5073514  66.7843857   7.6134820  77.8086700  58.2267151  42.6431541
  77.1137924  57.6935844  42.2569618  78.5897903  58.0061951  42.1357536
  56.0115738  14.8366222  27.8798447  55.5327797  14.0400991  28.1090565
  55.3844299  15.3569098  27.3776283  28.4207268  18.0251255  79.9038620
  27.9305859  17.2538795  79.6189499  28.6658936  18.4669094  79.0908737
  74.9240646  67.1316376   7.1518407  74.1269150  67.6569672   7.2213192
  75.6172180  67.7033920   7.4817872  41.3696899   5.8369703  45.6408157
  40.7612534   5.1146760  45.7967873  41.1661148   6.1343794  44.7540588
  66.1324768  65.2203445  31.9748421  65.9376602  64.9131393  32.8602257
  65.8973465  66.1481476  31.9860859   3.2749007  50.7592163  74.8418503
   2.4573331  50.7569847  74.3440399   3.8803599  51.2712936  74.3057251
  66.3599930  22.2172337   3.7406831  67.1210709  22.5014267   3.2345026
  66.4518509  22.6636982   4.5823860  48.7659454  69.3271332  16.9058666
  48.5037766  69.5114670  16.0039139  47.9743156  69.4808044  17.4215584
   8.3975182   6.5808468  28.5208588   8.4455709   7.5066943  28.2826805
   8.4164410   6.1169100  27.6838188  48.3436584   7.3909373  14.4581985
  49.2098122   7.3949838  14.8656187  48.4512329   7.9106812  13.6616268
  29.3980179  26.0628986  15.3092365  30.1359119  25.6985760  14.8203468
  29.2731762  25.4580173  16.0405121  73.9250870  45.5011101   3.2989066
  73.9004822  45.2620506   2.3723664  74.7700729  45.1746140   3.6081419
  49.5015602   5.3949504  53.2650299  49.9359665   4.9786448  54.0094833
  48.5675850   5.2647462  53.4292564  15.3059740  46.6085892  59.4609947
  16.1951122  46.6819305  59.8078156  15.3460093  45.8699341  58.8535233
  54.1962662  63.5105362  45.6007347  53.6081429  63.6668892  44.8618889
  53.6253052  63.5262833  46.3688431  83.1125793  26.7343903  14.7369537
  82.2210159  26.4192219  14.5885744  83.3896713  26.2985497  15.5428658
  55.4416847   0.6053672  77.8774033  56.3358536   0.4360533  77.5807114
  54.8872681   0.2032323  77.2087173  49.4027290   5.7492380  44.0879936
  49.4458084   5.6331096  43.1388435  50.2759705   6.0563941  44.3315887
  20.2206211   8.1710691  70.0812378  19.6205139   8.8484068  69.7692795
  20.1370983   8.1975956  71.0344162  83.0462418  70.0533752  75.4838638
  83.4282303  69.4467697  74.8495560  83.3723297  69.7505112  76.3313141
  71.8082962  65.7922440  75.1079025  72.6282272  65.7170258  74.6197662
  72.0452728  66.2717209  75.9017410  60.2115059  13.2657700   4.2269044
  60.3186913  14.2160454   4.2683582  60.6391869  12.9416943   5.0195546
  63.1639481  63.5790558  49.4113617  62.7287712  63.1136131  48.6970673
  62.4666901  63.7532997  50.0435829  10.0855932  59.4527397  83.8611450
  10.3201103  58.6791840  83.3484650   9.3444262  59.8355370  83.3917084
  55.8859024  62.9860535  54.1657944  56.3192673  62.4229736  53.5244179
  56.1530991  63.8731079  53.9250183  41.1959229  66.1252136  58.4248466
  41.0641708  65.1789780  58.3655128  42.0497017  66.2741013  58.0184860
  78.9108734  63.3488045  74.4940567  79.6152573  62.7411919  74.7196274
  78.7557220  63.8447037  75.2979507  21.2161198  52.6668968  59.7248383
  20.9147072  53.5528374  59.5236092  21.8779774  52.4819565  59.0585251
  64.9351807  34.5023537  10.4480848  64.2093506  35.1263657  10.4516077
  65.7164459  35.0430374  10.5643721  42.8424911  47.6127701  38.2049637
  43.6142159  47.1850967  38.5761261  43.0182686  47.6500702  37.2647820
  57.9742088  16.3796501  31.1605873  58.0441666  17.0090618  31.8783474
  57.1330261  16.5780735  30.7491627   3.0929749  52.6956902  79.2970657
   3.2640035  51.7919502  79.5620880   2.1969695  52.8651466  79.5880814
   5.5379128  28.4286270  35.7779884   5.6206317  28.2180748  34.8479042
   6.3549647  28.8773060  35.9955750   4.1837215  40.9369583  84.2173080
   3.4377956  40.6111641  83.7136383   4.9424205  40.4977837  83.8329468
  35.2208633  41.9363174  24.0906353  35.8956680  42.6150513  24.0767937
  35.4486885  41.3572006  23.3633442  16.5536213  41.5890350  78.3562851
  16.1024685  42.2486343  78.8831787  16.1427536  41.6493454  77.4938583
  49.5457878  64.9833450   9.1507845  48.8436928  65.1179962   8.5142574
  50.3033562  64.7323685   8.6222649   3.9392753  65.8376923  66.9807892
   4.6920266  66.4268036  67.0312347   4.3162379  64.9607468  67.0521698
  48.4009171  35.0969887  42.6134224  48.6413727  34.9646568  43.5304298
  49.0263672  34.5640373  42.1224976  67.0422363  42.1084518  37.3250885
  66.5202942  42.8823128  37.5370903  66.4744110  41.5838547  36.7606354
  76.5778427  50.8731918  30.9753017  77.3337021  50.2889404  30.9156532
  76.9509048  51.7533035  30.9257050  14.5081434   4.1210175  56.8207664
  14.5400038   4.3944454  55.9040031  15.4260159   4.0179515  57.0720024
  39.0190048  19.7151318  79.0874023  38.3571510  19.1061668  78.7597656
  39.6441612  19.7994881  78.3674774  41.4939270  69.9837799  58.7641945
  40.7118073  69.4743729  58.5520134  42.1906204  69.3319550  58.8415108
  23.4556198  35.0492706  28.5108356  23.2307301  35.5881424  29.2693043
  24.2556362  35.4447975  28.1647644  54.2208023  15.0878620  82.5684967
  55.0024757  14.5399580  82.6393356  53.5544167  14.5079346  82.1999207
   3.3662388  26.2477760  62.1998482   3.5886681  25.9436951  61.3199081
   2.8903227  25.5161743  62.5929070  63.0463409  19.8911228  62.8861618
  62.2909126  20.2376385  62.4113121  62.7557297  19.8440819  63.7969666
  84.7108459  50.2222939   6.8553667  85.3671570  49.9583817   6.2105088
  84.6661758  49.4868546   7.4664040  68.5173340  52.2183952  23.6693382
  69.1521454  51.5972900  24.0263710  68.5497971  52.9647179  24.2678223
  71.2661667  28.2356777  48.7454987  70.6484375  28.2637215  48.0148392
  71.5557404  27.3239613  48.7794571  27.5517788  10.6592779  30.4529915
  27.2886467   9.8443174  30.8805790  27.5520954  11.3091974  31.1557255
  68.7256927   3.0273485   8.6927338  67.8870316   3.0579336   9.1531096
  68.6459274   2.2807665   8.0990305  16.9371223  61.8456535  45.0661278
  17.8853779  61.9498367  44.9874611  16.5887356  62.1974678  44.2469292
  16.4612122  45.4056358  25.0507870  17.3377495  45.0687943  25.2364025
  16.4760361  45.6095390  24.1156750  48.9006004  55.7812691  50.7945976
  49.6363678  56.3374710  50.5386238  49.0607109  55.5817757  51.7169838
  79.3520203  40.0973053  80.0524368  78.7397919  39.6005363  79.5096283
  79.9336472  39.4347267  80.4251633  79.4016724  33.6220360  65.2295837
  79.2134933  34.4619637  65.6483231  79.0678177  32.9681168  65.8437195
  70.1773071  33.4048576  28.5675564  69.3528671  32.9848022  28.8126602
  70.3691254  33.9980087  29.2939224  67.7349014  31.7715454  43.6151962
  67.2501984  31.2378101  44.2448196  68.6398544  31.4690704  43.6913261
  34.6044846  32.5835381   6.0601768  34.5783043  31.6519585   5.8417687
  34.1668625  33.0141106   5.3257866  63.6304550  20.3036976  58.7391205
  63.2754478  21.0598354  59.2065163  64.3987885  20.6443825  58.2810516
  20.4654312  58.5662880  29.1330872  20.0058918  58.7640343  28.3170280
  20.1655731  57.6887436  29.3702335  29.6337891  64.0344162  88.5530396
  28.8405876  64.5572357  88.6701813  30.2653942  64.4178085  89.1615753
  55.2186356  26.9916039  10.6964216  55.1722145  27.2353649  11.6208992
  55.2535515  26.0350609  10.7024021  12.4548149  70.2509003  10.7201910
  13.3462992  70.5128479  10.4902496  12.1969118  69.6442032  10.0261936
  83.5467300  38.4435768  73.7933960  83.4526291  37.5676498  73.4190521
  83.4796677  39.0334167  73.0425110  82.7382202  11.8602781  87.9657669
  82.8893585  12.7539015  88.2737122  83.5155411  11.6506758  87.4480133
  80.0262222  54.2042923  49.3117180  80.1548538  54.3505516  50.2488937
  80.1200256  55.0720711  48.9187889  15.6845531  56.4521370  82.9117966
  15.2648354  57.1311455  83.4400177  15.8600368  55.7423706  83.5295868
  18.3004150   6.2163539  10.8434687  18.3346100   7.1576271  11.0139608
  19.1909657   5.9095726  11.0138721  33.9068108  25.5437584  19.6386414
  34.4167404  25.2388649  20.3891392  34.4775085  25.3945789  18.8847961
  66.8156738  33.3265038  24.8966084  67.3144760  33.2808838  24.0809174
  66.5270996  32.4270821  25.0515079  32.1215897  44.0971184  15.5168447
  31.3632145  43.9376717  14.9549923  32.5479202  44.8629227  15.1321135
  72.3685303  52.3764153  17.2371292  72.7556915  52.6115036  16.3938789
  72.7644424  51.5327606  17.4555836  53.5652046   8.6668997  67.3920593
  53.5950432   8.0536757  66.6576843  54.4825058   8.7978973  67.6321259
  77.6991196   1.5151405  84.4719391  78.1275330   1.7803104  85.2858047
  77.0231476   2.1778548  84.3301544  47.6142998  27.3966465  64.5064926
  46.8815117  27.3892612  65.1222839  47.3289070  26.8324928  63.7878036
  15.5370083  45.0514946  27.6917095  16.3482170  45.3068848  28.1309700
  15.7728806  44.9974556  26.7656021  16.3935318  23.3702717  26.5067539
  15.5059156  23.1239204  26.7669106  16.5888157  24.1485004  27.0287266
  19.1764469  28.8591633  53.2704430  20.0233879  28.6459618  52.8786926
  18.5518761  28.2980900  52.8107300  19.6961708  43.7518272  58.5129128
  20.5643120  43.7229156  58.1107597  19.1136703  43.3766136  57.8525047
  81.6151428  38.2574883  35.8206329  80.9958801  38.6690903  36.4234009
  82.4478226  38.2619591  36.2927055  19.9861889   5.1209669  15.4832840
  20.5543232   4.8592548  16.2078247  19.4879570   5.8631287  15.8256178
  38.2475548  50.0064774   9.0167313  37.6349220  49.7197266   9.6939974
  37.7135620  50.5246544   8.4145851  67.4217987  12.4472485  10.4832315
  67.2331543  12.4081020   9.5456219  67.8319092  11.6051283  10.6803942
   8.4291534  39.3799934  86.8892746   8.7729826  40.2259178  87.1763763
   7.6462102  39.5987206  86.3839111  70.1911774  24.0708008  69.0179214
  70.5401764  23.5901432  69.7685242  70.6384048  23.6912708  68.2615051
  69.3373489   3.9748397  81.9604340  68.3871536   3.8682299  81.9157333
  69.6869659   3.1416290  81.6445923  75.7272186  57.8131790  49.9139633
  75.2272263  58.4676933  49.4262543  76.0466385  58.2815857  50.6851921
   2.8908017   9.1989918  16.6484928   2.6154971   9.2669592  17.5627251
   2.1070976   9.4199753  16.1452980   9.4438896  71.1762009  21.5031281
  10.2963943  70.7583694  21.3811245   9.5616503  71.7424545  22.2658329
  44.7015839  44.1180611  57.6037712  45.3958969  44.0549393  56.9478874
  44.2453995  43.2782021  57.5512238   4.5505314  59.1619072  77.5049515
   5.4218140  58.8654594  77.2418594   4.6436272  59.3874435  78.4305344
  84.7625198  37.3939934  30.7228107  83.9412994  36.9175568  30.8446388
  84.6482468  37.8604240  29.8947887  78.9254227   3.5032029  69.0347290
  78.2577362   3.5962958  69.7142563  78.8948669   4.3303657  68.5540009
  39.4376488  71.1921616  22.6891708  38.8687210  70.8408508  23.3741055
  40.1215935  71.6638718  23.1645031  76.0684738  48.1187248  43.3600235
  75.6662064  47.8575249  44.1883888  75.7197266  48.9937325  43.1898155
  71.3037415  70.9619064  68.8334808  71.0082932  70.5871353  68.0037308
  72.1358185  70.5235214  69.0115128  26.9001179  24.3799820  39.0891418
  27.3532944  24.3673916  38.2461128  27.5644207  24.6709805  39.7138443
  44.1557159  67.3146286  66.3859253  44.2035904  66.8916397  67.2432556
  44.5691109  68.1680298  66.5164795  15.0537615  42.0992470  14.6391106
  14.3935289  42.7413101  14.9000311  15.8641472  42.6038589  14.5693111
  49.8952141  53.2509956  61.5001869  49.9600868  54.0726700  61.0134888
  49.7341347  52.5873909  60.8294296  39.4884262   0.8496751  43.0361252
  39.3227844   1.7893871  43.1118546  38.6171265   0.4541957  43.0103645
  69.5327835  63.8386192  87.7914505  70.3196945  63.8157196  88.3359528
  69.6872940  63.1749535  87.1192093  39.5084496   1.6476188  49.9749680
  39.7193718   1.9612916  49.0955620  40.0487442   2.1828818  50.5561790
  69.3381958  20.9890060  66.4875183  69.2932281  20.4627972  67.2858353
  70.2281647  20.8544884  66.1618042  77.2304535   2.5743895  34.5286751
  77.4643402   1.6463854  34.5102425  76.3686295   2.5959716  34.9446335
  82.4490051  67.5188980  68.9438324  83.1913986  67.5896378  68.3437653
  82.6488724  68.1378174  69.6461258  60.3658142  36.5542145   4.1578174
  60.9459724  37.1340942   4.6511607  59.7719078  36.1931381   4.8159413
  16.6081791  47.5276985   4.2665491  16.3504810  46.6106949   4.1720905
  17.3036633  47.6488495   3.6201322  23.8623276  46.3566589  18.9159184
  24.5835629  46.9792366  19.0078430  23.7113495  46.3026505  17.9722443
   6.3994389  68.3885803  89.0600281   6.4710603  68.6171646  88.1332855
   6.4156961  67.4316025  89.0726242  85.2494354  40.6423149  31.0426617
  84.9567032  40.3487701  30.1798916  84.4812393  40.5387726  31.6042595
  65.6515961  31.7773342  86.0296249  65.9360428  31.8893757  86.9366913
  65.8529968  32.6139374  85.6103821  40.2028503  30.0991364  11.5468063
  40.2347336  30.9523354  11.1140623  39.5812492  29.5898705  11.0267200
  66.6464615  12.5621605  55.0312843  65.8067169  12.4646749  54.5823402
  67.2997208  12.3365202  54.3690338  19.6916218  52.9098778  83.2576752
  19.2966633  52.3840294  82.5621719  20.5375996  53.1814423  82.9015808
  64.6050644   4.5349898  45.6757050  64.9288940   5.3170280  45.2287407
  64.0023193   4.8706527  46.3392334  69.3140030   8.6453724  21.0813065
  69.0960770   9.2142992  20.3430233  69.9547424   8.0285807  20.7273960
  86.0455627  30.0775185  60.5414162  86.5796661  30.6605911  61.0808525
  86.4491119  29.2161064  60.6479492  28.9077549  49.0406189  57.0710144
  28.4834900  49.6576805  57.6672211  29.4528713  49.5890198  56.5068054
  76.6645050  65.3926926  52.5681305  76.0185852  65.9449387  52.1276283
  77.4217911  65.9642868  52.6947403  62.4420433   0.9930272  76.9076920
  62.2061996   0.3537003  77.5799026  61.6028938   1.3064939  76.5703506
   3.5149434   5.6364021  47.4896507   4.3894877   6.0217214  47.5438118
   3.6695104   4.6918030  47.4810791  53.3074989  16.7540016  58.8269424
  53.7719536  15.9536705  59.0718575  53.6241989  16.9547367  57.9462395
  21.0809498  68.6281052  54.7543831  21.4685345  67.7621765  54.8815804
  20.8196869  68.6406708  53.8336143  28.2116909  67.9496002  86.8337250
  27.7678909  67.8167038  85.9961014  28.6153660  68.8140640  86.7564011
  71.7428207  33.2406082  68.2630310  72.2287216  33.9397202  68.7004929
  71.3373947  32.7479591  68.9765854  18.4412155   7.4687915  15.6579275
  19.0483608   8.2064686  15.7165747  17.9381695   7.6354108  14.8607979
   1.4543101  58.5672455  85.1539612   1.1176434  59.1097717  85.8670883
   2.3250904  58.9216156  84.9739761  57.8776245  42.5880966   5.2747965
  58.0808525  42.6040573   6.2100377  58.0453300  41.6840668   5.0086465
  76.0072098  30.5742664  82.0957108  75.7455444  29.7218323  82.4437332
  75.2488251  31.1381245  82.2478485  37.4187737  44.1632118  40.9621658
  38.0598907  43.8901978  41.6184158  37.2614937  43.3769684  40.4393730
  17.1650734   8.1774645  28.8085117  17.3018589   7.2936893  29.1497803
  17.4717960   8.1346073  27.9027996  58.5917206  19.1370354  35.5235710
  57.7056808  19.3816471  35.7906494  59.1535606  19.4717731  36.2225075
  84.2858887   1.8833783  46.5273476  84.5560303   1.6770171  45.6325455
  84.4490662   1.0781761  47.0185242  74.8915863  11.4984007  41.2831802
  74.3815155  10.7344122  41.5522118  75.5438538  11.6067305  41.9753113
  63.4386597  16.1166191   9.3314552  63.0152855  16.0702171  10.1886797
  64.3274994  15.7965908   9.4856749  53.9357033  39.3328743  85.6832581
  53.9220734  39.8427544  86.4932404  53.2753563  38.6529808  85.8170929
  36.1165695  57.7036362  64.9399185  35.5651741  57.5436172  65.7058105
  36.2831001  58.6460762  64.9573822  15.0839586  63.3468170  29.9154453
  15.2713776  63.9455986  29.1925583  14.4011250  62.7681198  29.5762119
  60.8219681  48.0740738  14.5552959  61.4418030  48.0747948  15.2847042
  61.3506889  47.8418236  13.7919188  70.8639450  63.4672432  30.5508080
  70.7271271  63.7098694  29.6350327  71.5914307  62.8455811  30.5277634
  54.0145836  69.4920578  28.8818436  53.7481003  68.7257462  29.3897724
  54.9713097  69.4750061  28.9067059   3.1497779  67.4445953  55.4589272
   3.1804574  67.5672379  54.5101128   3.0063570  66.5052872  55.5745087
   7.9910073  29.7556305  67.1664581   7.4164071  30.5201492  67.2061768
   8.8670912  30.1058159  67.3279495  53.4442673   4.0639372  31.2174931
  52.5681915   3.8078403  30.9291573  53.3353043   4.9535756  31.5535030
  54.0467300  15.4863310  30.9202652  54.5859680  16.1024284  30.4244061
  53.5406494  15.0210791  30.2541904  24.3314800  32.7645531  21.0696583
  24.6213341  31.8884640  20.8153267  24.7197266  32.9039383  21.9334106
  84.0604401  52.8191795  80.8971786  83.2526016  52.3151512  80.7992325
  83.8576126  53.6732674  80.5155716  62.4165611  10.7969675  41.5970268
  62.6158791  11.7314634  41.5402489  63.2283707  10.3625860  41.3352776
  57.7050972  70.9146576  31.5626278  58.4815483  71.4588547  31.6937752
  57.6823616  70.3411942  32.3286934   0.6824170  54.8319778   0.8288547
   1.5705175  54.4818077   0.8987757   0.1978424  54.3979187   1.5310025
  45.6105728   2.8809087  24.9405556  46.5436859   3.0151534  25.1064186
  45.2564430   2.5944552  25.7824383  24.8869095  66.8058701  50.0986519
  24.9942036  67.5197754  49.4701157  25.7782307  66.5967026  50.3779869
   2.0928745  42.0230141  34.1142921   2.4540873  41.4491959  34.7899323
   1.9638884  41.4507561  33.3579102  10.2492809  43.9245720  21.0109711
  10.2436161  43.2197533  20.3633385  11.0512705  43.7815895  21.5135651
  21.3894405  44.5770416  44.9811211  20.8519096  45.3365250  45.2057915
  21.0069561  43.8563881  45.4817200  19.5181484  61.5219498  47.2091713
  19.5721874  61.8326492  48.1129265  19.5582542  60.5682869  47.2809486
  61.1944847  52.0089340  75.9378891  61.4468536  52.3060036  75.0636520
  61.1904106  51.0538521  75.8744202  74.4554443  49.5565453  31.9793205
  74.3870316  48.8144455  31.3786240  75.2976456  49.9591827  31.7676430
  54.1174240  67.9651184   9.6505203  54.8741150  68.4891586   9.9132471
  54.4249496  67.0598907   9.6977644  29.6527271  70.7531586  79.8833008
  29.4771156  69.8243790  80.0341949  28.7909145  71.1364517  79.7202225
  26.4511318  60.8402367  49.6375809  25.6822491  61.3846016  49.4681244
  26.5734062  60.3405190  48.8303833  75.7444458  10.9702740  65.7611847
  76.3760986  10.2513037  65.7790451  76.2352753  11.7282629  66.0786209
  52.1074562  52.4144936  67.3550415  53.0646210  52.4063034  67.3568497
  51.8599701  51.5627022  67.7148132  36.9895248  63.0571251  61.3586159
  36.4476624  62.3218613  61.6449738  37.5576248  63.2415733  62.1065941
  18.5268841  23.8789139  18.8024654  18.1596794  23.0663967  18.4543190
  18.2451534  23.8964977  19.7170982  52.0442963  25.3049564  47.5363426
  52.0362091  25.0822239  48.4672318  52.5143471  26.1376858  47.4933891
  20.3543110  63.7788849  66.1026001  19.5400124  63.3038139  66.2683105
  20.6492462  64.0582504  66.9693146  77.1506577  63.9482536  81.4203720
  76.6771240  63.1185875  81.4808197  76.5525589  64.5319443  80.9536667
  55.1867447  49.8871574  23.6736412  54.4305000  50.1500626  24.1982441
  55.5252724  50.7069893  23.3137703  83.7700272  55.0290031  79.0123215
  84.6754837  55.1162834  78.7143860  83.2839584  55.6687317  78.4920197
   0.6374345  13.9708929  51.7373466   1.0968425  14.7163544  52.1239510
   0.4499739  14.2445354  50.8394547  50.9298058  52.4449806  18.9428635
  51.8000717  52.1041107  18.7362709  51.0604858  52.9744072  19.7295418
  70.1080017  30.2350731  79.1370773  70.8495331  29.6782169  78.8998566
  70.1078033  30.9278889  78.4765930  86.0897217  51.5888443   1.0979764
  85.1435852  51.4969215   1.2102320  86.2842560  51.1023560   0.2969053
   5.3143210  11.0079393  66.2945328   5.8969717  11.6960249  65.9731522
   4.6442037  11.4751873  66.7933884  40.1116257  60.1129112  48.9150276
  40.9494820  59.9268532  48.4912186  40.1177597  59.5727615  49.7052383
  78.0017090  68.3488388  65.4027328  77.0879517  68.6338425  65.4104385
  78.4428940  68.9424744  66.0103302  45.4889450   2.4767365  87.2813797
  44.9570045   1.7749606  86.9061661  44.8521919   3.1235671  87.5853271
  47.4584656  20.1538868  79.5609055  46.7382469  19.7784748  79.0543671
  47.6761703  20.9654751  79.1024704  53.9120636  70.5340118  45.3790054
  53.5955734  70.2344894  46.2312698  53.1183548  70.7652664  44.8965302
  29.7698345   6.6858635  12.1538525  30.7256184   6.6563711  12.1967449
  29.5341034   5.9670024  11.5674219   6.6948547  18.7580147   5.9280343
   7.3586364  19.2804966   6.3781877   6.6968493  17.9192848   6.3892932
   7.4595642  53.3652153  26.8512955   8.3048344  53.6378479  27.2082577
   7.3944654  53.8232841  26.0133419  55.3196373  30.3903923  65.6613770
  54.9206352  29.7602425  66.2613297  56.0707855  30.7370262  66.1428833
  78.6239090  20.6501350  15.4550724  77.8747177  21.2426052  15.5176687
  78.3216858  19.8380413  15.8617659  38.0507812  54.3636284  25.9337273
  38.8017502  54.3057976  26.5244312  38.3765450  54.8549042  25.1795654
   4.0144753  48.7654610  18.3913956   4.1344352  48.7256737  17.4425755
   3.0679374  48.8443260  18.5100441  61.9835930  53.4272575  54.1146355
  61.3571091  53.3067665  53.4010277  61.9908714  54.3717270  54.2700424
  53.1425209  57.8263397  41.2416344  53.4046822  58.7080994  41.5062141
  53.8240471  57.2566757  41.5983315  27.5257282  44.0879593  28.2372818
  27.9533787  43.5693283  27.5558338  27.4659920  43.4957619  28.9869270
  54.7785454  28.1600933  67.3945999  55.1837349  27.3001308  67.5064697
  53.8742638  28.0382404  67.6838379  63.6856689  35.8606453  51.3615265
  64.4259644  36.3550835  51.0097809  62.9206734  36.4001350  51.1616096
  75.1339111  44.5537415  81.3034439  75.7975998  44.5304222  81.9927979
  75.3314285  43.7945023  80.7550201  71.6730499  12.2668562  85.0796051
  70.8552704  12.6765394  84.7974167  71.4312515  11.3626404  85.2800064
  45.7924156  52.5836639   6.7217302  44.8708344  52.8202972   6.8262682
  45.8250694  51.6499786   6.9300489  81.5087357  11.8862286   8.5534716
  81.0399246  11.1880903   9.0106897  81.2037048  12.6922531   8.9700165
  53.1886559  33.0116043  85.8391876  52.5983467  33.6802101  85.4917297
  53.2128906  33.1796570  86.7812119  72.5336380  13.9222021  26.3277035
  73.2093201  13.7223644  26.9755898  71.9251175  14.5009842  26.7869930
  59.2149353  25.4276466  14.9087648  59.7986183  25.9520168  15.4570198
  58.3504791  25.8179665  15.0376043  19.4712505  57.3866386  24.5351791
  19.5655632  57.2930412  23.5872459  18.5747948  57.1038170  24.7157669
  59.5464134  69.4027100  24.3730106  58.6546707  69.6931381  24.1815186
  59.8932915  69.1203918  23.5267220  50.1696739  44.5673790  75.7093277
  50.2336655  43.8430138  75.0868835  49.2749367  44.8920097  75.6078796
  41.3316917  40.1668854  85.1505127  42.2385330  40.4034424  84.9558105
  41.2535934  39.2581367  84.8601532   3.9609125   3.0770833  47.2366257
   4.4786525   2.9657712  46.4392624   3.7263799   2.1861150  47.4962425
  13.3374586  65.2308731  25.5026455  13.9228420  65.5309143  24.8072815
  13.4375267  64.2789230  25.5058250  56.6840439  16.8065033  15.1632833
  56.4854012  17.3939514  15.8924456  55.8558235  16.7226524  14.6907902
  34.2722321   0.8556022  41.8545227  34.6433334   1.6883231  42.1462288
  34.3545914   0.8775636  40.9011269  75.3944855  15.3912296  27.2281780
  76.3461914  15.4639502  27.1560879  75.2523499  14.5764217  27.7099628
  84.2481918  30.8195267   2.9979424  84.4876480  31.0896492   3.8844671
  84.9462128  30.2203617   2.7333593  46.0237312  28.5855999  11.0266838
  45.6509094  29.0252628  10.2625294  46.6409683  27.9519463  10.6609831
  11.0917749  40.1357040  71.3134995  12.0042372  39.8534966  71.2502213
  11.1263380  40.9457626  71.8222656  73.3040161  50.2547836  69.8049927
  72.5082932  50.6580048  70.1520844  73.9880295  50.4995613  70.4282455
  76.4056778  56.6783371  17.3647041  77.1991577  56.8581772  16.8604393
  76.5993195  57.0088234  18.2419224  54.1653786   8.0588713  62.7091827
  53.5155563   8.7145557  62.9622421  53.7167435   7.2209249  62.8223267
   5.7646394  50.2623711   4.1237040   6.1060605  50.3293076   3.2319736
   6.1216311  51.0273552   4.5749083  63.7545891  67.7134171  22.3189163
  62.9074898  67.4432220  21.9644470  63.7062149  67.4931564  23.2491760
  71.2578201  34.0422630  39.3924789  70.9266205  34.9389992  39.3435020
  71.0889740  33.6768074  38.5240517   6.7764864  58.4458122  84.4600372
   7.2670135  59.2065277  84.1487122   7.3862281  57.7136803  84.3682098
  33.3693390  58.2306023  57.5787926  33.0222511  58.6788788  56.8075523
  33.9029922  58.8914833  58.0200195  75.3483887   2.7359056  68.2070541
  75.3890381   3.5848997  68.6472702  76.2262802   2.3692336  68.3123550
  84.3816299  23.8645802   3.5149400  83.4522476  23.8265762   3.7408624
  84.4160004  23.5969791   2.5965500  71.4804230  47.5716324   3.0171087
  71.8572159  48.1185036   2.3277700  72.0144730  47.7578545   3.7893400
  79.4480972  15.3980970  86.8598709  79.5935364  14.4656401  87.0198746
  79.3413849  15.7770348  87.7323685  82.6033249  28.4345379  70.6935272
  82.6558075  27.8807697  69.9145432  83.5154419  28.5910873  70.9379959
  21.2675724  64.2944031  41.6097374  22.1773720  64.2736664  41.3129768
  21.0939350  63.4030037  41.9122200  79.3872910  35.4172630  85.0633087
  79.8682098  35.9689026  85.6802750  79.3465576  34.5609550  85.4891129
  79.3101196  42.2819328  67.0656204  79.6694641  42.5806999  67.9009857
  79.2497253  43.0752525  66.5334244  14.8685608   2.6789682   9.3990469
  14.2781763   2.8446727  10.1340437  15.4339018   3.4507253   9.3672428
  65.0596085  36.9045601   0.3901105  66.0027084  36.9013062   0.5537978
  64.9436493  37.5243530  -0.3300564  59.4400177  20.4236298  20.3589668
  59.2978477  19.5377254  20.0255108  60.1558266  20.7684631  19.8251705
  55.7528610  54.5458221  13.2467003  56.6814842  54.5394859  13.4787674
  55.4062233  53.7371979  13.6237974  72.7533569  46.9390221  62.5200729
  72.8793716  46.5759430  61.6434174  72.0029221  47.5264206  62.4304428
  68.8345642  59.1859818  60.9658508  67.8991547  59.0109062  61.0687180
  68.8723679  59.9813843  60.4346848  42.1783981  42.4019547  43.3983154
  41.5744247  41.8054619  42.9559937  42.9424095  41.8622131  43.6012726
  71.1138000  15.6547928  44.6064758  71.3850021  15.8642397  43.7127113
  71.4114838  16.4002018  45.1279984   5.4895825  63.9470406  50.2608910
   5.8916101  63.0787125  50.2361336   4.7204270  63.8710556  49.6962166
  28.0067081  12.5312691  88.7429276  28.5585117  11.8670845  88.3298874
  27.9581032  12.2650843  89.6610794  39.0136833  16.5028477   7.8194056
  38.5825233  16.8614101   7.0436692  39.2310562  17.2701397   8.3487864
  57.1406517  13.9595175  50.9089966  57.0650215  13.0725756  50.5570755
  56.8512688  13.8819647  51.8181000  79.1765366  35.7536430  81.0650711
  79.4089966  35.1897240  81.8027649  79.7774048  36.4957161  81.1322098
  73.7523270  34.0059319   8.2525625  73.1068192  33.3242798   8.4393740
  73.7250595  34.1073418   7.3011394  45.7624435  35.9085884  42.8139839
  45.0426064  35.3033791  42.6356850  46.5506172  35.3695107  42.7475586
  24.0325928  65.1657028   1.4037470  23.1107807  65.0898590   1.6502035
  24.0151348  65.3472137   0.4640765  70.6544571  45.3241234   9.4530554
  69.9435349  45.3382835   8.8122644  70.2409286  45.5866776  10.2754250
  13.9208660  51.8651505  44.7365685  13.3479280  51.1012726  44.8034019
  13.7522669  52.2151985  43.8617706  73.5665283  71.2286606   7.2662063
  73.6846237  72.1506577   7.4946961  73.1354599  71.2469711   6.4117618
  78.8302078  62.9659615  69.0678101  78.1180725  62.8436165  69.6956024
  78.4288940  63.4406242  68.3398895  38.6273460   3.6979883   8.0059214
  38.7155914   4.5797205   7.6439919  39.0969963   3.7330341   8.8392477
  72.3669586  17.6331921  45.9402275  72.1096802  18.5386906  45.7666931
  73.1703262  17.7069931  46.4553833  65.1201706  65.1913223  60.0998344
  64.3242035  65.5663376  59.7229767  64.9374771  65.1347198  61.0377312
  61.6221504  64.2929688  10.4483528  60.6826477  64.1561966  10.3264399
  61.8798294  63.6290550  11.0879250  29.3904037  64.6767273  10.5078564
  28.9764233  64.1375580   9.8339510  28.9380722  65.5184937  10.4524555
  60.1001320  12.8998518  57.3761024  60.2333069  13.8457556  57.4374466
  59.7545815  12.6505432  58.2332306  48.9098969  42.3204956  86.9293747
  48.8770676  42.8075981  87.7527084  48.5380287  41.4646111  87.1424484
  49.2376366  53.3377304  76.6141510  49.7496796  53.0057869  75.8766861
  49.8752136  53.7964478  77.1612396   1.5460889  60.2437363  68.6165619
   2.2042058  60.3351974  67.9275360   1.8405938  59.4920464  69.1308136
  31.9130669  59.9899178  72.7869797  32.1354294  60.9140472  72.9000015
  30.9575577  59.9654655  72.8383408   4.5576825  22.3264427  85.7838287
   5.4749150  22.5992146  85.7612000   4.5926051  21.3800926  85.9232330
  46.2719917   7.6382141  84.6162262  46.7222137   7.0483665  84.0115662
  46.2343864   7.1531525  85.4405670  41.8534431  45.7029266   9.4684095
  41.8465462  46.2061729  10.2826138  41.0716095  45.1531105   9.5200434
  66.1787796  53.0389366  39.0095367  66.3144379  53.7475395  38.3804817
  66.5444031  52.2650146  38.5810547  72.3791275  21.3208523   9.8303823
  72.8252335  21.6688728   9.0583067  72.4702835  22.0085125  10.4899635
  59.6026688  36.5364418  76.1386719  60.5080986  36.3520622  75.8888016
  59.2070274  35.6732521  76.2594910  48.7961502  20.2824059  83.5195923
  49.5066147  20.1774406  84.1524124  48.1916351  19.5670834  83.7173462
  20.3848343  69.3402481   1.3252960  20.8793163  69.1320343   0.5326018
  19.6486034  69.8683319   1.0165410  37.2514420  69.6163940  17.6617012
  36.9419250  69.8042603  16.7756214  37.5169640  68.6972122  17.6327972
  35.6191483   3.4593918  59.4324493  35.9533691   2.6473408  59.8133736
  36.4036369   3.9658978  59.2220612  24.7779980  29.1021957  81.3538132
  23.8225994  29.1205883  81.2980881  25.0601997  28.7451210  80.5117340
  84.6166992  20.4062443  24.0532494  84.5738678  20.3979874  23.0970440
  84.2940979  19.5438671  24.3149090  65.1177597  15.9640560  37.6604958
  64.7884293  15.0811281  37.8284645  64.5675201  16.5316315  38.2002449
  70.2030106  45.7642670  69.2642593  71.0844193  45.3910637  69.2724838
  70.2196503  46.4021568  68.5507889   3.8366909  47.1530418  48.0723152
   4.4202657  46.9590187  47.3388138   3.1582015  47.7140846  47.6966629
  78.2486267  32.2035103  84.1597595  77.6621475  31.5166092  84.4766769
  78.6204300  32.5864296  84.9543457  62.6774521  12.5751410  65.0930557
  63.2264862  12.5916586  65.8769684  61.8111992  12.8407974  65.4017029
  69.1709976  58.9820786  66.2564011  69.7741623  58.5106049  66.8309784
  69.7326965  59.3673134  65.5838547  25.8339291  52.7105179   9.8338795
  26.5110226  53.1289215   9.3021688  25.0750408  53.2882957   9.7533236
  80.6019287  33.8741684  83.0112381  79.9801788  34.3389969  83.5712280
  81.3342819  33.6629677  83.5902710  68.7511139  17.3504734   9.3612137
  68.6187592  16.4347801   9.1158171  68.3503418  17.4267139  10.2271242
  85.6469498  17.3577652   5.2090559  86.3283997  16.7972984   5.5801759
  85.5459213  18.0654736   5.8455896  74.8871078  23.2996216  71.0620880
  75.1448212  23.2834892  70.1403732  74.9917679  24.2143021  71.3240738
  78.0062637   9.4374809  51.4033623  77.6548538   8.8198576  50.7620468
  78.3843307  10.1411676  50.8759918  -0.0792884  56.1937180   4.3969212
  -0.3481081  55.7300758   3.6038239   0.6857224  55.7105141   4.7091732
   6.7116199  52.2342415  31.3834476   6.1443200  51.6598167  30.8692112
   6.7774086  51.8048210  32.2363853  62.5322990  24.3265820  23.8477230
  62.6635132  24.3057995  24.7956600  62.5363121  25.2576752  23.6257286
  14.2362747  68.3617096  34.9024162  14.6929531  68.5908432  34.0929871
  14.8386774  67.7747345  35.3593636  41.9591141  67.4850922  70.1233139
  41.6990738  66.6691284  69.6957474  42.3584747  67.2068863  70.9475403
  53.5629311  15.3574057  44.0026894  53.6943893  14.4899540  43.6199646
  54.0992813  15.9401522  43.4651375  45.3402290  70.4406204  31.5712223
  46.0152740  71.1192474  31.5682430  44.5945663  70.8464508  32.0133972
  59.9805260   8.0979853  73.4183044  59.8377457   7.7011485  74.2775879
  59.1213570   8.0727634  72.9970856  86.6284027  38.1223755  63.5576859
  86.2478561  38.2658157  64.4242020  86.9595642  37.2247696  63.5871277
  81.0569000  29.1906033  30.4959984  80.5787964  28.4451180  30.8591709
  81.3629913  29.6752758  31.2625713  44.2129478  47.7720451  22.1354027
  43.8168640  47.8803291  23.0000553  43.6304436  48.2483673  21.5437641
  81.2456436  62.5473289  64.8090668  81.6696777  62.5680046  63.9511681
  80.3700409  62.2019043  64.6351929  51.4942589   9.4359465  62.4125443
  51.4610367   9.7613621  61.5129700  50.5982132   9.5319386  62.7352142
  43.0352707  46.3522148   1.1023135  43.9704018  46.1887093   1.2249156
  42.7584991  46.7793121   1.9130027  25.4384823  61.4613953  68.5165176
  25.0597515  62.0559845  67.8690186  26.3603954  61.3927650  68.2683258
  13.3430662  38.3877869  78.6994324  14.2728233  38.2920265  78.4929962
  13.3065548  38.3659706  79.6556854  10.3934202  38.9808044  75.9194260
   9.4657927  39.1277924  76.1041718  10.8540936  39.4940643  76.5831833
  78.0499344  18.0551529   3.1925130  77.3879623  17.9837170   3.8802044
  78.4390564  17.1820164   3.1430025  78.4371490  22.6438236  43.8225403
  78.1893311  22.0158653  44.5011330  77.6343079  22.7829304  43.3202248
  13.6112480  47.4984207  79.3186722  13.1261559  47.5171738  80.1436386
  12.9489899  47.6636429  78.6475906  50.2141495  42.3257751  60.5516052
  49.8950424  43.2175140  60.6901894  51.1608429  42.4233627  60.4492493
  55.5560913  45.8398323   8.8080187  54.8959122  45.9568100   9.4911833
  55.0647163  45.5161896   8.0530100  60.3427086  35.4966354  19.9883308
  59.6769333  36.0130081  20.4425735  59.8455696  34.9338341  19.3947506
  66.1923981  34.6034317   6.2988205  65.9825745  35.1566963   5.5464211
  66.7471848  35.1526756   6.8526921  21.2349434  16.0027046  47.6586494
  21.0985107  16.3270454  46.7684708  22.1860409  15.9434023  47.7488174
   7.6899090  15.1621456  84.7802887   8.3028717  14.4380722  84.9076767
   8.2217388  15.9494562  84.8966141  18.1075687  34.9306984  15.5245628
  18.5637856  34.0892334  15.5304613  18.7334919  35.5397644  15.1327763
   4.9196091  32.9508553  42.2384415   5.5897851  33.1114235  41.5741272
   5.2055526  32.1503639  42.6785355  75.5097580  55.3051262  15.0700645
  76.1517715  54.5954018  15.0886698  75.6055145  55.7370300  15.9188986
  24.4445801   2.1827528  27.2142296  24.9023952   1.3481387  27.3145161
  25.1143951   2.8452213  27.3836823  34.9063492  45.6556206  32.2821846
  34.6734161  46.1584015  33.0626869  34.2079124  45.8474960  31.6564045
   9.9297066   7.2680326  78.0193100   9.9083652   8.0391026  78.5860825
  10.3187504   6.5823936  78.5622406  41.0590363  18.2509460  65.9334488
  41.0387344  17.3073158  66.0927734  40.6466980  18.6335354  66.7079391
   6.5271492  17.0590115  13.1930799   5.7422276  16.5382252  13.3631105
   6.4861012  17.2555351  12.2571716  12.8677721  14.6908312  11.3227711
  12.0738325  15.1649761  11.5699110  13.2629385  14.4346390  12.1561031
  46.3335342   3.5146871   6.2428699  46.6586189   3.2841086   7.1131492
  45.4433060   3.1637511   6.2189932  72.0150757  38.8970718   4.8589964
  72.7350235  39.5137825   4.7264333  71.3925323  39.3706703   5.4106998
  10.6897249  40.9949417   2.8711076  10.4182587  40.2766838   2.2995813
  10.9062366  40.5713654   3.7017317  46.2399101  28.9176769  39.3090820
  46.3415642  28.1873436  39.9194221  47.1104126  29.3128681  39.2613564
  18.7662468  16.7261868  29.2945309  18.5158463  16.3816128  28.4373264
  19.7161083  16.6132946  29.3298950  63.7445030  45.3824272  83.5224380
  64.4007339  44.8972473  84.0226364  64.0724258  45.3714333  82.6232300
  84.8697510  52.1471672  56.3550835  85.3745728  51.4887238  55.8777618
  84.6462784  52.8028755  55.6945229   8.7967443  69.3079681  32.1853104
   8.6387367  70.0714188  31.6299686   9.7150593  69.3858261  32.4438972
  56.9411049  62.0175400  63.2965813  56.9100227  61.3676376  62.5945168
  57.1066093  62.8468361  62.8481293  55.8021126  13.3808851  11.9208441
  55.5656433  12.4938545  12.1919365  56.7543793  13.4134188  12.0122509
  76.4399643  59.1473961  52.1295471  77.2146759  59.2909279  52.6731110
  75.7105255  59.1402054  52.7492981  51.5745430   8.1579113  49.6600266
  51.1069946   8.1434021  50.4951439  52.1526299   8.9182806  49.7223587
  53.5088882  58.1016884  11.2214451  53.2164917  57.2179222  11.4443626
  53.3717651  58.1681061  10.2764492  12.2370100  51.2137146  88.1764679
  12.6244488  52.0889702  88.1691971  11.6320343  51.2134171  87.4346848
  45.1954041  67.8593674  83.3347855  45.6603622  67.0453568  83.1412964
  44.8312378  68.1331100  82.4929581  47.6083717  47.4250221  34.4390678
  48.5030327  47.1567001  34.2297516  47.2645607  47.7744331  33.6169167
  63.4087029  56.2196617  51.2796593  63.9393654  56.0762367  50.4960403
  62.9463005  55.3918533  51.4105988  16.1735649  30.6460896  14.9307852
  16.0308990  30.0939770  14.1619873  16.5315914  31.4605484  14.5776482
  13.6292601   5.0902300   2.6946099  14.2275743   5.6474938   2.1969063
  12.9476852   4.8500137   2.0669286  14.0011692  57.8155899  46.0966454
  13.9476023  58.7417793  45.8609772  14.8893824  57.5569000  45.8509026
   2.5967057  37.5143204  54.0255890   2.6948309  36.5954323  53.7760925
   3.3002923  37.9655952  53.5591698  46.5010185  60.8121185  24.6275349
  46.6300468  60.4956932  25.5216579  46.2705650  61.7353706  24.7311172
  24.8065052   7.0697527  20.5331764  25.4671059   7.7530704  20.4195309
  24.1285172   7.4790978  21.0707664  -0.2916385  50.7881279  54.3612328
  -0.2374821  50.3288956  53.5231361   0.6092100  51.0521317  54.5483322
   0.5851172  48.1516914  80.0122375   0.8736506  47.2509232  80.1592102
  -0.2514438  48.2134705  80.4733047  11.7681570  36.5657272  77.3793869
  10.8954763  36.6724014  77.7579117  12.2437363  37.3515587  77.6487045
   3.0588191  43.8844795  74.1002426   3.8232560  43.8280792  73.5269318
   3.1168399  44.7560234  74.4917526  36.6757164  20.9943562   9.9437923
  36.0103416  21.5744152   9.5735979  36.1760674  20.3145180  10.3958998
  55.0157928  12.0665216  67.3612518  54.7004204  11.8476906  66.4843979
  55.8732338  11.6450586  67.4195023  55.1506615   0.2977678  61.9127388
  55.8368835  -0.3669385  61.9718552  54.8198624   0.3807050  62.8071251
  23.9521904  68.1377869  53.2836227  23.1302204  67.7763290  52.9520454
  24.5873337  67.4304886  53.1715889  15.2491741  55.4679565   2.3952343
  14.2970562  55.3709946   2.3778832  15.5775080  54.6885490   1.9469543
  57.0002556  65.4563522  71.3827896  57.3079720  64.5526352  71.3132172
  56.0954437  65.4258804  71.0719452  17.5520344  52.8879738  86.9944687
  17.8099098  53.0355225  87.9043884  17.6215858  53.7494698  86.5831070
  29.1982975  34.5145149   6.2670732  30.1330853  34.3091621   6.2517047
  28.8036346  33.8790703   5.6698427  50.2561951  37.1030235  17.0399036
  49.6806831  36.8151283  17.7485180  50.7161789  36.3090591  16.7673779
  32.6837883  53.6397476  31.5211449  31.9720402  54.0472527  31.0276031
  32.6010666  54.0013618  32.4035416  27.4245567  52.6412773  61.5385513
  26.9065742  53.2129707  62.1052017  27.5025768  53.1256180  60.7166290
  66.1969376  44.0834961  59.0766945  66.8997955  43.4400253  58.9863052
  66.3940201  44.7478142  58.4163399  70.3324814  57.9786491  11.2791786
  70.7684555  57.1487198  11.0858555  69.5968018  57.7373238  11.8419933
  18.5696278   6.1526980  19.9498653  17.9668694   5.9865766  20.6746540
  18.2288837   6.9432631  19.5313759  78.9913101   0.4328544  69.3787308
  79.7225571  -0.0284153  69.7895126  79.0434570   1.3228526  69.7271805
  20.6292191  49.3094444  54.7144775  21.4412327  49.4030457  54.2163773
  20.7942066  48.5749512  55.3056870  24.5885296  27.5819778  10.5340471
  23.9385872  27.4714165  11.2280073  25.4311638  27.4811268  10.9768000
  72.6111603  41.4339371  77.9790955  71.9992142  42.0908699  77.6471329
  72.1139221  40.9578552  78.6441803  50.8172684  38.4785614  21.5179443
  51.5416908  37.8571663  21.4450550  50.0369377  37.9291382  21.5917511
  79.6488495  27.4427643  37.8890343  78.7536316  27.1387196  37.7394295
  80.1697693  26.9890423  37.2264595  35.6823235  64.4072113  59.4365616
  34.9447784  63.8625679  59.1615715  36.2331886  63.8205185  59.9548035
  34.5954018  18.8280945  77.4293213  34.7682724  19.7622471  77.3122482
  34.0149307  18.7853260  78.1892242   3.6463602  11.8313084   4.5523586
   3.6093519  11.1740704   5.2472692   3.7227786  12.6655121   5.0154953
  69.3720245  67.1872711   0.6714483  68.6449203  67.4270935   1.2459410
  69.7988586  66.4560089   1.1178715  78.8879242  18.1091290  88.1425247
  79.4468079  17.5907726  88.7214737  79.1710358  19.0127583  88.2822800
  39.0829926  26.7136860  66.9530716  38.2842369  26.2393913  67.1838608
  39.1918373  27.3553104  67.6549988  62.8845673  27.6485844  51.6279335
  62.2412682  26.9523010  51.4953156  62.6794739  28.0025024  52.4933319
  59.6252327  70.7512894  20.7002335  60.4786453  70.7288132  20.2673264
  59.5055084  69.8644028  21.0398483  10.1274729  46.0593338  59.2364769
  10.6167698  46.8387527  59.4997749   9.8435631  46.2457352  58.3415565
  67.5550766   4.4713759  16.8208046  67.2823639   3.5612624  16.9372177
  67.7627029   4.5418839  15.8890562  65.5686874  35.7245674   4.0331984
  64.9330902  35.3838730   3.4037745  65.4300003  36.6716309   4.0248585
  70.1500320  57.6073570  68.7823944  70.0262756  56.7520638  68.3708267
  70.9681320  57.5215073  69.2718582  84.3743439  20.1432781  60.3228722
  85.1568146  20.6797504  60.1957436  84.4306412  19.8492622  61.2320595
  17.1508541  67.4143524   6.3029532  16.2494717  67.0941315   6.2682714
  17.6513710  66.7764969   5.7941675  80.3850174  18.6858330  57.1312866
  79.5997162  19.1507988  56.8425903  81.0187531  18.8263264  56.4278183
  51.0532722  58.3865318  44.0667572  51.7265320  58.0661659  43.4664917
  51.0984650  57.7928391  44.8162346  52.0264854   7.4581022  64.3254166
  51.2700348   7.4210439  64.9107742  51.7954712   8.1235886  63.6773491
  72.6084747  42.5210304  51.3781815  72.5367737  41.8037453  50.7484283
  72.6613617  42.0875359  52.2299538  64.5989075  68.1715698  40.3140793
  65.2042694  68.8856201  40.1143303  63.7721481  68.6085587  40.5183716
  50.7118454  49.4147224  76.2570038  50.9686394  48.9942665  75.4363327
  51.4187431  50.0334625  76.4405518  86.4459457  54.4980316  78.1571274
  86.4801025  54.9280434  77.3026428  87.0608673  54.9925957  78.6988983
  26.8323898  58.2407036  50.5451508  26.7958355  59.0895882  50.1043663
  26.9732780  57.6100311  49.8390083  62.2361832  53.0235176  21.1521797
  62.8244209  53.6746407  21.5346031  62.2657204  52.2864571  21.7621822
   5.3549042  39.2106247  14.9117050   6.1689234  39.5157814  15.3123083
   5.3944902  38.2570801  14.9853382  12.4944258  40.5895615  27.9634552
  13.4331656  40.7210007  28.0965805  12.1750984  41.4377823  27.6555901
  58.7337608  24.9164333  44.1678314  58.1742859  24.3659611  43.6199265
  59.6229401  24.7278156  43.8678093  17.1728687  49.4396248  46.1236839
  17.4428787  49.8464508  45.3003845  16.7782593  50.1530266  46.6252556
  10.8396282  43.5088043  43.1175537  10.3969908  42.9447899  42.4833679
  10.1430025  43.8010216  43.7053947  55.1403542  36.4779625  11.7600622
  54.8287582  37.3742065  11.8861046  55.4987144  36.2270164  12.6114359
  49.5631523  17.4394035  71.9826965  50.0620232  17.4952450  72.7977066
  49.4938240  16.5008106  71.8081436  74.1708145  35.3102493  32.8696671
  74.0863724  34.9668846  31.9801712  73.3537979  35.0605202  33.3013649
  33.1732140  28.8781471  82.4334641  32.4481125  29.3081112  81.9800491
  33.9478073  29.3765163  82.1729584  86.9562302  53.4016953  28.2049599
  87.0182648  53.5339127  27.2589684  86.0886459  53.7330780  28.4367313
  70.7701797  53.6327400  76.3828049  69.9700851  53.8402596  76.8655167
  71.2284546  53.0023079  76.9384689  50.1140404  28.7814102  52.9184418
  49.3399200  28.2565479  53.1221428  50.5917282  28.8349228  53.7461967
  83.5060196   6.9136300  73.9374008  84.0402222   7.7078948  73.9342499
  82.6367798   7.2085314  73.6659622  69.6524277  17.6032524  74.1524887
  68.9644394  16.9447575  74.2488556  70.0628281  17.3996258  73.3120422
  58.1151466  68.1002350  63.5008202  58.4366035  68.3564377  62.6363792
  57.3405418  67.5677109  63.3201523   9.1976614  44.9818535   1.3776218
   8.9246845  44.7592316   0.4875916   9.5565538  44.1669960   1.7289563
  55.7823563  70.0313873  85.4526825  55.3297997  70.2619095  86.2640305
  56.1167412  70.8642807  85.1199722  19.5096684  32.4117126  86.1875000
  19.2943649  31.7054482  86.7966537  20.4584656  32.5127792  86.2636719
  83.8460770  15.5281963  74.1649399  83.1141968  14.9815741  74.4509354
  84.0064545  16.1182022  74.9014206   5.4865656  47.8657913  68.7043839
   5.3185129  47.4618111  67.8530426   4.8787260  47.4289207  69.3009644
  23.4637165  67.3193054  13.5452347  22.7358017  67.9297256  13.4279184
  24.1255913  67.8238754  14.0180569  48.0455284   0.7159515  24.7347374
  47.9685173   0.4887969  23.8080769  48.3111153  -0.0994543  25.1599522
  68.3635559  66.3496857  78.6010971  68.5931549  65.6266022  78.0174255
  68.5912094  67.1375198  78.1074142  79.9737549  64.7596359  49.6608353
  79.0716171  64.9004898  49.9481354  79.9818726  65.0465469  48.7476845
  77.5523987  29.6737728  86.1843185  77.6923141  28.7310715  86.0950470
  76.9355545  29.7565460  86.9115677   7.1964545  46.2286034  82.8722153
   6.9732695  46.5498161  81.9985809   6.7297921  46.8136978  83.4689789
  63.5442085  33.2013168  26.0981159  63.7266159  33.0519257  25.1704082
  63.0478783  34.0195885  26.1158867   6.0287409  36.1576080   2.5928559
   5.3330908  36.5076447   3.1494336   6.6651325  36.8697166   2.5285058
  83.3644714  30.5448952  68.2989807  82.4754639  30.8824863  68.4081802
  83.2781219  29.5992908  68.4198380  31.0126362  65.6056519  17.5597172
  30.9165440  66.4367905  18.0246906  30.2125359  65.1221924  17.7654877
  13.3502960  11.7160025  85.7963867  13.2934465  12.2421579  84.9987946
  13.9002247  12.2325897  86.3854141  66.9003143  61.5025635  44.6608849
  67.0958786  60.5842400  44.8470650  66.1885986  61.7225151  45.2619858
  35.8925247  27.2697239  67.7859955  36.4120941  26.4661808  67.7615509
  35.1738930  27.1089745  67.1744766  14.9277487  54.5859833  38.5788651
  14.0301857  54.2978935  38.4126816  14.8732147  55.5414658  38.5965881
  41.6475983  36.4238167  71.2923355  40.8944359  36.8382912  71.7132721
  41.3193054  35.5748291  70.9962387  56.9966278  65.7211075  46.5124016
  56.4420700  66.4293594  46.1851692  57.2180824  65.9836197  47.4058647
  41.8284721  43.6689339  35.8872337  40.9150581  43.5427284  36.1441002
  42.2536850  44.0096970  36.6741943  58.4304771  42.2603340   7.9652634
  59.3503647  42.1637535   8.2116671  58.0253525  42.6930084   8.7168617
  25.5775681  56.8425446  41.8566284  25.5583553  56.7173653  42.8054161
  24.6710930  56.7100792  41.5791626  85.9537964  11.5729980  36.2941055
  86.5563507  11.7914801  35.5831718  86.2944717  12.0488434  37.0515633
   4.1607046  41.8039970  52.8721466   3.8341670  42.6848373  52.6885033
   4.4081035  41.4567604  52.0151443   4.6494641  33.8731842   1.8755546
   5.1493793  34.6833801   1.9750569   4.1390882  33.8060265   2.6825476
  82.9903870  63.2385941  28.3205700  83.2444687  63.8850975  28.9791374
  83.7733841  62.7020226  28.1971092  59.9518661   8.6530533  29.6381226
  59.0923080   9.0731096  29.6073112  60.5558701   9.3599243  29.8655891
  71.2558212  50.8283501  14.4185514  71.2358932  50.3167305  15.2273045
  72.1864166  50.9814262  14.2548447  77.3829651  30.6881809  56.3987160
  77.7412338  30.0015659  56.9612427  77.3879089  31.4732723  56.9462891
  34.2943115  62.3855019  78.4038467  33.6165619  61.7098732  78.3834763
  33.9158630  63.1190720  77.9191971  15.3201485  60.7393837   2.8684952
  15.2148924  60.7137146   1.9174463  15.7638502  59.9187012   3.0825996
  44.6616287  67.2636261   5.7282109  44.3253136  66.8264923   6.5105400
  45.1473389  66.5823288   5.2632856  18.8763714  30.5525265  70.9313354
  18.8906174  29.9036121  71.6348572  17.9530106  30.6229362  70.6891022
   9.4950914  71.0655975   6.6736393   9.3724766  72.0127411   6.7377906
   9.1594896  70.7239685   7.5024266  26.6727238  63.7609634  18.7173176
  27.2580109  63.6377449  19.4646378  26.5376835  64.7075195  18.6723690
  67.0345535  68.7216644  46.0817490  67.4775848  68.6940231  45.2336998
  66.1724472  69.0905991  45.8896904  25.1854706  48.5533104  54.5958443
  25.2486744  48.1204338  55.4472275  25.9412231  48.2294197  54.1057816
  11.0172844  39.4805679  29.9053745  11.6068478  39.5923538  29.1596184
  10.5107536  40.2922592  29.9340210   7.5128083   7.2409468   9.3232508
   8.3569794   7.6805649   9.4249496   7.3680086   6.8034177  10.1621981
   1.0768700  37.2319794  20.2191391   1.2085128  37.0304184  21.1455688
   1.6522701  36.6222229  19.7572460  13.8575497  24.4142056  56.4766388
  12.9386415  24.3457317  56.2175064  14.0456514  25.3522568  56.4464607
  68.4474030  15.2195282   0.0785335  68.4386597  14.5199442   0.7317845
  69.2425003  15.7166710   0.2706249   9.6412086  66.4350204  29.8904762
  10.1582460  66.3404236  30.6904507   8.7452555  66.5704117  30.1989708
  45.6425896  33.9070969  45.7034149  46.0891380  33.0699654  45.8300476
  45.7221603  34.0815506  44.7656174  78.0049591  71.3325272  64.3304977
  77.3211288  70.7581253  63.9860153  78.1100845  71.0598526  65.2419968
  52.2417068  16.7198296  38.4275589  52.2462273  16.4267139  37.5163536
  51.4756050  17.2900677  38.4919281  27.1376801  41.6877327  87.9265289
  26.5908489  42.4725609  87.9618912  27.0889034  41.4027443  87.0140381
  77.9062805  10.0441933  81.4940109  77.6506271  10.5742598  82.2489319
  77.1491852   9.4824009  81.3283997   1.1492158  16.9000607  72.7735748
   1.1202931  16.4953041  71.9066467   0.2768466  16.7492676  73.1375351
  28.6766720   5.9181170  22.3340912  28.3613815   5.5666742  23.1667442
  28.0936604   5.5373940  21.6772976  45.8929253  47.0226974   7.7859411
  45.2932701  46.3065033   7.9950194  46.2191277  46.8141289   6.9105434
  52.4348793  38.8973541  27.5655365  53.1853218  38.5580101  28.0533028
  52.0809822  38.1340981  27.1089954   2.8840261  39.7274399   4.3704834
   2.3324664  39.8177223   3.5933974   3.4187329  40.5213280   4.3782220
  65.4582367  22.5489197  44.8093071  64.7512360  22.7402897  44.1930618
  66.2188416  22.3751640  44.2547607  85.3232651  50.8434868  12.7106323
  85.3405685  50.7390518  11.7593040  86.1609650  50.4867783  13.0060186
  40.4679909  34.4958153  28.5707016  39.5689545  34.2404099  28.3639908
  40.5568504  35.3761673  28.2055759  76.9529800  65.4343338  23.5603180
  76.2745209  65.1106949  22.9677086  77.2286301  66.2669373  23.1768913
   3.5305605  15.2550030  50.4474525   3.5137231  14.3471937  50.7504883
   2.6591251  15.5927401  50.6542511  68.8738403  59.3086281  39.0564880
  69.3605042  59.3691254  39.8785133  69.0853806  60.1188164  38.5927277
  76.6228943   3.4475412  82.6609039  77.1035233   4.0658503  82.1105118
  76.0385818   3.9964676  83.1838608  69.9320450  69.1501007   4.2168069
  68.9947586  69.1677780   4.0234060  70.3538666  69.1459656   3.3575711
  57.4050255   8.0009699  46.9943199  57.3509178   7.8609667  46.0489616
  57.6091537   8.9315128  47.0873413  69.0366745  36.0645981  26.0837116
  69.0774994  36.7606354  26.7395287  69.9111633  35.6754608  26.0927010
   4.1019001  70.8542252  18.6324558   4.4527435  70.2981720  17.9367943
   4.0727510  70.2855453  19.4018650  40.4423752   2.8282042  51.9960556
  40.2018547   3.7395899  51.8294487  40.1469841   2.6623533  52.8913040
  78.5922546  45.7211800  68.9424133  79.4636307  45.4225273  69.2026901
  78.5023575  46.5822906  69.3506241   0.0153840  15.1501608  18.6399345
   0.7942298  15.1567392  18.0835285   0.1537580  14.4148846  19.2369709
  27.4887295  62.0090675  63.1469536  27.2643147  62.9269829  62.9943047
  26.9115982  61.5205917  62.5599785  73.0996475  27.3690434  71.7472534
  72.7364883  28.2236977  71.9794388  74.0000763  27.3954792  72.0709229
  33.1696701  69.7963257  87.7154465  32.6095428  70.4898224  88.0640945
  34.0612907  70.1027527  87.8808212  57.0401154  69.9426956  34.0238113
  56.8334389  70.6074600  34.6807747  56.1887932  69.6759949  33.6768837
  30.2992611  57.2375336  82.1631699  30.7914505  57.0843582  82.9697113
  29.4118900  57.4407043  82.4590149  73.7279663  56.8699989  43.1822968
  73.9707184  56.1863632  43.8067513  73.0571594  56.4649963  42.6325493
  60.0779877  58.0648346  39.4631882  60.1693687  57.9477158  38.5175858
  59.3393974  58.6659813  39.5598030  51.0102501  19.0328903   3.3952837
  50.3196106  19.6831646   3.2672534  51.8246002  19.5298061   3.3169370
  80.4983902  70.2132187  81.9896774  81.1531448  70.4087143  81.3193741
  80.2155609  71.0713425  82.3057098  19.1277542  26.0864315  70.7186432
  18.8697643  26.9405594  71.0652542  19.1686611  26.2149372  69.7709961
  17.6815968  33.5445557  18.0240231  18.1072540  33.9644623  18.7715015
  17.8144913  34.1549225  17.2987499  27.7789650  30.6267452  75.1408539
  26.8493881  30.6331902  74.9126434  28.2275944  30.4539299  74.3131409
  17.3871689  57.4262848  44.3743477  18.2132740  56.9555588  44.4848099
  17.0275993  57.0896912  43.5535889  41.5749779  71.4233551  24.1660080
  42.4320412  71.8448257  24.1024742  41.6978378  70.7267761  24.8109207
  82.6921844  70.9839020  35.4585037  81.7777023  70.8005219  35.2432785
  82.9807510  71.5928802  34.7787209  13.7405920  65.9005737  19.7476692
  13.8105173  65.8338394  18.7953606  14.3416471  65.2334976  20.0792904
  27.8708134   0.6496358   2.4187226  26.9605446   0.3667322   2.5059590
  28.3818111  -0.1537026   2.5175114  57.0041962  62.0552216  21.1503315
  57.3896141  61.9306793  20.2830524  56.0773392  61.8470802  21.0326691
   8.0220490  63.8090668  70.9768753   8.8737955  64.2238159  71.1137924
   7.8471866  63.3451004  71.7956467   5.3334422  36.5618515  85.6864700
   5.7490196  36.6990852  86.5377655   4.4812284  36.9907379  85.7640533
  86.5555496  47.6615677  39.0359421  87.2415390  48.1129456  39.5277863
  85.7672882  47.7723656  39.5675392  53.8203163  66.6856842  88.7556992
  53.3132858  66.6852493  89.5675812  53.6761475  65.8159714  88.3828125
  19.6415062  23.3799248  88.5601196  19.8483963  23.1343613  87.6583786
  20.1388111  24.1840458  88.7094803  52.6378021  16.9072056  20.7323093
  52.2267799  16.0428143  20.7212715  51.9280777  17.5126476  20.5179195
  63.3632698  29.2211723  19.7723923  63.8219299  29.9689655  19.3894176
  63.9734306  28.4901848  19.6744442   2.9588239  13.0616169  88.5246048
   2.7657046  13.9131975  88.1324997   3.1862140  12.5020533  87.7820282
  53.3932762  71.1332397  34.4512405  52.4778633  71.1828842  34.1759491
  53.6157417  72.0287552  34.7057838  68.3190460  19.2540493  14.3949766
  67.4215088  19.3363781  14.7172709  68.6820984  18.5152225  14.8834028
  63.4789352  27.0866814  68.8530045  63.2607536  28.0165615  68.9158630
  64.0709610  27.0297432  68.1030045  83.1181793  37.0018883  42.7641220
  83.0424500  36.2250748  43.3182487  82.2674866  37.0708084  42.3307533
  56.6791534   0.4374495  46.4001541  56.9886284  -0.2226564  47.0204086
  57.2996826   1.1606357  46.4905663  14.3290749  46.6260071  39.8989754
  13.6178894  47.1783981  40.2234917  13.9036045  46.0189285  39.2934494
  37.5280151   4.2114835  76.0545197  37.5984497   3.4897797  76.6793518
  37.6058159   5.0007496  76.5904694  83.1474915   3.9834819  47.5049477
  83.5999146   3.2691844  47.0562515  83.7366867   4.7327404  47.4172020
  85.9738922  40.3648300  26.3840256  86.4435120  39.5539169  26.1888084
  86.3140182  40.6395302  27.2355461  40.0766029  47.6804428  21.3998337
  40.5272331  48.5103111  21.2433586  40.1248474  47.2200127  20.5620346
  51.9013596  10.7076960  59.8660545  51.7321205  10.4047880  58.9739571
  51.8162651  11.6597862  59.8159103  50.2837715   8.7289810  43.5074997
  49.4547882   8.2838259  43.6831398  50.7327728   8.1608572  42.8815041
  25.0906811  42.2227135   7.6776733  24.9486637  43.0792313   8.0807104
  24.7607822  41.5969238   8.3224907  17.6125164  11.4070396   7.6057682
  16.8901825  10.7813129   7.6599216  17.5193214  11.8061514   6.7407503
  68.6719284  46.2825890  32.8064079  68.7848587  46.2660027  31.8560371
  68.4231339  45.3866730  33.0337143  73.1433563  63.8555374   2.7047267
  73.8283310  63.5861702   2.0927777  73.5918045  64.4233627   3.3313832
  59.7819138  14.9705257  32.6595345  59.3864365  14.2571783  33.1604996
  59.0398254  15.5054626  32.3777924  66.6481476  10.3480854  33.5730591
  66.4624634  11.2866602  33.6018906  65.7964706   9.9401321  33.4167061
  70.7761459   5.7057185  32.6092682  69.9801636   5.4488797  33.0747528
  70.4617004   6.0883346  31.7901478  61.0853691  30.6122837  42.7291336
  60.4965477  30.4416370  41.9940109  61.3954277  31.5063477  42.5851059
  43.9881172  26.7232227  19.8151131  44.3792992  27.1932812  19.0787334
  44.4069214  25.8626461  19.7995892  76.3626099  10.2226238  20.6985359
  76.4041901  10.9782057  21.2847080  76.1699066  10.5967655  19.8388176
  71.6948853  56.5656357  76.3173904  70.8661652  57.0301819  76.2005615
  71.4778061  55.6461639  76.1635284  14.9928770  56.5509377  71.7992020
  15.1464901  56.2450829  70.9052811  15.6037712  56.0440407  72.3340759
  20.4688053  50.0867767  12.2193470  20.8932781  49.8248901  13.0363350
  20.5079346  51.0431595  12.2249680   1.6628891  41.5569115  18.5867596
   1.0259736  41.7344666  19.2788906   2.4917357  41.4345131  19.0496464
  60.5562973   4.4505548  26.1928806  61.3875580   4.9250479  26.1833744
  60.4864311   4.1076312  27.0838089  29.8585072  50.1466713  37.2917099
  29.5727024  49.9075356  36.4100266  29.8372498  51.1036072  37.2990799
  38.3617058  25.3126564  10.4873991  37.8946724  24.5493183  10.8271475
  38.2808380  25.2392216   9.5364523  54.8839912  26.5740108  26.0061283
  53.9918060  26.8081741  26.2618694  55.3285103  27.4139328  25.8913822
  70.4971313  42.4784966  14.4781036  70.1699066  43.3617249  14.3076210
  69.8877487  41.9037476  14.0149088  67.6644135   4.5792899  72.4048615
  66.7373505   4.4419794  72.5996246  67.8852310   5.3951926  72.8540573
  31.7526894  16.1137695  76.5110321  32.6907578  16.1382389  76.3221817
  31.4503059  17.0054169  76.3385239  31.2710915  49.6476746  65.5015793
  31.2922058  50.5405273  65.8459625  30.6568604  49.6881561  64.7685699
  83.4224396  41.6706505   9.1219521  84.3178024  41.4244385   9.3541937
  82.8914413  40.9189606   9.3850718  41.3048592  64.1726227  14.8503723
  42.0838890  64.7114563  14.7125301  41.5946922  63.4800072  15.4441051
  83.2243576  54.5944786  41.7904243  84.0514526  55.0759468  41.7719917
  83.4105301  53.7805786  41.3223000  30.8837681   3.3382876  44.9448204
  30.8450680   4.2929640  45.0025063  31.1076527   3.0536795  45.8308830
  53.2563095  49.1623688  62.3735313  52.8632317  48.2962952  62.2656403
  54.1989059  48.9968948  62.3925819  63.6331673  32.3478928  78.7387848
  64.0191727  32.0338058  77.9211197  62.7865715  31.9041672  78.7899475
  64.7371063  41.1705856  84.3933868  64.3470612  40.8307076  85.1987305
  65.1456375  41.9958000  84.6548309   8.8915415  68.9141006  69.1614304
   8.0814142  68.5335159  68.8221970   8.6341686  69.7784653  69.4821625
  72.3646698   4.8300653  40.9725609  71.9361954   4.0512233  41.3275986
  71.8470306   5.5620666  41.3079147  75.8195953  42.5247612  23.9165287
  76.1661377  42.8611107  24.7429733  76.5465622  42.6098404  23.2996693
  45.2345467  45.6787186  59.7577515  44.9639244  45.1341362  59.0185432
  44.6791916  45.3917351  60.4826317  54.9178276  39.6179352  16.5135250
  54.0213661  39.2841225  16.4795456  55.0595055  39.8303528  17.4360428
   3.9385490  39.9884720  31.7399311   4.0046453  39.8905334  30.7900505
   2.9974771  40.0093803  31.9136486  80.9706116  15.4645147  64.2120819
  80.7014847  15.4380941  63.2938766  80.1873016  15.7486439  64.6831741
  76.5446472  41.9987679  58.7346001  77.1207733  42.2607536  59.4527016
  77.0789566  41.4101448  58.2014236  77.0838318  66.0531311  19.5276432
  78.0138855  65.9961395  19.7467041  77.0558319  66.5993271  18.7420712
  64.1718597  63.8422508  15.4019499  64.7883606  63.4191475  14.8043356
  63.9634590  64.6759415  14.9803438  54.3725357  30.7779675  69.5867310
  53.8070869  30.0057278  69.5989151  55.1688194  30.4989223  70.0387268
  72.2017365  18.5180855   9.7316523  71.9013672  18.5600147   8.8237686
  72.2755814  19.4333363  10.0020142  69.8654327  60.5145645  30.1625443
  69.5906143  61.3944778  29.9047585  70.7158585  60.6427345  30.5827579
  26.3193474  46.8426704  47.8921051  27.0616493  47.4105721  47.6854515
  26.7181759  46.0394325  48.2267303  78.8785400  56.2565536  55.1353989
  78.2273865  55.7574692  55.6284943  79.5690460  56.4433937  55.7714157
  32.3652382  56.5990829  40.7560539  32.9390678  56.5914803  39.9899635
  32.3355026  55.6861115  41.0421066  66.5052338   0.4960690  44.7521248
  66.5238113   0.9800157  43.9264832  66.0814514  -0.3339619  44.5337448
   5.0847735  23.6300297  62.0250511   4.9079280  23.2344456  61.1715469
   5.5199184  24.4575653  61.8199539  65.2223892  54.0599937  60.1430092
  65.0066299  54.9826660  60.0075035  65.4721756  53.7424889  59.2752342
  58.4833031  47.3544731  17.6264133  59.0779381  46.6749725  17.9440975
  58.7140884  48.1317101  18.1352100  53.0892334  18.5053692  23.0265636
  52.7263260  18.0413170  23.7810059  52.8443413  17.9671631  22.2738380
  86.1451492  54.1433716  41.8024597  86.1229706  53.2157516  41.5673866
  86.4570694  54.1537476  42.7073517  65.9626160  41.7726669  21.1866798
  66.9166946  41.7231178  21.1273746  65.7745514  41.6627045  22.1187592
  80.6219940  39.8666344   1.2897775  81.2827606  39.5675964   0.6651243
  79.8408585  40.0185089   0.7577981  58.1987839  62.1087303  82.3738251
  58.9376411  61.7722244  82.8808594  57.4824142  61.5028610  82.5634689
  74.4592361  68.7257614   1.7993809  74.1463547  68.4655151   0.9330047
  74.7383423  67.9069672   2.2091553  65.6216125  66.1276855  16.1187286
  64.8311996  65.5936203  16.1978149  66.2505188  65.5601883  15.6730165
  79.2897339   1.4559958  40.3081627  79.6584015   2.2325709  39.8871574
  79.8838654   0.7463410  40.0639877  52.3340683  31.3117142  27.4127960
  52.8276711  31.5541801  28.1962471  52.9452477  31.4561081  26.6904106
  19.1032619  47.6553574  85.7855301  18.4750500  47.2644577  86.3927994
  19.3032551  46.9552155  85.1642151  81.2876358  10.4702578  59.7541885
  80.6878967  10.1194563  59.0957909  81.6830826   9.6960230  60.1547012
  28.2274704   2.2424698  23.0217304  27.5152149   1.7244703  23.3966980
  27.8880081   3.1372273  23.0015678   8.2003317  15.9049950  60.1123581
   8.1717834  15.4947958  60.9767380   7.5689163  16.6223469  60.1666985
   1.3621203  18.4754734   3.7382164   0.5442382  18.5857487   4.2231283
   1.0903639  18.1433849   2.8825893  25.1223469  68.8157959  14.9343138
  25.2092724  68.9505310  15.8779888  25.1817284  69.6949387  14.5603819
  29.2478027  16.3668652   2.6308784  30.0018597  16.7228832   3.1008599
  28.4900932  16.7760983   3.0487723  46.5692062  40.2143364  34.8271713
  46.8508873  40.4311142  35.7159309  46.9336281  40.9127045  34.2833786
  46.5428352  14.7778196  38.8721886  47.3108444  14.4307051  39.3259544
  46.6138382  14.4321947  37.9823914  48.7551956  34.1228638   1.8231038
  48.2436905  33.5085526   2.3496180  49.5489464  34.2747841   2.3360481
  57.7169609  44.3779259  41.6441917  57.4750900  45.0807228  41.0410233
  57.3581161  44.6524467  42.4880486  66.8570633  27.6522255  60.8328209
  67.7242737  27.3609142  61.1144676  66.4907532  28.0910530  61.6005974
  17.7511005  31.7384834  62.7338562  18.0860157  32.1710243  63.5193291
  17.9552402  30.8125229  62.8648415  85.4716492  39.0132027  77.5906982
  86.0236740  39.3323441  78.3045959  86.0894165  38.6676674  76.9463348
   9.0706234  25.7494240  15.2978992   8.5238304  24.9765377  15.4389439
   8.5289412  26.4825745  15.5899649  38.1490746  33.2911072  74.6065369
  38.7852592  32.6554222  74.9342575  37.8763924  32.9415131  73.7582016
   6.4628892  53.2370567   4.4385362   7.3164105  53.6611214   4.5274267
   6.1096516  53.5795097   3.6174510  51.7409630  36.9887466   7.8405457
  52.3102341  37.6481552   7.4438815  51.9572334  37.0150452   8.7726221
  81.6275253  50.0969048  77.9304428  82.0884247  50.9195786  78.0948029
  80.8512955  50.3526611  77.4321594  59.0415993  47.5100708  50.0253868
  59.5998039  46.7652512  49.8020439  59.3870087  47.8264313  50.8601570
  66.3629227  24.3702908  25.7127209  66.5028915  24.3882427  24.7659817
  67.2020645  24.0841370  26.0735226  51.7790642  44.7657356  39.3997116
  51.9752617  44.3692474  38.5508690  52.6193962  45.1086044  39.7038765
  69.4996338  36.4298439  35.5123215  68.6402893  36.0114174  35.4604645
  69.3699646  37.2928047  35.1189804  10.4994001  60.7541771  42.8553658
   9.7615690  60.6466789  42.2551308  11.1416645  61.2597771  42.3572693
  77.4127655  55.8552322  52.6800308  77.9754868  56.1826630  53.3817177
  76.6586685  56.4447823  52.6829567  25.8184071  53.1996498  19.8870487
  25.9822998  53.2886429  18.9481926  26.2033825  52.3543472  20.1183186
  75.3853760  43.2674294  19.9425926  75.0198288  42.5666809  20.4825554
  74.6237564  43.7724724  19.6578293  72.8773193  39.3982010  69.3961639
  73.4413147  40.1716003  69.3965378  72.4447327  39.4168167  70.2498398
   5.7064047  12.5004625   0.4068174   5.5462332  13.2421331  -0.1767079
   4.8638387  12.0490503   0.4572295  83.0658112  30.8212376  65.0043182
  82.9564209  29.9204044  64.6997375  83.2385025  30.7376976  65.9420929
  32.5111198  62.4237976  80.9740524  33.0535240  62.1540031  80.2329483
  31.9875031  63.1501617  80.6357498   2.6815665   5.2061195  77.8936310
   3.5201366   5.6236224  77.6968460   2.3328321   4.9543915  77.0384979
   0.7516627  32.7682800  65.3133621   1.6662298  33.0389252  65.3942947
   0.7687789  31.8215122  65.4532471  79.3066406  67.8909073  45.2625847
  78.7056351  67.3156586  44.7891808  79.7815399  68.3586349  44.5756111
  79.6205292  29.0608540  42.8437233  79.3405228  29.7568703  43.4381866
  78.8373718  28.5255356  42.7159348  20.7303829   7.5357585  17.7698612
  20.4725933   7.6677408  18.6821976  20.4988308   8.3561506  17.3344631
  29.5275249  54.5646477  31.7134895  28.6533241  54.5924339  32.1023788
  29.8443069  55.4660339  31.7716637  63.9680634  64.0814590  67.0240784
  64.1629333  63.1923141  67.3201904  64.6825790  64.2961960  66.4244232
  74.4009705  48.4256020  81.4159164  74.5640335  47.5740051  81.8214111
  73.6735992  48.7942238  81.9171906  56.4242325  59.4134254  26.2128048
  56.4839668  59.7973022  25.3379898  55.8476830  58.6571770  26.1036549
  31.3218689   6.3811479  88.8736343  30.5009174   6.5223317  89.3451614
  31.0990391   5.7514763  88.1880035  58.5326080  45.7072487  22.6280823
  58.7829323  44.7835655  22.6086464  57.6192513  45.7139511  22.3417759
  15.2872610  26.0055027   6.3168707  15.5423708  26.6902714   5.6986136
  15.6539097  25.2016373   5.9486318  63.8706474  20.8483391  46.2460976
  64.4285202  21.2577286  45.5847282  64.4515457  20.2446098  46.7090225
  10.0270081   7.2164764  14.7292614  10.0428247   7.6778154  15.5677996
  10.9237919   6.9032960  14.6112432  71.9908447  46.5200500  58.0017700
  72.8036652  46.5958214  57.5019608  71.5001373  45.8285637  57.5576134
  10.5776443  45.3007851  73.8951111   9.9885578  45.7105026  73.2615967
  10.7767344  45.9964180  74.5217590  24.7612762   4.1250343  49.5810471
  25.4054108   4.7797642  49.3115082  24.4143753   3.7778406  48.7592545
  77.9432831  65.6284790   7.8251939  78.2112045  66.2864151   7.1836510
  77.0176620  65.8127213   7.9849343  19.2841587  16.7896481  55.4194145
  18.5188255  16.4924450  55.9115181  19.4290218  16.1056061  54.7657051
  78.1682892  37.5056000  60.2028770  77.6632004  36.7589874  60.5248795
  78.1739578  37.3986015  59.2516937   6.3822994  36.7387314  24.8160553
   5.8397360  36.2484741  25.4337158   5.8400526  36.8176765  24.0312176
  26.7480602   4.7560172  17.6693211  26.0418758   5.3449063  17.4033432
  27.1965656   4.5357928  16.8528786  21.6179962  60.5274734  68.1344528
  22.1390800  61.3188248  68.2703476  22.0081310  59.8800278  68.7216873
  53.9227295  29.1471710  37.0193176  53.8797073  30.0413151  37.3582649
  53.0733376  29.0087547  36.6002579  58.5664101  50.2493706  63.9049606
  57.8694420  49.6134415  64.0663910  58.2473183  50.7730217  63.1699753
  30.3284454   5.0492225  86.6520691  30.1806240   4.9397383  85.7127075
  29.9653816   4.2558475  87.0457306  15.6488266  22.6089630  57.3152885
  15.1286392  23.2689342  56.8569489  15.1364994  22.4002666  58.0964394
   3.4647136  18.3095264  52.2179337   2.9826901  18.5716419  53.0022697
   2.7853127  18.0606441  51.5912743  15.9297743  40.9887047  74.5846252
  16.4588203  41.3476524  73.8722382  16.5673714  40.6044960  75.1863556
  12.6413689  44.3462486  84.3791275  11.8831768  43.7659950  84.4475555
  12.8002491  44.6395531  85.2763214  30.6566772  45.0616493  87.8997726
  31.0583477  45.4069862  87.1025085  31.2139359  45.3844795  88.6079178
  26.8318253  23.1849537  78.3201065  27.4808273  23.2897797  77.6243744
  27.3495216  23.1175594  79.1224060  57.4422569  42.4834023  10.7003889
  57.1397514  43.0127945  11.4382687  56.8752594  41.7122726  10.7104864
  19.2244148  63.7687531  35.3718376  18.6379662  64.4242020  34.9940796
  19.1858196  63.0325623  34.7612877   7.0208564  16.6603355   7.6976018
   7.8733726  16.5239315   8.1109324   6.9175968  15.9125004   7.1091199
  35.4189529   7.9174676   5.0172000  34.8766403   7.2472835   4.6012893
  36.2352104   7.4658909   5.2317481  74.7957077  55.0286789  56.5059319
  75.0647888  55.4549370  57.3196449  74.6617050  54.1124573  56.7484550
  14.4687223   3.1506617  13.5862846  13.9618092   3.3849618  14.3637009
  15.1797028   2.6034503  13.9198980  19.7391014  42.6635094  64.4479294
  19.1898460  42.9365234  65.1827850  19.3413048  43.0805511  63.6836815
  75.0950089  59.3792229  66.3377304  74.3987274  59.7847633  66.8544235
  75.6042328  60.1166687  66.0014343  44.5591736  23.4615097  11.1975060
  44.7914238  23.6208706  12.1123257  44.8889580  22.5813332  11.0164995
   7.2448916  37.8556747  43.1201477   7.2300439  36.9003487  43.1781044
   7.4516473  38.1463318  44.0084038  33.8225708   3.8529885  83.7599411
  33.5747757   2.9895530  83.4293213  34.7708969   3.8936493  83.6364288
  65.3790817  27.4187794  19.6804943  65.7002945  26.5237312  19.7897854
  66.1174164  27.9712353  19.9371872  64.0625839  35.0108795  82.6683884
  64.0516663  34.7871361  83.5990067  64.8068008  34.5244179  82.3138046
  43.6193542  69.1463699  36.9649353  44.4920502  69.1525192  37.3581200
  43.5922165  68.3369141  36.4547539   7.1199903  31.5532227  17.0073147
   7.7680068  32.1466331  17.3870125   6.2909255  31.8167362  17.4066200
  43.7029457  29.2866726  22.2517872  43.6150703  30.2395382  22.2754574
  42.9499664  28.9893188  21.7410641  17.6124306  38.6097488  41.1040306
  16.6932335  38.8710060  41.1592941  17.6824512  37.8549461  41.6884956
  76.6982727  18.3930569   5.6641388  75.8058548  18.2090225   5.9573083
  77.1231995  18.7897243   6.4246173  76.5464249  43.7915535  72.1946411
  76.5529480  44.7470016  72.2521667  77.0826111  43.5034637  72.9333878
  56.6363525  65.1753159  74.0686874  56.3573914  65.2192917  73.1540985
  57.5901985  65.1081161  74.0251923  77.7352295  30.8259239  76.6348572
  77.9703903  31.5052261  77.2668991  78.4744110  30.7977619  76.0273666
  11.4650888  31.4142780  65.7199249  11.5561018  30.8653679  64.9410477
  11.5680656  30.8080883  66.4535217  13.7210779  54.0539360  56.5217361
  13.3865261  54.9153900  56.2723274  14.6315165  54.0558205  56.2262230
  30.0399647  57.8811760  42.0734863  30.3503304  57.2292862  41.4450417
  30.7976379  58.4456291  42.2269707  73.4080811  69.1278381  68.9425735
  73.9312515  69.3000031  69.7254486  72.7824173  68.4567719  69.2154160
  14.8591938  34.4351501   1.1583257  14.8957510  33.9111443   1.9585205
  15.0259199  35.3311462   1.4509449  43.1648293  23.3695316   0.8485562
  43.5403442  24.2305889   0.6647084  42.4770432  23.5405941   1.4919260
  29.4715672  67.7629929  80.6671753  29.6576595  67.8982849  81.5963135
  28.5891857  67.3923492  80.6511307  53.8693275   4.6234903  62.0238647
  54.5620537   4.3036165  62.6018333  54.1712570   4.4022593  61.1428833
  62.1501884  24.0427532  35.7574005  61.6680641  23.5699081  35.0790138
  63.0632820  23.7886505  35.6235313  28.2599716  19.4650917  68.4680786
  27.9833832  18.6020756  68.1599655  28.1064816  20.0459690  67.7229309
  58.4403038   9.6703014  38.2646484  58.1889038   9.6153431  39.1866074
  59.1335106   9.0176268  38.1660995  68.9591751  36.0819092  43.2938004
  69.3500443  36.9539032  43.2383041  69.2866211  35.7247581  44.1193047
  45.1414986   8.4328585  41.6966972  45.0732079   7.8168874  42.4261818
  44.2992783   8.3656559  41.2468300   9.3826227  30.7268982  44.5731850
  10.2767591  30.9807701  44.8018799   8.9517794  30.5823784  45.4156342
  45.6978607   4.6652374  59.0571518  45.5252190   3.7976749  58.6914177
  45.3363571   5.2732801  58.4123001  55.3779030  49.5298576  74.1568985
  55.6990814  50.1647110  73.5165558  54.6307678  49.1133842  73.7272797
  55.0122337  29.9443054  15.2628679  55.3414345  29.2064018  15.7760515
  54.0907097  30.0167408  15.5114222   2.9960721  59.6389885  61.8090363
   2.4467683  59.7236443  61.0297203   3.2173867  60.5398407  62.0450821
  30.2175026  36.8361969  87.8511200  31.1369972  36.9313736  87.6027222
  30.2099037  36.1012459  88.4643326  37.8052750  45.1281052   2.5829775
  38.3197136  45.2844353   3.3749015  37.2872086  45.9253883   2.4726300
  23.5325127  43.8194580  39.4440460  23.5306091  44.5038872  40.1132126
  24.1775913  44.1146049  38.8013992  30.4839611  32.3041840  11.6049194
  30.3497486  31.4317303  11.2347221  30.8328934  32.8213272  10.8789444
  54.3859749  27.9545002  78.4478226  55.1129417  28.5757751  78.4898834
  53.7258186  28.3942261  77.9120331  11.4477425  59.6984787  71.1959076
  10.7507324  59.5819855  71.8415375  11.7219858  58.8081055  70.9762268
  17.5965481  43.7821465  42.4734192  17.5639057  42.8450432  42.2810478
  17.4985943  43.8350410  43.4241257  52.7265129  55.1726799  63.1366463
  53.4226837  55.5706520  63.6593323  52.7513275  54.2450180  63.3712959
  64.2133331  20.1632595  68.4439774  63.5781136  19.7924900  69.0565567
  64.9653625  20.3941517  68.9892960  77.4072876  35.9493294  25.0427361
  77.7980270  36.2393990  25.8670006  77.8595734  35.1308899  24.8382111
  79.6912231  33.2198639  72.0713348  79.1458130  32.4729614  71.8245773
  80.5223923  33.0685310  71.6213379  82.2176971  41.0854950  21.2713089
  81.8205185  41.3884850  22.0878143  82.1555862  41.8368301  20.6815071
  74.3079376  68.3257370  74.3332291  74.9966660  68.6713333  73.7653885
  73.8503723  69.1025620  74.6547852  72.6580887  16.8284912  83.9296417
  71.7015686  16.8253918  83.9655762  72.8627853  17.0232048  83.0150833
  82.2226181  57.3122787  78.2659912  83.1077728  57.5684166  78.5250702
  81.7576447  58.1409416  78.1504517  27.1301918  25.8786545  47.2430382
  27.7700710  25.2319622  47.5406532  26.6167164  25.4192905  46.5785370
  55.0741806   8.6301727  16.7430000  54.4989929   9.0928049  16.1336040
  55.8969612   8.5275822  16.2647324  56.1796913  35.2472725  76.5439301
  56.9066544  34.7327499  76.1931839  56.5082054  35.5905571  77.3748779
  55.5191040   6.8091369  60.4220505  55.9974823   6.0569768  60.7708244
  55.0295906   7.1497808  61.1707649  57.6863708  47.3582191  86.2479935
  57.0152321  47.3439827  86.9303360  57.2810707  47.8344307  85.5232925
  68.1279907  48.5702667  25.3018436  67.1711731  48.5702286  25.2746582
  68.3464127  49.1305237  26.0465832  42.1922264  12.4626703  18.8750114
  43.0789108  12.3675432  19.2228241  41.6952705  12.8584328  19.5909996
  46.5392570  20.8502884  82.3691406  47.4317780  20.8209991  82.7137756
  46.6498108  20.8595409  81.4183884  23.5620289  59.8968620   8.5464563
  23.8930340  59.0806122   8.9211636  23.7075253  60.5506554   9.2302818
  78.6441879  59.8455048  47.3410416  79.1682739  59.8327522  48.1419182
  78.2973709  58.9563751  47.2675819  26.8340206   6.9597111  11.0364084
  26.5588341   7.7223930  11.5451527  27.7905025   6.9912863  11.0558052
  78.5327301  21.1962204  46.2676086  77.7144699  20.7634430  46.5113029
  79.2105331  20.7070408  46.7339935  48.8220863  23.2351532  40.8862801
  49.2923355  23.1273441  40.0595551  49.4063644  22.8595772  41.5449104
   6.6869240  42.7105331  48.4055290   6.7919788  42.5712013  47.4643707
   7.3716969  42.1741028  48.8049774  60.1231461  29.7341042  17.4648724
  59.6855774  29.5644264  16.6306210  61.0568199  29.6808949  17.2607861
  84.1269379  12.2062607  39.4869843  83.6299133  12.5665922  40.2213936
  84.3008957  12.9597387  38.9228554  70.2434464   3.6274986  76.0375519
  71.1717224   3.6919017  75.8130875  70.2092667   2.9648347  76.7274399
   4.9905982  31.9343739   0.1304092   4.9634123  32.4826851   0.9145318
   5.9217272  31.8627281  -0.0795860  80.3882065  63.3151207  31.7148991
  80.5682983  62.8100700  32.5078201  80.3227463  62.6579361  31.0220394
  52.2699776  39.4169655   0.7409366  52.0904007  40.1653061   1.3101217
  52.7044487  38.7818565   1.3102375   7.9244728  29.3989563  27.2982445
   8.5613537  29.1548653  27.9698353   7.6098943  30.2615776  27.5687160
  34.6120720  10.2245111  13.1712961  35.2192459  10.9644918  13.1713629
  34.1324272  10.3083258  12.3471909  23.4369125  57.1134682   3.8933103
  22.6161976  57.0010834   3.4136958  23.2122784  56.9146729   4.8022943
  47.0472755  35.1428299  82.2516785  47.8734436  35.6051941  82.1106262
  46.4352188  35.5545425  81.6416702  35.7134514  48.3357887  24.3434944
  36.2393227  47.9793816  23.6274853  34.8369598  47.9800720  24.1970158
  19.0381603  33.3338814  64.5386429  18.4577599  34.0912514  64.6145096
  19.9033012  33.7103310  64.3772507  85.2886887  46.5982170  53.4495773
  85.6359787  45.8745613  52.9280930  85.8675156  46.6444550  54.2105293
  29.4264736  37.8184776   2.4852993  29.3052368  38.1069527   3.3899076
  28.5524197  37.8695145   2.0984454  53.9547195  49.3207817  49.0087814
  54.8165436  48.9562950  48.8071899  54.1285973  50.2333755  49.2393761
  59.9992867  62.6487579  61.7289848  59.2666664  63.2471848  61.8752098
  60.3184242  62.8701248  60.8541260  64.5053482   6.5745096  23.3221569
  64.0075684   7.3245888  23.6474686  65.3474960   6.9433088  23.0556927
  84.9357681   7.4325066  26.3289509  84.2939682   8.0847263  26.0480042
  84.4171524   6.6485634  26.5097904  14.3101416  55.0387573  42.1065559
  13.4882088  55.1853867  41.6384087  14.2722569  54.1208344  42.3752861
  41.4963684  57.2688065  66.5976562  42.1013489  56.5341301  66.4952774
  40.6817398  56.8678169  66.9006805  22.2053223  39.0264816  18.6666679
  21.4627552  38.5031052  18.3651695  22.9757881  38.5246811  18.4005661
  41.1221237  33.5618019  48.7892075  40.3379326  34.0609703  48.5609474
  41.8135643  33.9405251  48.2463379   0.3210368  56.6856155  75.1897430
   0.9115539  57.4370537  75.2432632  -0.0500928  56.7349167  74.3087921
  56.8585243   4.5219030  19.5132713  56.9899750   4.8398881  20.4064884
  55.9826279   4.8270998  19.2768536  51.0164490  29.8030853  57.5628319
  51.0841446  28.9084454  57.8964005  50.2850456  30.1849308  58.0480843
  46.8642349  32.7652779  36.1741600  46.5585785  33.1257973  35.3417969
  46.4149857  31.9234543  36.2499428  82.3289566  15.8492994  46.3064919
  82.4518814  15.9559269  45.3632240  83.1293411  16.2035923  46.6938972
  31.3894329  56.6120491  44.2327538  30.5404129  56.8597527  43.8666382
  31.4487400  55.6684914  44.0830345   4.9035969   1.1149231  20.3445950
   4.4414363   0.6839272  19.6256504   4.2088118   1.4946808  20.8824520
  51.7497559  67.2806396  53.6442184  51.7487450  66.3989868  53.2714958
  50.8245239  67.4832993  53.7824478  36.1548500  38.1513481  54.1947937
  36.4316254  38.7915573  53.5392342  36.7725906  38.2656898  54.9169807
  11.0667439  61.3374023  18.1622601  11.9511518  61.7007141  18.1168690
  10.5801973  61.8060493  17.4841175  68.5697098  26.1159649  49.6370811
  68.5167084  26.9703102  49.2086945  68.3367844  26.2904091  50.5489731
  53.2808838  67.9169540  31.0029583  52.3257637  67.9560776  31.0524712
  53.4858932  66.9839935  31.0645199  70.6333694  16.4912262  76.8190536
  70.7424774  16.6631203  75.8837509  69.7698746  16.8470402  77.0288315
  65.3854904  31.7564487  68.0594788  64.5830002  31.6352482  67.5519791
  65.5013123  32.7056923  68.1013794  16.3720512  17.4599915   4.4072170
  17.2087860  17.8907681   4.2324600  15.8946896  18.0790844   4.9595594
  52.8046036  23.3032265  41.4067535  52.2383728  22.5888996  41.6989059
  53.2012901  23.6385574  42.2107582  34.9746933  67.4152832  15.6058540
  35.1988754  67.4009018  14.6753874  35.5134811  66.7251587  15.9927216
  52.1677208  59.3936577  13.3270073  52.6289139  59.0388336  12.5669851
  51.4757652  59.9397049  12.9538393  78.9273911  15.7849388  37.1153526
  79.3278580  15.2651615  36.4184380  79.1418533  16.6906796  36.8920250
  82.2845001  33.4706345  84.9339142  83.2382584  33.4061050  84.8847885
  82.1236191  34.1371422  85.6018372  29.7575626  49.4194603  68.2540894
  30.2204266  48.6976357  67.8286896  30.1147652  50.2074623  67.8445892
  66.7786713   7.9768591  67.4349747  67.3431702   8.2900600  66.7282410
  65.9655991   8.4706993  67.3287888  18.7316723  48.5315552  82.0336151
  18.7008095  48.2488670  81.1196365  19.6260738  48.3377609  82.3141937
  75.3766174  13.6022377  82.8349762  76.1378860  13.8804340  82.3257599
  75.5571365  13.9099808  83.7231979  38.0879593  56.8986206  83.2199402
  37.8517456  57.6418610  83.7749481  37.5879860  57.0325203  82.4147568
  49.2187500  36.4043770  58.9528313  50.1021080  36.7075996  59.1625137
  49.1914711  36.3893242  57.9961357  68.9618607  62.6448975  61.6057358
  69.2433548  63.1704178  60.8568573  68.0225220  62.5196304  61.4708824
   1.3523695  62.8607864  45.1307831   2.1816478  62.9167633  44.6560249
   0.8717369  63.6452942  44.8666382  86.5152283  55.4735832  71.7085037
  86.6608429  56.1319695  71.0291214  86.3474884  54.6642685  71.2257004
  75.9293976  47.7539940  16.1145611  75.1250381  47.2515450  16.2441483
  76.6281967  47.1649857  16.3991356  47.4820480  60.9287071  19.8127155
  47.1485825  61.7714424  19.5047684  47.4274902  60.9837036  20.7667770
  35.3836975   0.6478012  12.2837753  36.2753944   0.9334102  12.4826069
  35.4974785  -0.1254057  11.7311125  78.9198380   2.4014659  78.5993881
  79.2553940   1.5835553  78.2324371  78.3464966   2.1256893  79.3145523
  34.5532455  -0.1435356   1.7259336  34.8806343   0.7503925   1.8256351
  35.1290550  -0.5378124   1.0707834  11.8137646  49.6732292  35.3022232
  11.1252289  50.3363953  35.2536430  11.9284210  49.5152130  36.2392998
  74.3690948  43.1906967  55.6616859  74.5117569  44.1324463  55.7564812
  75.2335815  42.8374405  55.4516487  69.7516022   4.0791416  88.1293106
  69.3309174   4.8123794  88.5783310  69.0755157   3.4026861  88.0899506
  19.9684887  56.7673073  55.8822594  20.8849983  56.5402985  55.7250595
  19.7889462  56.4415932  56.7642479   9.2591181  59.9777718  33.5758057
   8.9329748  60.5485725  34.2715416   8.5262327  59.9021759  32.9647446
  64.8849640  61.7905769  33.2718582  65.8062973  61.7900162  33.5314217
  64.4152451  62.0732765  34.0565109  38.4105759  61.3248558  85.4507751
  37.9342194  61.5641098  86.2458038  38.4943275  60.3725548  85.4991760
  19.9748039  51.1521988   1.1523228  19.5075970  50.3368187   0.9703783
  20.6992054  51.1579018   0.5266693   2.6906524  17.2385330  84.4350662
   2.9436734  17.9251328  83.8179855   1.8044062  16.9927597  84.1697464
  79.4552536   7.0229115  38.7701073  79.5666580   7.6394973  38.0464745
  79.1936646   7.5686784  39.5116882  60.7928467  64.3532791  79.1459351
  60.9855385  63.5594978  79.6449432  59.9953232  64.6999588  79.5459442
  67.4246674  71.0201187  47.9914284  67.5269012  70.6190186  48.8545036
  67.4791718  70.2868652  47.3785706  78.9117203  26.0601025  85.6587372
  79.3632050  26.1790752  86.4943466  79.5941467  25.7598972  85.0583954
  50.3322983  31.3989506  33.4090309  51.2808723  31.5172672  33.3596191
  50.2128677  30.4527111  33.4902840  45.9380798  26.8485947  86.0608444
  46.8302002  27.0192204  85.7587891  45.4791679  26.5290813  85.2839661
  76.5449295  27.7309170  88.8249054  77.1230240  27.6842613  89.5863876
  76.3431015  28.6621819  88.7341156  21.4301567  16.9065914  45.3166580
  22.2343216  16.7008114  44.8400002  20.8572884  17.3028088  44.6601028
  81.5841293  18.1896057  70.0529175  81.3435287  18.9789696  70.5379410
  81.4715805  18.4299526  69.1332474  44.0957870  40.7065392  33.1324234
  43.4940109  40.3236465  33.7707748  44.9472122  40.3256683  33.3474693
   3.9290013   6.3030448  33.9790154   4.1384244   6.8452187  33.2184753
   4.4647598   6.6640363  34.6853294  73.5262909   7.7619119  29.9258614
  73.4544220   7.1690850  30.6739426  72.6898117   7.6735258  29.4689960
  46.5824699  57.5207291  75.0139923  46.6393433  56.8286781  75.6728210
  46.0700569  58.2108574  75.4351654  11.4397659  39.1984024  18.1114979
  11.9435568  38.4630127  18.4602547  12.0982208  39.7838326  17.7374115
  76.0302124  18.0273991  21.5474625  75.1722107  17.6134033  21.6406059
  75.8368073  18.9125023  21.2385616  85.5932312  52.0943489  78.4191513
  85.0575333  52.2184334  79.2026443  85.8840179  52.9759331  78.1857376
  51.5486145   7.3413687  41.7416382  51.8189888   7.7557549  40.9222374
  52.2828560   6.7740827  41.9768143  63.7003593  31.5449600  59.1334000
  63.8080025  31.1331882  59.9907722  62.7582359  31.6957893  59.0567207
  57.9098816  10.1447144  17.9380112  58.7837677  10.4255648  17.6665840
  57.6948051   9.4246569  17.3451462  85.2383804   7.5548186  77.3048706
  85.8612518   7.2016683  76.6696167  85.7232132   7.5749440  78.1299515
  71.5823288  30.6427860  25.3245964  71.9746094  30.1575317  26.0504589
  70.7958298  31.0395622  25.6990547   6.4863319   6.6427269  11.6890020
   6.4308953   6.1290588  12.4947958   5.9164138   7.3957210  11.8452873
  63.1564407  18.8191586  35.2006874  62.4717216  18.1504040  35.1880341
  63.3003044  18.9970970  36.1301346  16.1987591  44.4663315  55.4866829
  15.9902334  44.2247734  54.5842400  17.0208511  44.9521751  55.4207191
  27.6591473  51.5388870  58.0195274  27.4252567  51.5085869  57.0918350
  26.8331394  51.3901558  58.4797668  86.5356979   4.8239932  77.7423630
  87.4356995   5.0793872  77.5398941  86.4861145   3.9017272  77.4909668
  15.2686749  37.8093033  73.8861771  16.1655235  37.8788071  73.5589676
  15.0011511  38.7143860  74.0458298  28.3627758  44.7342987   2.2537618
  29.3145981  44.8296127   2.2193484  28.0687256  44.9454956   1.3676682
  34.8060036  44.4349289   4.9514041  34.9866791  44.3854904   4.0127115
  35.0258942  45.3353157   5.1905398  83.1883698  14.1692171  67.5404663
  82.4698715  14.1431923  66.9085541  83.1685562  13.3096685  67.9611969
  37.8528519  71.1278458  64.5322418  38.4631920  70.9339676  65.2436676
  37.5831718  70.2688446  64.2072449  29.1434383  41.5704536  52.7140388
  29.6724987  41.3124771  53.4688721  29.2563133  42.5191689  52.6554375
  62.1706848  25.3848038  39.2075272  61.6327705  25.2802105  38.4227104
  61.9265022  26.2436199  39.5525551  17.2585850   5.5770063  76.8486862
  16.7561646   6.3269892  77.1670074  17.8042526   5.3212194  77.5923615
  29.0057049   5.8853941  14.6394520  29.1459694   6.4725404  13.8966084
  28.2178421   5.3926597  14.4098539  43.2358704  69.5233536   5.3151112
  42.4049149  69.0494843   5.3495936  43.8937531  68.8430786   5.1714134
  66.0277634  10.5517244  66.2194061  66.6593781  10.3213863  66.9007568
  65.4347839  11.1726675  66.6425400  48.9372559  31.3548164  80.9550400
  48.8161736  32.2811279  81.1636505  49.3711929  31.3561878  80.1018524
  44.4667358  34.6129799  26.7005749  44.4858742  35.4570084  26.2494831
  45.0353355  34.7348137  27.4608917  70.4315948  53.5324898  42.5303459
  71.0289383  53.4542007  41.7865181  69.6914825  52.9694672  42.3034630
  80.9211273  33.9715576  63.0718002  80.5363846  34.7460747  62.6615334
  80.3271790  33.7623711  63.7927017  51.6106758  71.7216415  58.8495979
  52.0454025  70.8925247  59.0491333  51.6436157  72.2129669  59.6704216
   2.3268967  34.9187202  20.8705711   2.4397490  34.4667892  20.0343571
   1.4280108  34.7185059  21.1316299  23.1836739  34.5617409  82.5166016
  23.7327118  34.2304649  83.2272720  22.3114872  34.6382256  82.9034729
  43.1176643  68.6583405  22.3303204  42.8583603  68.7107773  23.2502346
  43.4746628  67.7756577  22.2320499  23.3357372  46.1194649  62.1996155
  22.9211559  45.5828018  62.8751488  24.2198277  46.2793617  62.5298424
  48.1461105  42.6545601  80.4455032  48.7704239  42.8082771  79.7363968
  48.3124695  43.3618774  81.0686035  50.0549202  68.1740646  83.5429306
  49.4213982  68.0405502  84.2479477  50.7353477  68.7227325  83.9330750
   9.1028996  64.3001785   7.3952608   8.2116976  64.4167862   7.0660291
   9.5938892  65.0320740   7.0217772  69.0699615  18.8221149  60.5158577
  69.2322464  19.6483803  60.0606880  69.8221436  18.7179451  61.0986176
  75.2421951  43.8908005  52.1157494  75.8700943  43.2663536  52.4791260
  74.4848938  43.3568115  51.8757820  65.4863892  65.4720230  82.3823700
  65.9821625  66.0202789  82.9905243  65.0403976  66.0943832  81.8079147
  70.1148453  14.7652168  28.3186321  69.2715607  14.7879934  28.7709370
  70.7502670  14.5667124  29.0064354  29.0896244  21.1307220  85.4564590
  28.8560524  20.4056759  84.8768158  29.1828346  21.8835735  84.8727112
  39.3445587  23.1850014  14.4449272  40.1463127  23.4257774  13.9807673
  39.6488609  22.8280907  15.2793417  28.7714729  36.2949333  61.3690643
  29.2774944  36.9458809  61.8553200  28.9877777  36.4601059  60.4513702
  84.4881592   5.2045941   4.3619838  83.8341522   4.7501392   4.8929987
  85.0971756   5.5774455   4.9994111  77.0911789  39.7651367  21.3612690
  76.1848984  39.9922867  21.1532097  77.4654694  39.4843140  20.5262356
  12.8335533  52.8690147  30.7230816  12.1262455  53.2619400  30.2116585
  12.5212488  51.9871902  30.9257774  67.9118652  51.6936836  86.8182144
  68.6914444  52.2063026  87.0320129  67.3029556  51.8737259  87.5344925
  17.5794315  22.0566521  82.9463425  17.4464340  21.5824490  82.1255646
  18.3054428  22.6530514  82.7634583  28.9096870  46.9721146  41.6495247
  28.7075958  47.5074577  40.8821945  28.2330418  47.2014809  42.2865295
  53.9766960  68.0039062  64.6891403  53.0891075  68.3203888  64.8572464
  54.2735672  67.6637573  65.5331726  24.1247387  67.5784607  86.4329987
  24.1197891  66.6892090  86.7871780  24.8537979  67.5851898  85.8127899
  50.9971771   0.5348219  17.8733292  50.1775246   1.0003957  18.0395756
  51.4016685   1.0129868  17.1494656  21.6211262  44.9762840  53.2522202
  22.5038204  45.3248634  53.3770142  21.1247005  45.7073631  52.8843651
  68.3327560   0.8932506  25.6061573  69.0825424   1.1425223  26.1464462
  67.9108963   1.7233359  25.3842926  77.4628983  55.8749847  64.4910889
  76.9268951  55.9256859  65.2825165  78.0998993  56.5829201  64.5874634
  17.6867371  55.9463959  34.7416382  17.6224976  55.0863037  35.1567802
  16.9126053  56.4186783  35.0480690  47.3760262  43.5629272   9.6583900
  47.1885300  44.3694649   9.1782122  46.9225311  42.8794823   9.1649580
  11.4779816  59.6984253  52.5830765  11.1575823  58.8194656  52.3805809
  10.7032738  60.2567749  52.5174408  35.0281067  50.3340187  46.8995018
  34.8743362  49.4028893  47.0594482  35.4108543  50.3664246  46.0227547
  69.5914154  50.8654861  83.5676346  70.1558914  50.0928345  83.5429764
  68.7751007  50.5788956  83.1580963  53.3924370  48.4929771  79.6201859
  53.5669937  48.6702423  78.6958771  54.2593842  48.4494438  80.0235977
  66.8274612  67.3452759   1.6074350  66.7709656  68.0528793   2.2495713
  65.9193039  67.0791168   1.4637951  81.3795395  46.8898010  46.8847809
  81.2585373  47.2082596  45.9902573  81.0168915  47.5826302  47.4367828
  28.9521084  49.4889870   8.4334793  29.0653210  49.7689629   7.5251679
  28.1374168  48.9864998   8.4294538  41.9415207  31.6473255  64.2865906
  42.2697906  31.8604298  65.1601257  41.5103416  32.4490128  63.9905968
  79.6665039   6.0465136  42.4757729  79.6194000   6.8648801  42.9700279
  80.5276108   5.6870623  42.6891518  52.0717430   6.2542105  10.6088257
  52.4333611   5.9537854   9.7750349  51.1901360   5.8823333  10.6354218
  43.9923363  30.6518822  27.5452938  43.2497215  31.2549667  27.5775948
  44.4109955  30.7414017  28.4014149   0.5141505  36.0584526   3.2034092
   0.9447460  36.5770378   3.8830321  -0.3513074  35.8637314   3.5629911
   5.4589581  67.9548721  28.7969780   4.7842860  68.3284378  28.2299690
   5.0267148  67.8462982  29.6440964  56.6490402   4.7305636  15.7301598
  57.4064980   4.9831934  16.2580452  55.8986549   4.8618612  16.3097439
  16.5282574  39.3094292  44.7943954  16.2354412  39.1530151  45.6921844
  15.9428558  39.9923668  44.4670868  32.4819183  19.1714096  69.8127670
  32.0203056  18.3698654  69.5664520  33.3141670  18.8669567  70.1745682
   0.5384286  70.2805481  66.9596786   1.4086757  70.5035324  67.2901077
   0.1374031  71.1246185  66.7524261   7.6248608  46.0376625  15.9496641
   7.9450274  45.5313492  16.6962376   7.8345518  46.9456291  16.1684227
  39.0312119  56.5508766  86.3716507  39.0483665  57.4967461  86.5174942
  38.1003532  56.3294525  86.3452225  67.0582733  39.3886566  66.5865936
  66.5723572  39.6774139  65.8141098  66.9537430  40.1023026  67.2158890
  28.8073025  61.3721657  70.3131790  28.5195141  61.1969719  69.4172363
  29.0522518  62.2974854  70.3094482  50.2984810  24.0367832   3.3469388
  50.8279495  24.2470112   4.1161575  50.6547508  24.5906525   2.6522942
  35.5766983  46.6159782  27.4373150  36.1488533  46.2492256  28.1113796
  35.9868240  47.4482040  27.2018833  76.7721100  65.8317719  49.2778473
  76.2318878  66.1231842  50.0123329  76.1449890  65.4937744  48.6385536
  75.4821777  35.7271385  44.0042877  75.3684387  35.3194351  44.8628159
  75.7691956  35.0124588  43.4358826  76.6856613  51.1584625  20.1604805
  77.6340714  51.2207222  20.0470333  76.4219360  52.0301971  20.4550228
  43.3331184  57.7080002  58.9554901  42.9047737  58.4126091  59.4415741
  42.6129532  57.2218475  58.5539284  12.8759451  32.9000015  32.6956635
  12.3645964  33.6774940  32.4714737  12.4022560  32.1756783  32.2867546
   2.6621592  62.2196274  11.0111408   2.6320136  62.3974342  11.9511995
   3.4481702  62.6731949  10.7066793  57.6030045  12.0568409  72.9569016
  56.9282570  12.6244469  73.3294296  58.3219872  12.6502161  72.7396469
  53.5434303  17.4359894  28.1739101  52.6630783  17.7132530  27.9202671
  53.8916206  17.0021019  27.3949757  71.4084244  50.1310539  63.5736732
  71.0615082  50.9742546  63.2822990  72.2618637  50.0624008  63.1457176
  43.0591049  40.4488907  22.4114361  43.0624428  41.3977928  22.5371532
  43.9383278  40.1702690  22.6675014   9.8311195  57.2331085  63.5402374
   9.8774519  56.2823753  63.6411705  10.5000458  57.4374771  62.8867836
  13.3392487  45.4033279  61.1296730  14.0199833  45.8094444  60.5931091
  13.6130295  44.4899025  61.2129364   6.7653041  26.9226952  53.5322113
   7.2282963  27.1063118  52.7148018   7.4431777  26.9669113  54.2065735
   8.3950310  34.6656380  23.7913074   7.5300856  35.0288887  23.9814415
   8.8599482  35.3743401  23.3465290  48.1738091  69.9357605  32.5799866
  47.9670410  70.6334305  31.9581089  47.4668427  69.2998428  32.4702873
  36.8263092  33.9871674   6.7959032  37.2528763  34.3768883   6.0327582
  35.9227486  33.8402290   6.5162272  51.4194679   2.4110160  40.7665863
  52.0981369   3.0516105  40.5537987  51.8919907   1.5839832  40.8613052
   6.5401759  22.3245964  80.6757126   7.3637176  22.1327209  81.1242676
   6.6979942  23.1574554  80.2311172   5.8849301  43.6318436  80.7238159
   6.2748156  43.2011795  79.9630585   6.0700612  44.5618935  80.5935516
  60.8760605   5.9569635  62.3310814  61.4998283   5.2593894  62.1297417
  61.1046028   6.2338767  63.2183914   2.7576265  51.8168755   5.1498818
   2.3923831  51.6646690   4.2782960   3.3189266  52.5849075   5.0435815
  75.6177826   3.4054921  40.6897659  76.2882233   4.0517058  40.9114571
  75.0666275   3.8447368  40.0420570  56.2108192  68.0862350  83.4834976
  56.1215019  68.7401047  84.1768265  55.3176346  67.7798233  83.3267441
  39.4853477  54.7786369  84.1740417  38.6939163  54.9498596  83.6635971
  39.4225807  55.3746262  84.9204254  13.6110592  63.2519760  81.6135941
  13.8271608  62.7625580  82.4073181  13.0311527  63.9517136  81.9141006
  57.8155899  17.9115639  48.0443039  58.5994720  18.4225197  47.8426094
  58.0828590  17.3355808  48.7605743  53.4959564  37.7644348  71.0366592
  53.1631203  37.8767586  71.9270706  54.3051071  37.2646027  71.1446915
  60.2076263  27.5439739   3.5603807  59.7861977  26.8745975   4.0994229
  60.9303932  27.8654556   4.0993481  43.8451881  41.3636513  56.8095551
  43.0441132  40.8611031  56.6613808  44.0427742  41.7556839  55.9589653
   5.5640674  44.3807068  19.6348686   5.5958619  43.4640465  19.9086571
   4.9268231  44.7846451  20.2239208  55.3183098  71.3838196  69.9356689
  56.1153564  70.9147720  69.6888046  54.9130783  71.6227341  69.1020355
  42.3800354  49.5396118  27.1946392  42.3540955  50.4334793  26.8532352
  41.4640045  49.3228416  27.3682175  60.3018341  55.7627029  26.9296970
  60.5961189  56.6599121  27.0866756  59.9139061  55.4889946  27.7608566
  48.5692711  38.7056618  56.7042274  49.2224731  38.4839783  56.0405884
  48.8060226  39.5887299  56.9877319  36.4546928  15.1415482  68.1075897
  36.2623024  14.6302853  67.3215714  35.7399712  15.7759724  68.1615448
  22.6581230  23.1383705  76.3751297  22.0803185  22.5816154  75.8532181
  22.1501808  23.3408108  77.1607819  76.1076660  62.5621834  30.5293560
  76.8130722  63.1329002  30.8341885  76.3533783  61.6908035  30.8400917
  49.6233559  56.9084930   8.2105885  49.9351349  56.0750999   7.8577747
  49.8715363  56.8851891   9.1347618  34.0524483  69.4921799  63.4418602
  33.9557152  69.3784409  62.4963760  34.6693687  68.8086472  63.7034492
  42.5794907  51.8830719  43.3538704  41.7556076  51.5390244  43.6989517
  43.2527428  51.3193016  43.7348213  23.8987656  52.1172676  42.4969940
  24.0801868  52.4203033  43.3866501  22.9758835  52.3282967  42.3556175
   8.3121471  59.4452171  68.7766800   7.5660954  59.8195496  69.2452011
   8.4529734  58.5941734  69.1915588  82.5442276  30.1106815  15.9686050
  82.7122955  29.9053440  16.8882923  81.7596359  29.6076660  15.7503939
  39.7486572   4.9916391   1.0358455  39.5310669   5.9105310   1.1924461
  39.4063606   4.5305738   1.8016688  58.0774078  20.9814434  23.1017742
  58.7108078  20.4252605  23.5553150  58.4244995  21.0646725  22.2136116
  45.3591232  55.4682579   3.4333518  45.1108742  54.8963242   4.1596403
  44.6402359  55.3854790   2.8067875  69.8470230  11.6024866   6.9531059
  69.4524536  10.7716722   6.6879754  69.5360870  11.7405872   7.8478003
  70.2169952  27.5619144  27.9603748  70.1175537  26.7809258  27.4159489
  69.3870544  28.0288162  27.8632965   6.9908195  53.5272675  76.5664444
   6.9197283  54.4506683  76.8083344   6.2001400  53.1241837  76.9250259
  21.4663544  66.9718246  21.6379833  20.8768864  66.3015137  21.9835854
  22.1378288  66.4797592  21.1655159  35.8632431  37.1468506  76.2415695
  35.5850334  36.5313072  75.5633774  35.1616516  37.1196098  76.8921509
  60.2372475  26.2205467  65.8301620  60.8519402  26.3540249  65.1086578
  60.7812119  26.2518978  66.6171494   8.2031155   7.4023643  19.6652851
   8.4260731   6.6045370  19.1857071   7.2924433   7.2753215  19.9313068
  26.9598675  56.5492554  22.9183502  26.5686741  56.6464539  23.7865391
  26.7252903  55.6615028  22.6479759  40.7638168  25.9449806  11.8298807
  41.5207329  25.6689281  11.3130598  40.0072937  25.6493816  11.3233957
  27.6988754  36.9986763  56.3333244  28.3078842  37.7328987  56.4124184
  26.8508530  37.4082756  56.1620903  28.8930721  67.0016251  24.9502029
  29.7610359  66.5996780  24.9864044  28.4503193  66.5511475  24.2309875
   7.6855850  51.6465378  64.1032562   8.3799181  51.0221558  64.3136826
   6.9578891  51.1028023  63.8015175  14.6682844  40.9251709  12.3115253
  14.8978643  41.1759911  13.2062960  14.0360508  41.5872421  12.0319309
  68.0609360  17.1254387  77.2873154  67.6395950  16.8271942  78.0933838
  67.3348846  17.3071327  76.6906052  23.3187046  32.6152611   5.6721215
  24.1167450  32.1343689   5.8914514  22.6087456  32.0636520   6.0006270
  85.1228943  36.0030289   5.4809456  84.4789200  36.4869804   4.9639173
  84.7730713  36.0155945   6.3718429  67.5005188  35.0516853  10.7229681
  67.5646057  34.0968132  10.7413549  68.3190079  35.3542862  11.1163349
  71.2279434  33.5817566  51.7780800  71.4568405  32.7410660  52.1744118
  71.3398438  33.4416580  50.8378258  33.6317329  13.7331600  87.1884232
  33.0238228  13.8581371  86.4596863  33.2311401  13.0445900  87.7191086
  50.9694672  25.3916759  36.8472672  51.6518173  25.8847504  36.3917427
  50.1908798  25.9447575  36.7829552  84.4038773  23.0682774   0.8578695
  84.9055634  22.5256844   0.2494789  83.4891129  22.8749542   0.6527925
  44.1464272  15.6503229  59.2196770  44.3419724  16.4122219  59.7651176
  43.8805618  16.0203037  58.3778572   1.7267861  21.7359390  68.6219330
   2.4574363  21.4843578  69.1868134   1.6312377  21.0033073  68.0133667
  70.7141724  69.8420029   1.7602667  70.4541855  69.0585861   1.2756029
  71.3578720  70.2701797   1.1958768  69.9606247  19.7186871  76.2286224
  69.5741577  18.8920097  76.5175400  69.2628403  20.3632927  76.3461151
  11.1446829  27.1583519  75.2248840  11.8921251  26.5713406  75.1109543
  11.2056923  27.4500351  76.1345215  52.9016495  37.5145340  78.4170914
  52.7919769  38.4058342  78.7484360  53.0200653  37.6226997  77.4734268
  50.2746811  53.0231323  71.2859726  50.7688026  52.2062836  71.2164612
  50.1082077  53.1233292  72.2232437  10.9432039  45.3089943  66.1176758
  11.0793200  46.1640778  66.5257645  11.2674856  45.4160194  65.2234650
  42.8210144  71.0270920  74.7787704  42.7830772  70.4245758  74.0359573
  42.1421165  71.6764679  74.5953598  47.0938377  47.6889915  77.6229172
  47.3418350  48.2809296  76.9127502  46.4756737  48.1942139  78.1509857
  37.0588875  27.1488342  80.3464661  37.0289192  26.3818645  79.7745438
  36.2215691  27.5891552  80.2007065  19.0682926  57.3511276   7.1752272
  19.6589394  58.0563049   6.9104805  19.6473598  56.6145744   7.3711982
  60.7741051  58.2345657  13.1964598  60.1604843  58.9218254  13.4560223
  61.6031456  58.4878883  13.6023598   1.2477337  39.9136429   9.5026321
   0.6302251  39.3984795   8.9834776   2.0653167  39.8790894   9.0060482
  78.8634872  10.6567411  43.7148323  78.8089447   9.7852802  43.3226433
  79.3914413  10.5318699  44.5034447  24.5452671  54.7224274  78.1218796
  24.8395157  55.2047005  78.8945770  25.3346405  54.6159325  77.5910416
  26.8820477  10.5171146  27.9797802  27.0700130  10.4173279  28.9130249
  26.9663067  11.4567070  27.8176155  18.7790356  37.7887878  44.7463264
  19.1418476  37.9039192  43.8680649  17.9296341  38.2289200  44.7141724
  48.6736069  51.1038055  25.8149986  49.1701508  51.3682365  26.5894356
  48.7685890  50.1518631  25.7831078  39.6305389  46.2803955  62.4663315
  39.7352219  45.4617538  61.9814606  39.1486206  46.8525314  61.8691368
  48.7938004  46.7509918  79.8429413  48.5827484  47.0782394  78.9685287
  47.9483223  46.5009956  80.2156372  31.5317879   3.3165395  40.6075554
  31.4225693   3.6626945  39.7218475  31.3252316   2.3852906  40.5279198
  21.0095901  56.9857445  49.6983261  20.8981438  57.9213905  49.8667755
  21.1996613  56.6086998  50.5573616  13.8623009   9.6317968  68.2924042
  13.9790812  10.4355745  68.7988968  13.0064077   9.7333012  67.8760223
  68.2975311  62.5293884  28.6581879  68.0549698  63.3553925  28.2397251
  67.9316864  61.8546486  28.0862503  87.2082062  12.5668583  85.6447144
  86.6909943  13.3722410  85.6355057  86.5933914  11.8906269  85.9292297
  30.5832996  17.0727310  89.1057358  30.4525909  16.3352070  89.7017212
  30.8946896  16.6723957  88.2939453  72.7981262  16.3248615  78.6375122
  72.1812363  16.5713291  77.9483643  73.0942383  15.4484415  78.3916779
  52.1406136  12.0405149  39.9143791  51.6098518  12.7933903  39.6541862
  52.2282791  12.1258993  40.8637238   3.1251934   2.4918070  32.6702728
   2.3179681   3.0052161  32.7023659   2.9592435   1.8260669  32.0028267
  51.7769203  49.6433983  64.9909592  52.1358795  50.1015625  65.7508698
  51.9516602  50.2285881  64.2539062  84.2587662  41.4675217  24.2864819
  84.8612366  41.4539413  25.0301743  84.7836456  41.1601562  23.5473881
   8.3692675  56.8391571  69.7661057   8.2512207  56.5416222  70.6681976
   8.4665432  56.0332489  69.2588806  35.2790565  42.7262115   7.8821006
  36.2185402  42.5495987   7.8330283  34.9370804  42.4405746   7.0349317
  40.4952583  39.7619400  25.6052246  39.9763603  39.6678734  24.8063946
  41.3427086  39.3738327  25.3874397  46.8638000  14.8266096  65.2495575
  47.7028770  15.0570869  65.6483765  46.2094231  15.2409115  65.8120270
  57.5208130  53.4893646  31.3053684  57.9754257  54.2899284  31.5673962
  58.0824547  52.7810364  31.6201153  48.0144157  41.2456589  37.6702805
  48.2221909  40.6644173  38.4018669  48.8139191  41.2638092  37.1442604
  54.7928619  18.4682693  32.8600464  54.9806976  18.1632118  31.9724159
  54.0740433  19.0910778  32.7521744  71.8490372  23.8670578  82.6334076
  72.0357361  22.9346981  82.7433167  71.9563675  24.2377014  83.5093842
  31.3843479  56.7618217  24.0868378  30.9112072  56.7486916  23.2548542
  31.2005615  57.6267967  24.4532642  77.1117401  61.9860649  21.2799740
  76.8926392  61.1653557  20.8387699  77.1782990  62.6277771  20.5728588
  31.2527676  29.2702198  88.6900940  31.6345310  28.9972382  89.5243378
  30.6233044  29.9515591  88.9262772   0.0826616  43.7657890  42.3119507
  -0.7229607  43.3098564  42.0683784   0.7839092  43.2178612  41.9594536
  31.2597656  51.1175461   3.1966765  32.0819664  51.3954544   2.7929611
  30.6645145  50.9825287   2.4593315  79.4978638  28.5258141  82.7329941
  78.6127167  28.1936340  82.8827057  79.3745346  29.4530354  82.5298080
  68.3699951  26.5141640  24.9233074  67.7616653  26.8829651  25.5637379
  67.9474182  26.6640434  24.0776157  85.1126404  25.5828667  67.7153015
  84.5287552  24.8367062  67.5790787  85.9626999  25.1890812  67.9116669
  76.7313614  27.2353535  77.3918915  76.6912003  27.8029289  78.1616211
  77.6559067  26.9992352  77.3163910  57.0212097  24.5194530  32.2950668
  56.7249832  24.5706100  31.3862972  56.6253242  23.7153568  32.6311264
  46.7567749  26.3959999  48.8735466  46.8083420  26.6307697  47.9470177
  47.1743889  25.5363293  48.9264030  13.0244064  15.3286524  75.8325577
  12.8537970  16.2338047  75.5721283  12.5599003  14.8009186  75.1829681
  71.0777740  25.6787357  65.2023315  70.3233109  25.1091652  65.0519714
  70.8595200  26.1595879  66.0006943  19.0833149   0.3575581  64.7346039
  18.9678268   0.1351601  63.8107872  18.8504963   1.2844326  64.7887421
  60.6152802  28.3364468  72.2864227  60.5763664  27.5016537  72.7531586
  61.5317497  28.6048756  72.3517380  26.4586220  53.1410980  17.3640461
  26.5616684  53.7650948  16.6455479  27.3366833  53.0565796  17.7356586
   5.0285702  37.5856133  39.5186653   4.3731093  37.2708206  40.1411667
   4.7250443  37.2658081  38.6690598  23.7781372  67.2707367  16.9570885
  23.9773140  67.8426285  16.2158012  23.1445484  66.6421356  16.6111717
   8.4370365  47.8936043  49.9210815   7.8349524  48.3528824  49.3355980
   8.9679699  48.5879135  50.3113098  39.4902344  57.2095184  29.2775421
  38.7842865  57.7331619  28.8985119  39.5207024  56.4208069  28.7360249
   0.7025164  16.0540981  56.6577225   1.4585539  15.7512684  57.1606483
   1.0251791  16.1246758  55.7593155   7.3795624  41.5003891  11.6535177
   7.5737262  40.6522522  12.0525122   6.6812263  41.3154144  11.0255508
  82.8971710  38.1627083  76.6909256  83.1445923  38.2276306  75.7685394
  83.6460571  38.5232239  77.1657257   6.2161026  41.5014343  70.5366135
   7.1305752  41.7047157  70.3400192   6.2354956  41.1455193  71.4249725
  18.6544476   2.4307959   2.1945457  18.4778175   2.4428468   1.2538605
  17.9286747   1.9308778   2.5681336  54.0148697  26.4558315  63.3899078
  53.8771133  27.3389397  63.0473099  53.5839615  25.8829327  62.7556076
  77.7484970  40.4096107  57.0966568  77.4672699  39.5163116  56.8987694
  78.6341553  40.4668541  56.7381020   8.7427330   7.8982658  67.7007523
   9.6591864   7.6222181  67.7126999   8.7032003   8.6244555  68.3231049
  38.1746140  40.0291176  22.8685265  38.4728165  40.8410301  23.2785301
  37.2864227  39.9041634  23.2027912  54.7538681   3.5572910  59.5621109
  54.0293007   3.4551589  58.9450226  55.4982605   3.1398613  59.1286736
  10.6348362   1.9838847  16.6128120  10.3629608   2.8495159  16.3078556
   9.8143530   1.5151578  16.7655697  65.0308304  27.3793583  27.2717628
  65.6856003  26.7535934  27.5814743  64.8758926  27.1323719  26.3600483
  55.1619797  13.5509605   7.7116995  56.0205040  13.4896793   8.1305227
  55.3568649  13.7081041   6.7878170  68.3388138  71.2276535  23.1585560
  68.1989746  71.6850510  23.9876919  67.5924149  70.6330185  23.0842018
  33.8803940  25.0351086  14.9184952  34.1560135  24.1607704  14.6431808
  34.4693947  25.6293850  14.4535809  85.2633286  39.0202332   1.0793788
  85.0076523  39.5609169   0.3320346  85.1515274  38.1202202   0.7732579
  67.1453934  71.2821579  64.7325287  67.2126694  70.3359451  64.6044998
  67.8173065  71.6498947  64.1584778  78.1885071  53.9959755  62.5271111
  79.1362381  53.9600716  62.6565323  77.8828659  54.6348038  63.1710930
   9.0323820  52.3757324  54.6882401   8.0836344  52.2685890  54.6201897
   9.3532619  51.5111771  54.9447823  73.8744202  58.5906372  28.3111382
  74.3056717  59.2983284  27.8321495  72.9705276  58.8879166  28.4151917
  68.8600235   5.2072787  78.7624359  68.2029953   4.5434861  78.9720230
  68.5955963   5.5440869  77.9063568  83.1707535  65.8823090  65.9792023
  83.9992828  65.5909119  66.3597946  83.3616486  66.7515488  65.6267700
  24.3242321   5.5076880  73.7619705  23.9527359   6.3779387  73.9064865
  25.0203514   5.4330106  74.4147110  73.2052383  49.0268517  83.9959106
  73.4044037  48.1132812  84.2007370  72.3242035  49.1637993  84.3441391
  27.4296360  66.3333893  22.6764965  28.0970936  66.9386673  22.3534241
  26.6549664  66.5271530  22.1486988  53.1920395   8.8115788  86.1463776
  52.9880600   9.4587965  86.8214569  52.4013786   8.2759829  86.0813599
  69.2097473  18.2049274  54.4116821  68.3245621  18.2566586  54.0511208
  69.6115417  17.4658070  53.9550705  22.4312115  41.1081047   2.9758732
  22.7679462  41.8929100   3.4082193  21.9261608  40.6591949   3.6538370
  65.5778580  57.3292770  63.7724152  64.9547195  57.9186401  64.1973648
  65.9913559  57.8653641  63.0957565  81.6299438  58.2777443  69.5499344
  81.4526749  57.6892662  70.2837677  81.2029877  59.0992050  69.7931366
  67.7513809  41.5137978  28.0200710  67.2192612  40.7189636  27.9837894
  67.8089600  41.7211151  28.9527740  80.9706802  25.3153305  76.5572891
  80.8806992  24.3970394  76.3025894  81.7544479  25.6158009  76.0972214
  37.8546486  62.1133385  49.9072342  37.5523453  61.7109871  49.0930138
  38.6524582  61.6335068  50.1297035  71.8753128   0.8039142  74.5668411
  72.2578049   0.5457181  73.7282333  72.0900650   1.7328020  74.6521759
  44.1902199  64.2781830  83.5805893  43.6833763  63.5478210  83.2257462
  45.0328560  63.8915901  83.8188019  11.4464245  56.4932480  88.6762619
  11.0027514  55.6574211  88.5321121  11.9367981  56.6465263  87.8686295
   2.8457401   3.4424284   0.2116724   3.6162798   2.9456902   0.4869024
   2.3669870   3.6109800   1.0232251  62.2762871   9.1485882  36.1849556
  62.3488503   8.5560541  36.9332008  61.3341179   9.2441235  36.0455856
  24.8845654  44.6948013  70.8012161  24.1847191  44.8859215  71.4256516
  25.6914215  44.8093300  71.3033066  48.4803123  14.5451632  85.8239059
  49.1166039  14.6830778  86.5255814  48.8325272  15.0358391  85.0813370
  47.0196419  11.2609844  84.2948227  47.3848343  10.3829317  84.4038696
  46.0808029  11.1168919  84.1762924  77.7153549  13.3304014  16.0258751
  76.9345169  12.9978638  15.5832129  78.1929474  12.5445910  16.2916603
  80.3488617  53.9856186   6.7931299  80.4586639  53.8521500   7.7345967
  79.5100784  53.5721664   6.5888343  41.6382675  45.8764763  59.0354347
  41.9732513  45.1363068  59.5415611  41.6501007  46.6110992  59.6489677
   0.7448214   5.7756572   5.4863071   1.5964135   5.9558363   5.8845005
   0.2281632   6.5626354   5.6593990  69.7953873  60.2423477  87.6233673
  70.5389175  59.8157959  87.1974030  69.0690918  59.6297874  87.5072174
  72.5387650  64.7881775  24.7488270  72.0987244  64.8678665  23.9025154
  72.8035126  63.8695068  24.7955647   3.9548209  52.6294060  56.6987457
   4.1163831  52.2211380  57.5493011   3.1741793  52.1871605  56.3652077
  49.3332787  34.5518913  69.8084183  49.7097168  34.7855072  68.9599228
  48.8689384  35.3402557  70.0896683  81.5436249  32.1176949  47.7258873
  81.1506653  32.9897919  47.6903763  82.4866333  32.2805786  47.7469292
   5.3237514  50.0781937   8.2542076   4.6346364  50.3699493   8.8510580
   5.5232859  50.8493919   7.7234845  61.8849983  12.8616562  20.8619957
  61.5852013  13.5739202  20.2971649  61.2468491  12.8365898  21.5749931
  59.5372581  31.4000759  19.7296867  59.7876358  32.3222237  19.6732578
  59.6480637  31.0668831  18.8392181   7.5433927  39.3039131  36.9070930
   8.4486017  39.4606323  36.6382675   7.3445182  38.4269638  36.5790024
  63.8074379  33.2533875  55.3443336  64.6905746  32.9902306  55.6032677
  63.4261017  32.4649048  54.9581871  31.7254620  45.9167557  67.9131622
  30.8060703  45.8690186  68.1752167  32.0497856  46.7190285  68.3223114
  38.8254547  46.1282463  35.8571854  38.0444603  45.5749741  35.8701897
  39.4122658  45.7293854  36.4996758  52.1216393  55.6925888  11.9041481
  52.5441742  54.8337059  11.9085598  51.6085320  55.7112389  12.7119856
   0.1608763  55.8449059  58.8171425  -0.6725803  56.1424942  59.1818657
   0.7354085  55.7521935  59.5771103  83.8394928  27.0691166  38.9523849
  84.0982208  26.1549320  38.8359489  84.4933319  27.5673962  38.4620285
  46.9465103  39.3064957  30.6698990  47.5550613  38.6016693  30.8915215
  47.3418884  40.0919991  31.0479107  52.8214302  34.4281120  14.2291183
  52.9145508  33.5882149  13.7795258  53.7199097  34.7330856  14.3554153
  20.7022991  53.9997940  76.1896210  21.0583439  54.8712349  76.3629990
  20.6905231  53.5712547  77.0454559  74.6184311   5.2904248  42.7186165
  74.0764694   5.0900011  41.9555054  74.2455750   4.7603602  43.4230652
   2.7577090  40.9737625  65.7659302   3.0009747  41.8679314  66.0057678
   3.2561939  40.7956619  64.9684219  32.4582024  70.7105484  15.7343092
  32.8121147  71.2926941  15.0619411  31.5101242  70.8308487  15.6804066
   2.9062507  63.5856018  49.1978531   2.3560247  63.5985718  49.9809990
   2.4776528  64.1920853  48.5939369  64.6098938  10.6086893  12.9617224
  63.9465408  10.9691820  12.3732977  65.0583267  11.3764763  13.3161840
  78.1486053  13.1421013  56.0400772  79.0534134  13.1944294  56.3480034
  77.9179611  12.2175035  56.1303902   7.3058653  45.7141266  42.3627663
   6.4403605  45.3567238  42.5612488   7.9140782  45.1438179  42.8329315
  84.1915207  55.1442490  45.7590485  83.3980560  55.0744133  45.2282257
  84.1951904  54.3479576  46.2902184   2.3592927  38.7177505  42.8740768
   1.6460586  39.3297844  42.6925697   3.1315429  39.2737770  42.9774971
  61.7548866  38.4087296  32.0668106  61.0504837  37.9769249  32.5501251
  62.1050568  37.7268105  31.4935741  81.8448486  38.6365623  53.3056870
  81.9750443  37.7339096  53.0149918  80.9180527  38.6811409  53.5408325
  79.6273422  71.2100220   4.1639447  79.5130463  70.4138794   4.6829109
  80.5509720  71.2016678   3.9127936  34.9736519  24.2072582  75.7347412
  35.8406029  24.1850815  75.3296051  34.6907387  25.1173172  75.6454010
  66.5572815  32.1263123  88.5463181  67.1613693  32.1116447  89.2886810
  65.7148972  32.3734016  88.9278564  82.2276306  21.7013741  31.7235680
  81.5904617  22.4088135  31.6247253  82.9430923  22.0918217  32.2254715
  16.0730400  36.3776741  62.7544861  16.5565414  36.1484795  61.9608078
  15.1527634  36.2726326  62.5130539  40.8369217   2.1050324  19.5872173
  40.6605225   1.2716529  19.1506462  40.0226479   2.3122928  20.0457268
  58.8892746  16.1859512  10.2254066  58.3272362  16.2416763  10.9982204
  59.4615059  15.4384813  10.3988094  10.6463718  47.8183441  75.0384750
   9.6976461  47.7884903  75.1620026  10.7887678  48.5649414  74.4566269
  19.1715012   3.8898468  78.1968384  19.9567280   4.4269891  78.3023300
  19.3298378   3.3886838  77.3968430  41.4476128  33.8355293  14.8265352
  41.4971924  33.8553352  13.8708248  40.6458282  33.3477173  15.0147181
  63.3597908  21.0363216  52.6958160  63.2597618  20.2030964  52.2354279
  63.2304039  20.8171501  53.6185608  14.1390028  53.4139137  88.2880859
  14.6704674  52.8920670  87.6868820  14.2119522  54.3090401  87.9569397
  85.0787354  12.3776674  80.1663666  84.6625671  11.5212622  80.2643738
  84.4115295  12.9217100  79.7479401  28.2353840  62.9102249  33.3600121
  28.5884399  63.3598671  34.1277390  27.8351936  63.6056976  32.8380966
  34.9948997   0.5752892  23.9574280  35.3985672   1.3981162  24.2335434
  35.7101288   0.0795670  23.5587502  10.5603867  67.6644287  59.7690010
  10.5322180  66.7144699  59.6549530  11.4725590  67.8991852  59.5985222
  44.6731949  35.3429832  13.3532476  43.8606186  35.8108673  13.5456886
  44.7474632  34.6941414  14.0530472  40.9687424  11.1294470  88.1749725
  41.0227242  10.2578430  87.7830200  41.8795586  11.3779182  88.3327942
  79.9647980  64.9375916  34.3403854  79.9216614  65.5231934  35.0963211
  79.4646301  65.3878860  33.6597252  44.7026367  53.2856522  45.5149040
  45.0226440  52.5884705  44.9424019  44.9592361  53.0097160  46.3948174
   6.6127191   6.1520915   6.9947367   7.1012001   5.3488741   7.1749024
   6.8909154   6.7603045   7.6795106  67.4582901  52.5536804  65.8424911
  67.2277985  52.3781281  64.9301910  67.0983887  53.4232254  66.0173950
  46.7086716  52.7590790   2.7427168  47.1454468  52.7266083   1.8915964
  46.2555275  53.6022110   2.7473731  17.8229504   1.4080762  75.8329926
  18.3929863   0.6414256  75.8924561  18.4171124   2.1547496  75.9083710
  63.4112892   5.1970153  59.6486473  63.1309624   4.3040671  59.4479218
  63.4324341   5.6380358  58.7993622  31.9387951  61.5907898   1.8557496
  32.3849449  60.9453430   2.4040017  31.5340347  61.0742798   1.1588862
  52.0498276   4.0858097  87.8643188  52.6324348   4.7229328  87.4509430
  52.2929077   4.1042562  88.7899551  65.3565445  44.0674210  68.8683090
  65.1560516  44.6274033  68.1183395  65.7832336  44.6510010  69.4956894
  29.5938416  58.0229836  55.0054283  29.8440285  57.1763039  55.3752594
  29.0364208  57.8030128  54.2590179  76.6240616  31.4765186   2.6764534
  75.7146149  31.2579536   2.4730439  77.0270996  30.6382084   2.9023435
   4.9669509  43.4421387  34.1125259   4.1342082  43.5306854  34.5761337
   4.9492855  42.5540314  33.7559013  71.8145294  65.5637741  58.4373436
  72.3557053  66.3514862  58.3838692  72.3033142  64.9035568  57.9459801
  26.8105965  57.4233704  39.3481674  26.5350628  57.3313179  40.2602196
  25.9979744  57.3663292  38.8455467   3.8000174  47.9193497  40.5191917
   4.1584501  47.2673531  39.9169769   4.3557806  47.8588524  41.2961731
  14.6663208  64.7608261  32.2958870  14.3266335  63.9774284  31.8632908
  15.5861549  64.7993164  32.0338669  83.5955963  45.8619499  33.7434044
  83.6256790  46.3735771  32.9349709  83.8096924  44.9698448  33.4703751
  56.4739304  10.1564159  86.9707413  55.6123886  10.1955662  86.5554810
  56.9435158   9.4785786  86.4846802  27.5610886   9.3059025  71.6492462
  28.0252132   9.2350016  72.4833908  27.2063007  10.1949205  71.6473694
  47.8109474  36.7660103  70.8606110  47.4975204  37.1335640  71.6869888
  48.2867966  37.4845467  70.4440765  52.4058685  37.2614899  10.5969076
  51.8521118  37.1189842  11.3645525  53.0126343  37.9518967  10.8641233
  51.6077042  40.1064644  80.0192719  51.4310837  40.6715660  80.7714005
  52.5625305  40.0834656  79.9559631   5.4367461  55.8397331  39.8316078
   5.8232002  56.1888542  39.0284882   5.9178801  56.2726898  40.5367966
   6.5914330  66.0948334  36.6442223   7.1466532  66.0901718  35.8645172
   5.7681274  65.7019424  36.3543396  45.1536179  69.0212097  87.3250504
  45.5184250  69.3266068  86.4944611  45.7555008  69.3574524  87.9890594
  33.4462128  27.5827274  77.0577545  33.9304619  27.3453598  76.2669373
  33.2918968  26.7496681  77.5032120   1.4266447  49.2848358  40.5640106
   2.1815603  48.6990089  40.6200752   1.7952205  50.1250267  40.2911301
  46.6038361  24.1453667  35.4541702  46.3145981  24.8735371  34.9043121
  47.1756401  23.6288376  34.8863029  55.4747009  38.7125282   0.5372537
  55.1439323  39.3696823  -0.0750970  55.2774506  37.8745117   0.1188633
  49.6189766   1.9196554  38.8784294  50.3226547   1.9374926  39.5270844
  48.8568611   2.2665086  39.3422165  81.9535141  63.3920364  56.1152992
  81.2381744  62.8430519  55.7941628  82.1386566  63.9913521  55.3922653
  31.1421928  32.7829628  73.6932297  31.8781261  32.1976852  73.5141068
  30.6851730  32.8564301  72.8554001  71.6666794  59.2834091  86.0432510
  71.4147873  58.7661629  85.2782440  72.3282013  59.8917503  85.7137909
  31.2739410  15.0078106  81.9426880  31.7692852  15.4775391  81.2716980
  30.5675602  14.5770483  81.4613342  61.7125587  28.0592251  31.0160007
  62.0014915  28.1858234  30.1122723  60.8058472  27.7624760  30.9382286
  29.7414856   1.3515204  65.8187332  29.6815968   0.4077925  65.6703339
  29.6331787   1.7379736  64.9497375   7.2480478  25.3835945  85.1823807
   7.9875498  25.5779667  84.6065445   7.2645183  24.4315586  85.2803116
  18.7996025  63.0835457   3.4592550  19.7367115  63.2412796   3.3444467
  18.7518196  62.4017181   4.1293721  57.8906937  31.1882420  25.0342464
  58.7791901  30.8470707  24.9322186  57.8675003  31.9663773  24.4772930
  66.9848480  10.7692661  57.3449326  66.8400040  11.2766123  56.5462761
  66.1128845  10.4654274  57.5971146  73.2224503  22.8486919  80.1377945
  72.6026459  23.5606194  80.2966690  73.8913803  22.9582157  80.8136444
  61.9938850  10.4699907  29.1879635  61.9048271  11.4113970  29.3364735
  62.4519806  10.4019480  28.3502579  30.5681858  57.9245949  59.9731064
  30.5469494  57.0303116  59.6324615  30.0696545  57.8819656  60.7891235
  63.2060127  49.7094383  47.8659019  62.7025261  50.3489723  47.3621902
  63.2296791  48.9311256  47.3092079  70.2570877  47.8348694  46.3571396
  70.3116302  47.3462677  47.1784325  69.3200073  47.8803177  46.1672630
  44.3689384  39.7436028   4.5550718  44.1725121  39.4684868   5.4505925
  44.7531013  40.6150627   4.6510544   2.5521088   0.3923378  81.9406509
   2.9832838  -0.1067551  81.2469482   2.0155451  -0.2525353  82.4015961
  30.0503445  68.5195236   2.7216821  29.5214233  69.1342316   3.2302182
  30.9455376  68.8480835   2.8047752  42.3366699  38.8227997  34.5142326
  41.8586159  38.2008591  33.9657059  41.6533928  39.3254700  34.9577332
  52.6158180  36.3789215  21.1583290  52.2601204  35.6948509  21.7255669
  53.1801491  35.9105492  20.5431957  16.4961052   3.2465258  30.5072918
  17.2473526   3.0141909  31.0530739  15.8119822   2.6290720  30.7660561
  55.2295418   8.4969826  30.3272896  55.4905815   7.6076107  30.0883217
  56.0409164   9.0033379  30.2884827  42.1279564  51.0569916  14.5461922
  41.3177490  51.1045036  14.0387115  41.8830414  51.3671188  15.4180098
  39.4975815  11.5300770  79.2145920  40.2252960  12.1486483  79.2780609
  39.7437859  10.9431610  78.4996490  66.5585022  15.3596220  46.4091454
  66.7546692  14.4962358  46.7728996  65.8262405  15.6805353  46.9354897
  68.6641693   1.7093724  53.5451393  69.3886719   2.3151350  53.3889999
  67.8812637   2.2591987  53.5138092  86.3060608  46.4325714  60.8551254
  85.5247040  46.6400414  61.3676453  86.9027481  47.1621590  61.0221405
  49.3578453  54.9739609  88.7305527  48.7009010  54.4176331  88.3120346
  48.8716507  55.4580841  89.3979874  58.5687599   3.6221244  74.6334152
  58.7999153   4.1853004  73.8947449  58.3285637   4.2303939  75.3323746
   8.7263174  22.3322906   2.5663574   9.0626173  23.1022110   3.0250025
   9.4388361  21.6948929   2.6140311  60.6569176  62.0770035  72.1978531
  60.3807373  61.1729584  72.3483734  60.6504173  62.1740379  71.2456055
  51.1453667   9.7108526  56.7529984  50.3185196   9.9344931  57.1802444
  50.9334984   8.9588127  56.2000237  52.6097221   5.6393709  53.2426186
  51.8692284   6.2446222  53.2029686  52.2681808   4.8728933  53.7031555
   3.8932049  24.0597000  55.0758743   3.6191819  23.5411625  54.3193970
   4.3161645  24.8304710  54.6973915  83.4665680   5.5314627  58.9458847
  83.3900757   6.2554860  59.5673103  83.6463547   4.7656779  59.4913025
   3.4370649  62.4541893  62.3714371   2.5995939  62.8178978  62.6588211
   4.0773215  62.8122215  62.9863510  42.6703835  65.2173004  54.5657768
  41.9329720  64.6074524  54.5890694  43.0041161  65.2239609  55.4628906
  12.8711567  34.7168121  78.8597794  12.3597164  35.1715317  78.1905289
  13.7539244  34.6660080  78.4932098  34.4787216  68.1719360  54.3844452
  34.4703140  69.1260605  54.3082275  34.2606735  68.0029449  55.3010330
  79.2382889  60.4897728  66.8324585  79.9095917  60.8101158  67.4349289
  79.1391602  61.1916313  66.1891861  16.8932571  54.3055344  17.9574585
  17.4628639  53.8656235  18.5885353  16.1115799  54.5353012  18.4598751
  28.2532253  62.6503296  22.7057781  28.2996616  62.9374962  23.6177044
  27.3624668  62.3145943  22.6054554  62.5066185  24.0404911  19.8711758
  62.9538460  24.6389465  20.4695683  63.0156631  24.0862370  19.0618477
  69.7316895  58.5959396  16.1203728  70.6016312  58.2192993  15.9878139
  69.5235596  58.4022369  17.0343723  18.8408871  47.6953354  41.3465385
  19.0556068  46.7816391  41.5343895  18.0038261  47.8402290  41.7876396
   3.9242904  32.6556778  35.1393814   3.5802462  32.1999474  34.3711510
   4.7305384  32.1868782  35.3548393  75.8430939  60.2797432  42.1455841
  76.3489532  60.8174820  41.5363426  76.4498825  59.5914879  42.4182396
  82.3452072  52.7755241  32.7827606  83.1040726  53.3542061  32.7087440
  81.5987778  53.3287315  32.5524635  36.8977814  13.7149725  77.2326355
  36.9759483  14.2626371  76.4514923  37.1863289  14.2788095  77.9503098
  27.5088310  50.1861420  27.1392517  27.7341671  49.3792801  27.6023216
  28.2556248  50.3479881  26.5627670  81.6170807  14.9158525  52.0675812
  81.4083252  15.4439430  52.8381462  82.4371185  15.2847300  51.7394142
  21.8271923  43.9315834  42.5625305  22.6771812  44.2360458  42.2446404
  21.7600288  44.2900925  43.4475098  51.4072609  66.2263260  81.9177170
  51.4409180  66.5012283  81.0014572  50.6572990  66.6968613  82.2815628
  58.5438004  57.1998863  72.0307770  58.7483101  57.8118324  72.7378311
  59.3724594  56.7556458  71.8513260  85.2468262  61.4501801  26.1249733
  85.3489304  60.9242363  26.9181881  85.7611771  62.2397156  26.2932434
  67.9608307  43.4550858  66.1215820  67.7892685  43.4928436  65.1806335
  68.9062195  43.5840225  66.1980286  68.9246292  68.4365463  54.0280075
  68.9950256  68.0250626  54.8893738  69.0101089  67.7117691  53.4086304
  79.6943054  50.3939972  36.5774918  78.7815018  50.1230965  36.6756172
  80.1014938  50.1715279  37.4147110  85.0226593  19.5592766  21.3170338
  84.7196960  20.2973309  20.7881489  84.5113220  18.8135948  21.0028362
  77.7555237  13.5435286  38.3492661  78.0596619  14.2199154  37.7440910
  78.5076752  12.9610205  38.4550438  31.0239162  42.5239067  35.4931068
  30.9140911  41.9862976  34.7087936  30.6379986  42.0024147  36.1969147
  72.8349915  70.8180466  44.3507233  73.4859467  71.5186462  44.3101730
  72.3437195  70.9937134  45.1532364  42.9389420  49.9783325  88.9062881
  42.8514862  50.1443977  89.8449097  43.4432526  50.7224503  88.5773697
  72.8392639  45.0781136  69.6175461  73.1637955  44.2081032  69.8499069
  73.5989304  45.5253906  69.2445984  39.4353828  37.3989487  72.6790543
  40.0393906  37.3366203  73.4189987  38.7291565  37.9635277  72.9932632
  71.1076889  54.0693245  23.1148663  70.8338165  54.9048653  23.4931507
  70.3861923  53.8198814  22.5374146  13.1156845  48.5410957  50.3398209
  13.4158897  48.1311073  51.1510010  13.8391638  48.4152489  49.7258415
  65.6618652   4.8249159  84.5533981  64.9401321   4.5655656  83.9806213
  65.9357758   4.0113673  84.9768829  12.0515518  50.1189461  30.9239388
  11.2521076  50.2252121  31.4395256  12.4395475  49.3062782  31.2483807
  13.5973139  11.5979939  11.1011734  14.0823765  11.5876350  10.2760448
  13.7961645  12.4519339  11.4851990  81.6909409  15.6862812  49.0750771
  81.0699768  15.6783562  48.3466721  81.4476242  16.4563713  49.5888748
  56.0685349  69.5291061  10.7335567  56.7220840  69.6614075  10.0468273
  56.3393097  70.1173782  11.4384317  59.9997940   6.2734385   4.5426483
  59.0915298   6.1372981   4.8123760  60.4325981   5.4403963   4.7296104
  50.8735695  14.9422007  22.9729328  50.2246170  14.4340305  23.4596119
  50.3584328  15.4537029  22.3490505   4.0301871  18.0614605  11.6030741
   4.0520988  17.1074142  11.5285835   4.2322755  18.3752270  10.7216311
   2.9062471  34.2024879  88.4607468   3.3994310  33.8642006  87.7133789
   3.4843452  34.0650826  89.2111816   5.4469266  70.0434341  69.2911911
   5.1162043  69.1631165  69.4697571   5.6121645  70.0505447  68.3483887
  50.9679604  34.2694092  72.1060257  50.3876762  34.6610489  72.7588043
  50.5712013  34.4974594  71.2653046   0.6372728  53.9200439  87.1189804
   0.9357081  53.8833771  88.0277328   0.9937570  54.7423210  86.7828064
  64.5821381  46.4177513   9.9330006  64.7346725  45.5200386   9.6379051
  63.6320343  46.4792023  10.0318270  68.3500671  71.3343964   8.7947302
  67.7710724  71.7815552   8.1774397  69.2020111  71.7525330   8.6699400
   4.3831863  67.2077560  78.1555634   4.6328297  68.1080551  78.3638458
   5.2106400  66.7697678  77.9562683  82.5916595  12.5578060  58.5750160
  82.3314438  11.6851444  58.8699493  82.9696732  12.9702902  59.3516693
  -0.2362008  16.6793938  41.5711594   0.0317827  17.5898247  41.6957932
   0.4051499  16.1708584  42.0674362  52.2323303  52.5996399  12.0511875
  52.8774223  51.9193726  11.8579960  51.6987610  52.6557961  11.2584848
  47.3578644   8.1678047  11.5858603  47.9391327   8.3000059  10.8369389
  46.5111542   7.9497066  11.1963167  29.7211475  39.6603966  12.3528328
  30.3286629  40.3433495  12.6369667  28.9778118  40.1387291  11.9855728
  53.2262917   7.6222644  21.4138660  53.9174652   7.9573283  20.8426933
  52.6197624   7.1785636  20.8210068  58.8517151  60.1760368  33.7521896
  59.5578575  60.4881287  34.3180466  59.2795372  59.5697327  33.1475449
  20.9841995  59.1609688  65.9620895  21.0019970  59.7898178  65.2406540
  20.8512897  59.6970444  66.7438736  72.4077225  24.7192955  32.1631622
  71.4851685  24.5998363  32.3886833  72.4077225  25.4318657  31.5240402
  50.3861084  39.1419296  30.1992779  50.3380051  38.2163773  29.9599628
  50.9351921  39.1584129  30.9831543  82.9060669   9.3162260  26.6501026
  83.6074371   9.9666929  26.6848392  82.6194153   9.2243328  27.5587368
  21.3039780  28.6122608  16.4785633  22.2555885  28.6853447  16.5515518
  21.1658554  27.9319477  15.8195286  41.0822296   8.0707598  75.0044556
  41.4835815   7.9157763  74.1493912  40.3271484   7.4828200  75.0247192
  75.3450546  63.6241646  86.4863968  75.3202286  64.3197556  85.8292999
  74.4879761  63.2028999  86.4217377  33.8536911  59.4505196  30.9936504
  34.8019829  59.3888359  31.1084118  33.6691704  60.3892365  31.0252190
  43.6052208  54.8218498  19.5104523  44.1576500  54.3629265  20.1432610
  44.0341492  54.6752357  18.6673889  15.1139402  55.6776848  69.3326416
  14.9010010  56.2522125  68.5972443  15.9159575  55.2303391  69.0626755
  77.7943802  17.8014355  45.3879242  78.1065369  18.4677753  44.7757301
  77.4374466  17.1111412  44.8290634  71.5649033  30.9560757  20.8940029
  72.0545425  31.1597843  21.6908627  71.4220963  31.8056793  20.4768543
   5.6593189  49.0389214  45.2262344   5.1936727  49.7651634  44.8115349
   6.4494548  49.4378967  45.5905647  23.3532715  51.8319550  58.1443214
  24.1123028  51.4690475  58.6008301  23.6735706  52.0253029  57.2632675
  65.2637024  63.0946617  80.0475616  65.6593399  63.2146111  79.1842422
  64.5976639  63.7798882  80.1030960  32.3397217  61.2904816  51.3287354
  32.3409195  61.5940361  50.4209442  33.2112160  60.9160156  51.4572144
  59.0488625  21.9878597  78.2522354  58.5497475  21.8441410  77.4482040
  59.1129379  22.9399490  78.3274078  85.0458832  47.3375473   5.3581262
  85.1643753  47.2728539   6.3057575  84.1104813  47.5060272   5.2446642
  41.8232307  51.9268036  55.5821342  41.2838020  51.6196213  54.8535156
  42.6525497  52.1793518  55.1763306  66.2211914   4.4097476  50.7700920
  67.0931778   4.6571350  51.0777702  66.3315048   4.2624512  49.8307495
   4.1532364  61.3731766  76.1686020   4.8168612  61.5726357  75.5082626
   4.4220099  60.5289383  76.5308914  85.0673752  39.0077248  69.2434540
  84.4835587  38.3467445  68.8713074  85.7653961  38.5030136  69.6608963
  15.4818134  50.3387642  36.5300827  15.3343563  50.0398293  35.6327972
  15.3679342  49.5537567  37.0658302  73.5632248  19.7422867  64.0886612
  74.0415878  19.0480614  64.5419312  74.2457428  20.2856102  63.6947136
   8.0508327  60.1902084  55.3668900   7.6939359  60.3483505  56.2408752
   8.9948349  60.1114273  55.5043182  70.2338943  40.0434799  50.7220879
  69.7662964  40.8576241  50.9085159  70.4423599  39.6841431  51.5844383
  56.0091362  17.7498589  70.1992874  56.0097198  18.1174431  71.0830917
  55.6893921  18.4611549  69.6442642  16.3092937  57.7484589  16.4484615
  17.0080204  57.9924316  15.8414297  15.9739313  56.9195213  16.1069527
  83.0736313  40.3407059  46.2164879  83.9641724  40.2036514  46.5395584
  82.7004166  39.4609222  46.1623878  29.4172764   3.5514481   0.2454458
  29.5380630   4.2416959   0.8975199  28.5464916   3.7142191  -0.1171424
  43.6606979  70.6174545  82.5752869  42.9316902  70.0650406  82.8574524
  43.6076317  70.6143341  81.6195679  82.7374344  16.7787666  60.7890816
  83.3801270  17.0173740  61.4570999  82.2536011  17.5876961  60.6224403
  61.8449402  69.6066971  19.6830273  62.4202271  70.1895370  19.1874790
  62.1302338  68.7257233  19.4406948  24.1549530  40.5761719  72.2693710
  23.2734337  40.7859955  71.9609375  24.4374294  41.3608589  72.7391663
   7.8424840  48.4606438  60.5285797   7.3409381  48.3882370  59.7165222
   7.2157230  48.2402344  61.2176552  84.9431305  65.8347626  50.7067490
  84.1517105  66.2042465  50.3151245  85.1552582  66.4303741  51.4254112
  53.2262421  58.7966652  89.3620682  53.1711769  58.4025078  88.4915237
  54.1344681  59.0899315  89.4351883  82.9843597  64.7938156  45.3567657
  82.1838608  64.9700317  44.8624153  82.9496765  65.4033737  46.0939674
  13.2873316  35.9871445  75.0995255  13.0228186  36.0497780  76.0173187
  13.8400936  36.7554283  74.9566040  82.3345871  53.8756599  86.9354324
  82.7150116  54.5263138  87.5254822  82.9305801  53.1283989  86.9866486
  39.6783943  47.3712349   1.6361835  39.3039856  46.4907188   1.6634126
  38.9247017  47.9547920   1.7236137  62.7509842   1.7549059  32.4106102
  63.5383148   2.2796834  32.2658730  63.0277252   1.0710545  33.0205231
  53.6549339  59.7605515  53.2983208  53.1250038  59.0235977  52.9945068
  53.6745491  60.3638115  52.5554008  49.6222267  29.6252384  64.2212906
  50.4049110  29.2490540  64.6239395  48.9610977  28.9368610  64.2939072
  50.6710358  31.0733852  60.6701851  51.3507957  30.6637726  60.1350479
  50.8401985  32.0124855  60.5946655  63.6225395  26.1180630  30.0388260
  63.6836128  26.5849953  29.2054749  62.9480019  26.5888634  30.5282917
  83.0561600   2.9232519   2.1889079  82.7059174   3.5556629   1.5615176
  83.9762268   3.1681619   2.2875688  47.7929153   9.7873297  55.0885773
  47.6842842  10.6001158  54.5948067  48.2075043  10.0582838  55.9076805
  52.2872162  26.1415310  14.3826962  52.5511093  26.8581161  13.8055487
  51.4615021  26.4355259  14.7674017  52.2615128   1.8868529  26.9248104
  52.2589264   1.0286657  26.5008526  53.0124397   1.8588192  27.5177345
  62.7023544  17.8736763   1.2454243  62.3233414  17.0000019   1.3417200
  61.9592438  18.4691582   1.3424686  64.3837967  26.7688446  24.7263813
  65.1420670  26.6007805  24.1669006  63.6441002  26.8127346  24.1204529
  35.0999565  57.0516815  25.9518127  35.0051537  56.3515892  25.3059692
  35.6035805  57.7283516  25.4993572  35.5865669  25.1645107  86.3742828
  36.1446800  25.9202557  86.1910095  35.3171844  25.2810440  87.2853775
   0.8577046  52.6519241  48.1048775   1.7399867  52.8412552  47.7855606
   0.2809766  52.9257317  47.3916855   5.4938655  36.1016846  19.5878544
   6.2253752  35.8723183  19.0146885   5.6919541  36.9896622  19.8853149
   2.4527485  66.8694992  21.4608688   2.7552137  66.7097855  22.3548698
   1.5695701  66.5011520  21.4374237  51.8361664  61.0526237  85.5809555
  52.4384422  61.5658340  86.1195755  52.3881340  60.6793480  84.8937683
  59.2373314   6.7868729  25.1673889  59.5558548   5.9320717  25.4573708
  59.6363602   7.4098215  25.7747955  43.0936012  45.9044304  77.2068634
  42.2352524  45.9552307  77.6274414  43.5094604  46.7424850  77.4092484
  60.2061729  54.4032097   7.0198045  59.9220543  54.7765579   6.1854682
  59.4053917  54.3441467   7.5408516  62.5931091  68.9131012   7.6354856
  61.6875420  68.6787567   7.4323406  62.7091751  68.6511688   8.5488062
  75.1265793  17.3626938  64.7511215  75.4735413  17.4626541  63.8646355
  75.0012131  16.4193649  64.8543015  40.3218040  21.0044079  86.4220428
  40.7959785  21.2506161  87.2162476  39.4055557  21.1975956  86.6205215
  80.4205780  68.4733276  15.3072500  80.4742737  67.7338028  15.9126015
  81.1542130  69.0372086  15.5523205  10.5649300   8.6313190  17.0259972
  10.0860443   9.4305820  17.2452698  11.2635107   8.5839853  17.6786671
  75.8906555  15.3075323  70.5772018  76.5412827  15.4955101  71.2536469
  76.3425446  15.4891462  69.7531662   7.5787401  63.5719681  29.5280895
   7.5592284  64.1018753  30.3249893   7.4225602  64.1975174  28.8206100
  50.6877213  11.4932003   6.6676459  50.5689697  10.9756145   5.8712578
  51.3788910  12.1174726   6.4467330  54.0193634   4.4108567  38.9322510
  53.5243912   5.1603589  38.6013718  54.9363136   4.6548619  38.8061600
  54.9502182   4.4003811  52.2600517  54.0858002   4.7766933  52.4255753
  54.9391289   3.5623176  52.7223930  83.4429092  11.6139250  71.9393921
  82.7910767  11.0007620  72.2790604  84.2775726  11.1562901  72.0400772
  72.7092896   5.1318555  60.2183228  71.7883987   5.0072770  60.4478149
  73.1323700   5.3663263  61.0443153  26.3712177  63.8717995  86.6242752
  27.1191063  63.7837143  86.0333939  25.9824409  62.9975014  86.6505280
  36.9362717   8.4556894  72.2557373  36.0653381   8.5464668  71.8691330
  37.1330872   9.3232450  72.6090698  84.0055466  21.6476173  19.7291336
  83.5131836  21.7777748  20.5396080  83.3407135  21.4213886  19.0787086
  57.8769379   3.8902376   7.2531672  57.0177040   4.2898812   7.1181297
  58.4480934   4.3323026   6.6250010  76.9594421  16.5378361   9.7687635
  76.1988907  16.4133205   9.2010555  76.6786575  16.2059631  10.6215534
  28.4681473  35.1585770  81.6421051  29.0130978  35.4111977  80.8968201
  28.7229824  34.2552299  81.8298569  61.7359467  51.1606522  66.5982895
  62.0277023  50.2875633  66.3359451  62.5278397  51.6974258  66.5664673
   1.2144657  39.8544502  32.0810394   0.3215931  40.1709099  31.9436989
   1.1043386  38.9639587  32.4143982   4.9834542  27.3466892  55.7983322
   4.7904506  28.2839527  55.7755394   5.6310587  27.2185822  55.1052017
   1.5478885   5.9586072   8.9453650   2.3310561   5.7228417   9.4426527
   0.9971726   6.4261656   9.5733252  32.8250313  36.2702484  87.3900604
  33.5799713  36.7952538  87.6558914  33.1865959  35.4008598  87.2178192
  10.4387789  52.8900833  26.6478977  11.2581224  52.4071541  26.7560139
   9.9454260  52.3833733  26.0028553  26.6317825  47.9365311  42.9070015
  25.7701492  48.0691910  42.5117531  26.6017857  48.4390869  43.7211075
  17.3109264  63.7982330  52.5433006  17.5386047  64.3598633  51.8023834
  16.4417915  63.4593811  52.3287964  10.9975672  51.0845375  10.8795614
  11.3064499  51.9901390  10.9062338  10.4179792  51.0067482  11.6373596
   4.6104445  14.8538055  13.3934774   5.3771715  14.2807980  13.3983212
   4.1851392  14.6777201  12.5542269  82.4847565  69.1005478  71.0347443
  81.5651703  69.3436050  71.1420822  82.9410172  69.9341583  70.9200821
  49.5614243  46.6133995   6.0080366  49.3175888  46.9756660   5.1562505
  50.5149994  46.5382576   5.9722576   9.8349619  68.2974396  64.0445633
   9.2916050  68.9752731  63.6426506   9.9877157  68.6103439  64.9361877
  39.2314491  58.6119804  10.2920923  38.6325951  58.6538544  11.0376482
  40.0977211  58.7579880  10.6722040  64.0300140  16.6896992  30.1863670
  63.5138855  17.1170025  29.5028095  64.0933990  17.3435059  30.8826084
  64.7963791  56.6964264  44.8791809  64.9125214  57.1911659  44.0680275
  64.6534500  57.3649940  45.5491257  68.5064011  54.2857933   1.8742555
  67.6396103  54.3237915   2.2785645  68.9861450  55.0149460   2.2672074
  20.9169788  40.1440468  60.3252792  20.3659267  39.3881493  60.5282440
  21.1431408  40.5118523  61.1795654  56.3741570  44.6177635  36.6872406
  57.1531563  44.2268448  36.2915421  55.9716530  45.1195984  35.9784508
  64.2585602  57.2610092  24.9520130  63.4306107  56.7859573  25.0231171
  64.4167938  57.5997238  25.8331871  75.6108322  24.0102367  68.4720688
  75.3462219  23.5235958  67.6914291  75.2414551  24.8842640  68.3460922
  14.6314220   1.1075261  65.2232208  15.1004944   1.0797453  64.3892975
  14.9781408   0.3650225  65.7178955  47.5535278  37.1713181  26.7200985
  47.0694046  36.6828842  27.3858986  47.9824066  37.8764763  27.2049160
  65.6906433  65.2152863  34.9695930  64.7362823  65.2597427  34.9109154
  65.8581772  64.6529312  35.7258492   3.8051403  11.8011560  86.1602020
   2.9888206  11.5604486  85.7221222   4.4813604  11.3105192  85.6930466
  55.1969185  59.8157997  44.2941208  55.2894249  58.8784637  44.4646263
  54.9290276  59.8670464  43.3766022  43.2184372   7.0904613  69.5351639
  42.2846565   6.9727998  69.3606949  43.3566132   8.0355482  69.4723206
  75.4508438  55.1971779  62.3747292  75.3663025  54.4109802  62.9141541
  76.1136475  55.7239342  62.8213310  86.3253860  41.9680672  20.3564453
  85.7761154  42.7147369  20.1176720  85.7833099  41.4534760  20.9544239
  67.3195190  58.3899841  25.9407349  67.5233612  57.8736687  26.7205429
  66.4415359  58.7344055  26.1042919  37.0142555  37.5356789  65.5721130
  37.1409683  37.0482941  66.3861313  37.1279869  36.8825150  64.8816986
  58.4254761  62.1399078  68.0036240  59.1417885  62.2428474  68.6301422
  58.0806580  63.0251274  67.8864899  65.5106354  60.5586395  14.3935852
  66.0764542  60.0945358  13.7765846  66.1104889  60.9072495  15.0530357
  59.5152016  18.7551556   9.6561546  59.4452133  17.8121605   9.5075150
  59.4713402  18.8515778  10.6074753  56.1951599  46.7516479  59.9963226
  55.7870445  46.0933113  59.4339447  56.4828377  46.2628632  60.7674026
  41.8079605  52.3623085   2.1232958  41.5282173  52.1205101   3.0061944
  41.1792030  51.9293633   1.5458394  55.0761604  42.8109016   7.2581091
  55.4524193  42.0816078   6.7653694  54.9238892  42.4551773   8.1336117
  69.2758026  44.2316475  35.7102699  69.3110428  43.7712708  36.5487480
  69.8489990  44.9890556  35.8286209  29.8269253   5.6151624  17.3942318
  29.6310596   5.6348491  16.4574928  28.9689369   5.6227612  17.8185329
  19.5334568   1.5042334  15.3367252  19.9663754   2.1397510  14.7666988
  19.8835068   1.6871029  16.2086525  19.4178009  59.8256607   2.1639605
  18.8107338  59.8290520   2.9040208  20.2432499  59.5112114   2.5327268
  21.9589787   1.5788020  -0.1616570  22.3405609   1.4106592   0.6999432
  21.1239243   2.0075169   0.0257462  61.3022957  28.9662628  21.3013248
  60.6083870  28.7090340  20.6942368  61.9995461  29.3037224  20.7390156
  32.2971725  15.3089657   5.9595604  33.1578255  15.6657686   5.7400250
  32.4437523  14.8056135   6.7604241   2.4965799  28.7322502  71.7267990
   2.1910865  28.8360577  70.8256149   1.9328238  28.0513172  72.0938644
  75.8738480  55.7092972   3.8787239  76.6129150  56.3120346   3.9606915
  75.1326981  56.1870728   4.2510972  77.2015457  69.3035202  72.4498444
  77.8558960  68.6690674  72.1574020  77.7118378  70.0032425  72.8575439
  52.6167831  30.2325592  16.6716728  52.2732964  29.7870007  17.4460926
  51.8419876  30.5889225  16.2370110  51.4912758  39.2443542  65.4108582
  50.7567825  39.6219597  65.8947601  52.2083702  39.8648224  65.5413589
  36.6086884  64.1096725  10.9821138  35.8248596  64.6575851  10.9416704
  37.2665100  64.6633530  11.4027510  19.2634106  22.3846016   4.8409786
  19.0940247  22.3057194   5.7797642  18.3944473  22.4561844   4.4459968
  43.1602325  59.6953659  50.7520828  43.6979027  60.4745636  50.6106644
  43.5665970  59.2563553  51.4993248  31.7182922  55.9101295  84.2332840
  32.6677475  56.0279160  84.2034607  31.4956532  55.9931831  85.1605225
  57.2240753  49.1488228  89.0492249  56.8099861  49.9590378  88.7520523
  56.5060272  48.5180130  89.1013870  85.5965576  47.9780731  29.1827774
  86.5427246  47.9232941  29.3169384  85.4968872  48.1472359  28.2459316
  15.0226221  44.6613693  37.1581383  14.0863972  44.5838165  36.9745598
  15.1548891  45.5919151  37.3393211  82.4292374  62.5821114  38.3168831
  83.2247086  62.1786232  38.6642303  82.0447235  61.9089355  37.7554436
  16.7592354  45.0739212   2.7390299  16.8614140  44.3042603   2.1791964
  17.1488323  45.7892265   2.2362504  74.1902390  11.6211252  54.2470207
  75.0738678  11.8635874  54.5238647  73.7120361  11.4845247  55.0648804
  14.4887228  70.0116043  70.1782608  15.1126442  70.5605850  69.7033157
  13.8044701  70.6175919  70.4625320  34.7904434  65.7326508  50.3472939
  35.1326408  66.4544373  49.8198891  34.2368393  66.1566315  51.0030365
  61.6941528  38.0561562  27.5664463  62.6479034  38.1249580  27.5233097
  61.3784561  38.7076836  26.9402847  36.8857841  58.6520996  20.4549484
  36.8420525  58.7729874  21.4034767  37.7218781  58.2097969  20.3081646
  33.6870461  58.4036598  48.1804543  33.9360771  59.3249130  48.2546387
  33.2591400  58.3392220  47.3266525  47.9284630  46.4479904  19.9171848
  48.5189629  45.7915764  19.5475140  47.3674355  45.9552689  20.5161037
  51.5922050  44.3384209  42.3948975  51.3909988  44.3100090  41.4595184
  51.2613144  45.1883469  42.6853600  35.1231613   1.0319208  31.8754654
  35.1853065   1.7628716  32.4903488  36.0252533   0.8773963  31.5951366
  72.5388107  63.5781250   6.9259152  71.7098999  63.2691765   7.2915587
  72.4363556  64.5281448   6.8693590  35.9417725  67.5809860  48.6320839
  36.7796097  68.0326080  48.5306168  35.3444748  68.0506439  48.0499496
  39.4185028  49.0355949  66.8203583  40.2196312  49.4304543  67.1646118
  39.6274376  48.8243790  65.9104309   4.3861570  21.6985321  11.6122456
   3.8213274  22.4476204  11.4223280   3.7950361  21.0386486  11.9746838
  74.7545013  26.0581913  79.3587646  75.2354279  26.1481953  78.5360565
  73.9033890  25.7039719  79.1011505  51.0043526  44.3060722  16.7011814
  50.7767029  45.2356529  16.7180023  50.8916054  44.0483894  15.7862377
  44.8491631  50.5451355   4.1906958  45.7424202  50.2381668   4.3459182
  44.9337082  51.1769180   3.4765997  76.8761597  55.6906204  11.2234650
  76.5612259  55.4787560  10.3447371  76.3860779  56.4747124  11.4709616
  75.7461395  44.1125031   1.0462343  76.2355499  44.8914680   1.3106725
  76.3791122  43.3976288   1.1136260  35.0088463  63.7588806  23.7246151
  35.8603439  63.3223572  23.7497597  34.5067444  63.3451042  24.4266949
  69.3122940   5.0597582  14.5330734  69.4887390   5.7366762  13.8797112
  70.0098877   5.1638422  15.1801920  71.1331482  37.7744179  20.0653820
  71.4513245  38.6198807  20.3819065  70.5134277  37.9966125  19.3705349
  48.4288330  29.3110485  28.8522072  48.0299683  29.6705132  29.6446247
  48.1321411  28.4013634  28.8262081  14.6521177  64.0775223  58.5773010
  15.2237720  64.7164383  58.1515923  15.1816273  63.2820702  58.6330414
  81.0083389  63.8215675  53.2217979  80.6869507  64.7119370  53.0797348
  81.9117508  63.8397865  52.9059753  14.3709421  58.7766342  83.5820389
  13.6896105  59.0746765  82.9793854  14.9417801  59.5369263  83.6931000
  29.4110088  59.9061584  21.8351192  29.4212990  60.1653519  20.9137363
  28.8868103  60.5801964  22.2676964  30.7812462  37.9792633  18.1028137
  31.0300636  37.1893005  18.5826912  30.2616405  38.4852753  18.7274685
  67.0962906   8.9419107  73.6491165  66.5926819   9.5426416  74.1984177
  67.2478180   9.4282990  72.8387451  68.6442184  17.2165146  16.2472687
  68.4767456  17.6454220  17.0864487  69.5704575  16.9774017  16.2811298
  61.2155952  59.1060638  21.1802940  61.6682281  58.4802055  20.6149101
  60.9739342  58.5980148  21.9547100  85.5291290  60.1268921  28.5447235
  85.2441025  59.3865166  29.0802917  86.1088257  60.6282043  29.1181927
  50.0758400  26.9219952  15.6375303  49.4932594  26.6522999  14.9275341
  49.8501587  27.8383465  15.7975349  62.5051613  69.7394714  41.0324821
  62.1042099  70.1332397  40.2576141  61.8931274  69.0522232  41.2958069
  84.5502625  55.2553864  60.6693420  85.1666794  54.8733444  61.2940865
  83.8379898  54.6182060  60.6155090  59.3421249  53.4744606  84.0333176
  58.8099785  53.9363594  83.3854752  59.4886551  54.1185608  84.7260666
  17.1426373  60.9580765  38.2052040  17.4581184  61.8596458  38.2674675
  17.9215298  60.4463081  37.9869080  10.3600016  40.7969666  49.5752754
  11.0950565  41.1466446  50.0789108  10.3906183  39.8529816  49.7307930
  49.1909866  59.4863014   9.7724800  49.5713310  58.6135979   9.8723021
  49.5608711  59.8165550   8.9537325   2.3358071  49.2409821   1.2591518
   1.9499418  49.2815628   0.3841129   2.1258144  48.3614044   1.5729634
  29.7593212  65.5484924   3.3721974  28.9205780  65.3244324   2.9690351
  29.7567501  66.5047379   3.4147666  57.1356354  39.8056793  49.4671860
  56.6139755  40.6018448  49.5682869  57.8881187  40.0774879  48.9417114
  69.5836258  59.8311996  84.0029373  68.7690277  59.4796562  83.6436615
  70.2693787  59.2807198  83.6248550  47.1224480  61.1534081  75.7794342
  46.4170532  60.6759567  76.2161102  47.2746696  61.9174042  76.3356552
  69.8454895   0.7456689  15.0672531  69.4443893   1.1284919  14.2869968
  70.5007477   1.3881375  15.3394556  33.1558838  61.5533447  63.6852493
  32.4246178  61.1614532  63.2078552  32.7643051  62.2815971  64.1674728
  48.3377037  21.6620960  68.5820999  47.5486641  21.1724281  68.8142166
  48.6933289  21.1979885  67.8242264  24.7230606   7.2920694  57.1246452
  23.8634453   7.7131100  57.1206627  24.5795708   6.4505076  56.6917305
  46.5118828  56.1963043  69.2274857  46.9405899  56.0845146  70.0759811
  46.6765785  55.3741608  68.7657623   9.9380484  35.0124817  13.2982826
   9.3468084  34.8469810  14.0326376  10.0488777  34.1573982  12.8826113
  53.8656464  31.4179955  24.8301888  54.5752373  31.0703144  25.3703995
  54.2878952  32.0698318  24.2706795  12.0485697  25.3040638  17.8763847
  12.0372829  24.6827145  18.6044159  11.7641315  26.1319332  18.2636299
  62.5880127   9.0802021  72.7431412  61.7002563   8.7940874  72.9582291
  62.9443283   9.3992243  73.5722961   3.5112839  36.9705086   3.7051890
   3.3117070  37.5104561   2.9404299   3.1246493  37.4451828   4.4410076
  18.8373184  54.4697304  85.4917755  18.6730976  53.8892937  84.7485657
  19.7356606  54.2717476  85.7563782  13.3240767  44.1278496  43.6895638
  13.7545137  43.7176323  42.9394417  12.4088326  43.8567886  43.6182365
  13.1357183  40.0070610  22.4418297  13.6428804  40.1664124  23.2378349
  13.7737799  39.6646690  21.8158283  17.5012093  51.1223907  78.6662979
  18.3258152  50.9308128  78.2195816  16.8349209  50.6826248  78.1381912
  31.6257381   4.2339010  28.4145412  32.3989944   4.6949935  28.0894222
  31.3940601   4.6940489  29.2212772  76.5039749  64.7942505  76.7586746
  76.3385468  64.5779877  75.8410187  76.0115051  65.6015244  76.9070358
  10.7942190  41.2011032  80.7078247  10.1167383  41.8772697  80.7147217
  11.5924339  41.6643944  80.4539642  57.7816124  71.6970444   4.3151889
  57.2652321  70.9126587   4.1299324  57.3007584  72.1408920   5.0137639
  63.6761475  56.2733727  70.1026382  62.9863129  56.8931198  70.3398514
  63.3867874  55.9000244  69.2701035  16.3288879  28.3052979   0.9574487
  16.7899227  29.0836468   1.2702639  15.6135330  28.6494312   0.4225907
  44.4951248   3.2756474   1.5817291  45.2265968   3.5842881   1.0470147
  43.7158356   3.4947798   1.0709236  57.5014153  14.0321417  67.3555145
  56.5717888  14.0208950  67.1276932  57.6172943  14.8441668  67.8488922
  70.8581543  51.0577965  10.4811945  70.2083206  51.7572594  10.4126606
  71.6251450  51.4804611  10.8676062  15.0467072  47.8948593  67.0657349
  15.3468714  47.7512398  67.9632339  15.1375141  48.8381462  66.9308701
  18.9496880  33.2641602  78.6224289  19.6324902  33.3552361  77.9578094
  18.2597713  33.8649940  78.3409271  62.6768036   2.9537473  69.4441452
  63.0557899   3.8325613  69.4610596  63.4223595   2.3743768  69.2869568
  75.1029663  17.0277462  11.8466482  74.4923248  17.7263870  12.0817013
  75.0440903  16.4045105  12.5707636  56.2162819  36.8778343  35.4190331
  56.5461845  37.7167816  35.7408485  56.4726181  36.2460480  36.0908737
  11.1336632  53.8816986  73.5134659  12.0151796  53.8302803  73.8829498
  10.6317310  53.2273865  73.9994431  46.9064827  63.5133858  61.4925194
  47.4686699  64.2526703  61.2609329  46.4459457  63.8004837  62.2810020
  57.0518990  41.9679337  53.7700844  57.0073280  42.4135666  54.6160507
  56.3227425  42.3326530  53.2685394  10.4359913  56.0595016  18.7769966
  10.8278627  56.1396904  19.6466160  10.3564072  56.9612885  18.4660683
  19.0193195  53.3058739   9.1340380  19.4933052  52.8451424   8.4417267
  18.1256905  53.3854904   8.8003874  24.5668087  43.0612755  82.8895187
  24.9428310  43.9386673  82.9603806  24.2153282  43.0224457  82.0000381
  64.4012756  21.5048695   9.0250559  63.9370041  20.7502289   8.6628323
  63.9900780  22.2618980   8.6078539  80.4564667  51.0586967  55.5435677
  79.8845291  50.7789917  54.8288078  80.6179123  51.9864693  55.3720741
  74.2717438  17.9148712  32.1966171  74.5978317  17.0257797  32.0572968
  74.9806366  18.3599815  32.6609154  12.9651613  70.8196106  14.4621725
  13.7499113  70.5287552  13.9976234  12.2457170  70.6271362  13.8608532
  29.8103848  20.2433109  80.9749985  29.1837521  19.5550327  80.7517624
  30.5227146  20.1320934  80.3453598   8.1024313  60.1417885  41.8866730
   7.4582429  60.3062134  41.1980400   7.6379876  59.6001091  42.5247231
  64.7796860  29.9186726   8.4737015  65.3956909  30.4826946   8.0061026
  64.4057159  30.4821968   9.1510658  57.2310295  46.7331924  40.1801414
  57.7885323  47.4169655  40.5514565  57.1830177  46.9434776  39.2475586
  67.1804047  45.8840218  39.4643593  67.9775085  45.8890495  39.9942932
  67.4253693  46.3395882  38.6589508  85.8086929   7.7543659  45.8847923
  86.1846085   7.3021970  46.6400795  85.0774765   8.2558718  46.2454224
  34.5489388  11.7472849   3.2848079  33.7494774  12.2136497   3.5289361
  34.2474861  11.0324039   2.7241805  54.9059563  58.5274887  68.9630356
  54.7551765  58.7172241  68.0370178  55.3731232  59.2954941  69.2919083
  28.8360291  29.5707607  82.6557159  28.1040955  29.5601501  83.2724762
  29.4243813  28.8844395  82.9704132  50.5429878  57.2440491  67.9813690
  50.3989143  56.4395065  68.4795532  49.9846764  57.8935928  68.4086914
  68.4613342  67.3776016  74.0384750  69.2370377  67.6401749  73.5429306
  67.9733582  66.8136292  73.4384308  66.2788086  59.7650604  66.7284470
  67.0412521  59.3517189  66.3234024  65.8197327  59.0465813  67.1635056
  27.4009514  51.5296478  14.8019304  27.1113167  52.2475586  14.2389479
  28.3403149  51.6763153  14.9129143  13.7020750  55.6655121  80.9786453
  13.8945637  54.7431068  81.1470184  14.0817490  56.1294975  81.7248306
  20.5226574  59.9457016  39.6206398  21.3849602  59.6154289  39.3684769
  20.5096378  60.8485107  39.3028336  67.3785629  57.8593521   0.2082425
  66.6509476  58.0963821   0.7832441  67.2593613  58.4075851  -0.5673004
  70.3467331  48.0352516  84.2534943  69.6140747  47.8735161  84.8478775
  71.0172119  47.4077187  84.5234756  24.8349133  64.2185669  21.3845730
  24.6446819  63.4383545  20.8636913  25.2527905  63.8814659  22.1770229
  53.2607040  28.7159538  42.6183281  52.8978615  29.5763264  42.4077644
  53.2194595  28.6658173  43.5733223  54.3565788  41.7085724  41.1506958
  54.8623695  41.8650475  40.3532486  53.4772720  41.4949684  40.8385620
  45.9470863  14.3326931  84.7001419  46.3763962  13.5209446  84.4299774
  46.5180473  14.6908789  85.3797989  59.0146866  20.9380665  83.7870560
  59.8152161  20.4726639  83.5446014  59.2829208  21.5228329  84.4958038
  29.1541882  26.0575809  86.0474548  29.5901852  26.2736435  86.8717422
  29.1492558  26.8792953  85.5565414  51.1411400  56.2447968   1.1848314
  50.6352654  55.5729103   1.6418798  50.9141464  56.1292648   0.2621401
  26.3127670  56.7413635  45.9012566  25.5394440  56.4195595  45.4379578
  26.8413773  57.1608353  45.2224007  69.0022202   5.0003242  50.7521362
  69.4555740   4.6037474  51.4960670  69.1235428   4.3756948  50.0370483
  68.9906158  26.9203968  69.4777832  68.9065781  26.0400276  69.1115570
  68.0899887  27.2360744  69.5516052   5.0690188  18.5359535   9.2901907
   5.0897450  19.4570026   9.0304403   5.7470684  18.1213398   8.7567339
   7.8374405  44.8505745   9.9238214   7.2618232  44.4410095   9.2779493
   8.1293249  45.6603546   9.5051432   1.7391471  15.1331577  79.0614014
   1.8596351  15.2610521  78.1204681   2.6275127  15.1252737  79.4177399
  61.4391861  51.6691895  17.1821480  62.0337563  51.6694870  16.4320011
  61.9789772  51.9636803  17.9157257   0.4801157  10.3948450  83.8789520
   0.6361965  11.2332821  84.3135681   0.9609616   9.7579203  84.4074860
  34.1637459  47.4355659  68.5185776  34.5720978  46.6779900  68.0995789
  34.1281929  48.0997429  67.8302155   6.7978663  57.7430496  44.1551323
   6.0475936  57.1584282  44.0477180   7.5557351  57.1587334  44.1761436
  81.4178619  34.7615242  12.2302742  81.8522949  33.9610062  12.5246658
  80.5630035  34.4680824  11.9150820  14.1746521  52.5160103  16.8410149
  15.0020933  52.2114525  16.4684334  13.5147772  52.2682686  16.1933880
  23.6811771  15.1289787  48.6966438  23.9434834  14.2993422  48.2977333
  23.3948097  14.8908033  49.5784035  16.4643517  53.8310738  78.8555603
  16.2868042  53.7105827  77.9227219  16.9289455  53.0356255  79.1156464
  46.8999443  16.2850819  13.7745771  47.7530632  16.2167606  14.2032471
  46.2696304  16.2898045  14.4949322  69.0768814  14.3765230  72.3765335
  68.5666580  15.1020174  72.7364807  69.9129791  14.4182358  72.8406754
  83.4980774  57.3595695   7.5784678  83.7933121  58.1262016   8.0697298
  83.7823486  57.5268517   6.6798930  58.6685677  49.4428444  38.7573929
  58.6384163  49.5557098  39.7074356  59.4409637  49.9365578  38.4819336
  69.9910889  25.2863674  16.1076908  70.4707718  25.5747433  15.3311758
  69.0792770  25.2357464  15.8208694  42.8594398  25.0932045  10.1358042
  42.6435318  24.6705189   9.3045692  43.6545067  24.6492882  10.4308310
   5.8489065  64.6203995  85.4205856   5.1743827  64.3828201  86.0568314
   5.4275107  64.5020676  84.5693207   5.8081479   9.0105629  55.6528854
   6.1405730   8.1393099  55.4369125   6.4705882   9.3820391  56.2354736
  59.4157829  44.8415413  10.6877832  58.9160919  45.5009575  10.2064171
  59.4543152  45.1769142  11.5834799  17.9757042  62.5352173  11.3928528
  17.6303520  63.4159927  11.5384607  17.9925385  62.1376076  12.2634010
   3.2140541  62.2700768  20.3194599   3.7988017  61.5123100  20.3098755
   3.2603817  62.5970116  21.2179031  30.7636070  53.6071129  74.7528305
  29.8806973  53.5359077  74.3900146  31.0097485  54.5204735  74.6064835
  61.1364822   9.8813658  61.3333130  61.6288719  10.5011530  61.8715057
  61.7560768   9.1738005  61.1553078  83.9662018  20.4170399  68.0580292
  84.4562912  19.6513271  67.7584686  84.5927429  20.9103069  68.5875244
  80.7822266  43.7304840  63.9407654  80.1975708  43.9328461  64.6711502
  80.9063416  42.7825851  63.9888496  72.4961395  44.7231865  27.7985802
  72.7146301  45.1403580  28.6319256  72.3455124  45.4528847  27.1976757
  59.8265457  13.3636436  13.5837450  59.4476700  12.6210041  14.0540323
  60.6822853  13.4944334  13.9921989  46.7972031  68.2058487  67.4598541
  47.3605995  67.8162842  68.1284790  46.1080399  68.6482239  67.9554214
  66.4366989  57.9378891  38.2030716  67.3201447  58.2462387  38.4047546
  66.4647446  57.7240181  37.2704926  76.5079880  23.8699284  29.8911591
  76.0199585  23.0727043  29.6850109  77.4096375  23.5734844  30.0151749
  10.9344292  32.7029648   0.6975905  10.3548594  32.3148766   1.3531191
  10.3722878  33.3007431   0.2047526  65.5337448  12.0121689  69.4785461
  65.4653625  11.0932064  69.2195740  66.3800659  12.0738621  69.9214401
  76.2974472  66.9569473  27.8480282  76.8073425  66.3336182  27.3306217
  75.5252075  66.4635544  28.1244984  48.2747726  70.6979904  76.9901962
  47.7097511  70.7764359  77.7588501  49.1018639  71.0977936  77.2591095
  83.0672760  28.1233482   9.9454870  83.3453827  27.3371277  10.4153271
  83.8749161  28.6183052   9.8077393  55.5778427  41.0558357  46.3605309
  54.6371460  41.2278290  46.4022141  55.6725845  40.1615753  46.6884842
  81.2486572  44.2960091  11.8540163  80.9533539  43.4402924  11.5429211
  82.1868668  44.3089600  11.6647539  31.1441402  43.0555878  30.3712749
  30.8511600  43.7622833  29.7959690  31.0609684  43.4155502  31.2543049
  66.8391800  55.5889893  14.2023745  66.8767242  54.6573753  14.4189749
  66.1681671  55.9436455  14.7856359  57.9542503  23.8120213  80.7954025
  58.3824043  22.9615593  80.8935394  57.0518951  23.5997791  80.5567703
  24.7021847  48.1203651  83.7138443  25.3345509  48.6536369  84.1954651
  23.8491039  48.4716606  83.9689484  55.1256447  37.8172874  41.9139404
  55.0675049  37.7486992  40.9609718  54.6164742  38.5986824  42.1293411
  71.8777924   2.9159467  15.0504580  71.8671570   3.7013361  15.5975246
  71.5466614   3.2105234  14.2020435  57.3522987   5.6760769   4.7343192
  56.6104355   5.3066764   5.2132926  57.0364838   6.5231853   4.4198346
   7.5543847  68.0917130  53.4727783   7.2621951  67.4953156  52.7834549
   7.8139539  68.8868561  53.0073853  81.1364059  21.0259018   7.8424678
  80.6878586  21.4311771   8.5846195  81.7341232  21.7028580   7.5251331
  46.8240776   1.1375564   2.9454360  45.9090576   1.4084194   3.0202997
  47.2130623   1.7716855   2.3431056  77.3660355  12.1545773  62.9525719
  76.5191803  11.7084236  62.9574280  77.9025040  11.6568680  63.5695915
  64.1987000  56.4454651  39.9412651  63.7469521  55.6668129  39.6159058
  64.5330734  56.8749199  39.1538696   1.0501498  36.9226036   5.9662704
   0.1722774  36.5941772   5.7720847   0.9122758  37.5943260   6.6341119
   8.5688848  49.4951477   0.7388445   9.2248135  50.1044998   1.0774902
   8.4640713  48.8454475   1.4339236  68.4639893  42.4606819  50.6203575
  67.6450272  42.0396042  50.8815613  68.4437027  42.4509964  49.6634216
  65.0907516  43.9356918   8.2412786  65.8023605  44.5110397   8.5220356
  65.5110779  43.0879936   8.0965023  16.0264931  34.0854530  80.8495331
  15.7273254  34.9553070  81.1142654  16.3384743  34.2022934  79.9521790
  72.3846054   0.9042490  58.4714813  71.7587128   0.5264109  57.8536415
  71.8447418   1.4041969  59.0837135  58.9304390  59.2896042   3.3656220
  58.7959023  59.9014702   2.6419151  58.1344490  58.7582016   3.3811061
   2.5823958  43.5110817  37.3195610   2.4722679  43.8409729  38.2113457
   2.1002054  44.1318283  36.7733078  42.3465271  54.6393700  25.1131725
  42.9786301  55.2355309  25.5147495  41.8060760  54.3363724  25.8427868
  31.3427429  61.8875923  84.9378738  30.6094761  61.7521057  84.3377075
  31.4187603  62.8388672  85.0122452  47.3011169  22.4009857  65.3320160
  46.7653503  22.4309597  66.1246567  47.8587914  23.1767616  65.3903885
  36.1035423  44.2970047  49.6643066  36.5392113  43.8623199  50.3974342
  36.5879097  44.0064964  48.8915024  41.2074051  53.3004913  10.1073427
  40.8354645  52.7589760   9.4111719  42.0967369  52.9655762  10.2220316
   7.4372950   4.7823052  85.7873840   6.8789763   5.5583725  85.7401505
   7.1297989   4.2222862  85.0746078  54.2575989   0.1873474  67.6398849
  53.4119186   0.6274200  67.7258987  54.8131828   0.8223839  67.1879044
  23.2463627  58.5491257  29.3312702  22.2943058  58.4534187  29.3055382
  23.3914757  59.4949951  29.3536987  16.8201256   0.6734282  54.8630180
  17.2662315   0.5519745  54.0248833  17.5251484   0.8476939  55.4865608
  49.3193245  44.0730705  53.0778809  49.6344643  43.7674675  53.9284859
  49.3170509  45.0273895  53.1520653  66.3710632  56.9286919  73.4132233
  66.6788864  56.3264732  74.0905762  65.5508575  56.5433960  73.1049500
  10.1473618  54.3330574   7.7711334  11.0993195  54.2385864   7.8040352
   9.8126850  53.4627991   7.9876418  73.3098450  21.3528900  16.0912819
  73.8001404  22.0591354  15.6705065  72.4026642  21.6582718  16.0916252
  71.8058853  55.8927536  25.8353081  71.4396057  56.1860695  26.6695919
  72.7279968  55.7206154  26.0258713  55.5764999  41.1432915  22.8397865
  54.8218765  41.0049591  22.2673874  56.3236732  41.1920967  22.2434807
  28.3348331  66.0793533  60.4693680  27.8359585  65.5515289  59.8458595
  27.7774105  66.8384552  60.6404533  25.2423534   5.1425242  40.2779503
  24.5183811   4.7237916  39.8123741  25.0294113   5.0283842  41.2041588
  80.5008011  10.6002150  54.8247452  80.4335480  10.3291874  55.7403069
  81.0210190  11.4033003  54.8502884  19.4977798  10.1037140  16.8360806
  20.0424347  10.5961294  16.2219887  18.8283825  10.7279329  17.1162434
  72.5423355  43.2171173   6.9859118  72.4731522  43.9558334   6.3811455
  71.6744690  43.1516762   7.3843551  83.9117508  24.7777786  30.9272079
  84.4798737  24.5041771  30.2070637  84.0383682  24.1085110  31.5997238
  42.3109512  66.2516327  81.5576935  42.0130806  66.3515701  82.4618607
  43.2194977  66.5526581  81.5701752  50.2043228  66.6529617  64.6224747
  50.5023727  66.0064087  63.9826546  49.8480606  67.3667679  64.0935211
  10.5474367  57.0458832  52.5457649   9.6736069  57.2279930  52.8914375
  10.7525301  56.1667824  52.8641205   8.2145853  68.4348602  80.7919006
   8.4389353  69.2268143  81.2804794   8.8797722  67.7971497  81.0508957
  81.6558990   4.4093361   0.2996411  81.0964508   3.6413627   0.1835929
  81.1310349   5.1397123  -0.0279190  85.7228928  69.2697067  70.3906174
  85.0526581  69.9296799  70.2132797  85.6346893  69.0839462  71.3254700
  69.8992233  30.6837559  73.2390518  69.8140335  29.7680817  72.9735107
  69.6941910  31.1825409  72.4482269  34.9193420   8.5906906  49.6015587
  35.8594627   8.7584791  49.5363121  34.8575897   7.7368293  50.0297394
  70.4546127  16.8740845  71.4673691  70.2756729  15.9916220  71.1426010
  71.4077682  16.9112892  71.5470276  38.3886337  22.4576530  68.2498093
  38.1518097  22.4981441  67.3232498  37.6012840  22.1295414  68.6841431
  85.5679550  48.6607132  41.9776840  85.8774643  47.7601738  42.0749664
  85.5564194  49.0076942  42.8697052  10.1620836  42.4663162  86.5078659
  10.4787598  42.5915909  87.4024353  10.7938128  41.8659286  86.1120300
  14.1959190   6.9855762  22.3379498  13.3488913   6.5482354  22.2512989
  13.9876461   7.9193258  22.3068752  69.3111801  52.8649750  35.4436607
  70.1912918  53.1716309  35.6618233  69.4079361  51.9192734  35.3317566
  59.4521561  36.7111282  70.7131348  59.2815590  35.9417267  70.1698608
  59.5973244  36.3573189  71.5906219  11.4972038  13.1947346  76.9404526
  11.6319237  13.2326870  75.9935379  12.2058001  13.7252865  77.3046417
  42.2069969  36.4633141  14.1170425  41.5605698  37.1688118  14.0918150
  41.7673264  35.7521591  14.5830660  13.8903246  39.1072884  52.7635536
  14.2695808  38.5092964  53.4076080  14.6399918  39.5876350  52.4121361
  75.3459015  39.0545273  28.1726170  75.7753983  39.8992729  28.3073978
  74.6890869  39.2248001  27.4974556  32.4258308  58.4191513  45.6644020
  32.2923698  57.5651550  45.2531700  31.6289368  58.9094353  45.4623680
  66.8728943  16.7966652  34.4434128  67.0723114  17.6997242  34.6903000
  66.2656479  16.4924850  35.1179161  44.7283211  42.3539314   4.8960409
  44.2854843  43.1411247   4.5790987  44.5270882  42.3260994   5.8314347
  47.1903076  60.1615944  82.6732330  46.3065605  59.8036537  82.7574921
  47.6425819  59.8719406  83.4655533  80.7196808   3.3819304  21.1604385
  80.4868469   2.8300014  21.9070282  80.3516617   2.9274828  20.4026318
  53.6932297  61.3449707  50.0240173  53.9565582  62.2507286  50.1867714
  54.5141830  60.8843536  49.8505249   1.3081567  23.3509884  53.9117165
   0.6603436  23.2309723  53.2173347   2.0086348  22.7357883  53.6947136
  41.6153030  13.6548862  71.6186829  41.4579086  14.5899773  71.7493134
  42.3722038  13.6188126  71.0338516  58.8113098  29.4627285   2.2891424
  59.3979568  28.9047565   2.7997713  58.4013672  30.0356483   2.9371738
  61.4849968  57.5638466  44.6057243  61.1148071  57.0303879  43.9024391
  62.3077736  57.1285286  44.8288193  58.3038864   4.7958412  54.6008492
  57.6990776   5.4121423  55.0139008  57.8694458   3.9463339  54.6772003
  65.0961609  45.2958374  80.9943848  64.6085587  45.2593994  80.1714935
  65.5812302  44.4711113  81.0220795  11.6876345  38.5793610  81.0692596
  11.3234844  39.4620895  81.0028076  11.1074219  38.0398483  80.5321274
  76.7600250  13.1109495  45.8896637  76.6549072  12.2370758  46.2658615
  77.1510620  13.6290941  46.5931168  62.3665657  40.0703506  18.5770378
  62.1099739  39.3940887  19.2039852  61.8815727  39.8548622  17.7804317
  38.2419739  62.1623497  -0.0399828  38.7478409  61.7868576   0.6806667
  38.8900719  62.6226120  -0.5732362  13.2976990  45.7594604  53.4944725
  14.0346727  45.2113113  53.2249603  13.6483383  46.6501236  53.4924660
  41.0418625  20.0554371  58.5041618  41.5237923  20.1087990  59.3294678
  40.1283264  20.2004261  58.7504501  85.5604935  13.4833908   1.0063343
  86.3661194  13.9916687   1.1004144  85.8593597  12.5906601   0.8332944
  68.8695221  54.9934959  62.9264946  68.2952118  54.3788605  62.4697418
  69.2236938  55.5506248  62.2333870  64.4312286  35.0176620  33.0699425
  64.5259933  35.3545303  33.9608803  63.4902382  34.8762283  32.9661827
  65.3949585  12.9495697  13.9599600  65.9806137  13.6140203  13.5969887
  65.2670212  13.2148266  14.8707304  51.2562866  47.2098274  83.6933136
  51.1260567  47.2330551  82.7453003  51.5750046  48.0853119  83.9128113
  25.4456902  54.4065704  48.8927116  26.0216122  55.1710472  48.8816872
  24.5664635  54.7674026  48.7787209  28.4119568  67.3916779  42.9927368
  27.9927597  66.5510712  42.8086586  29.3139248  67.2804184  42.6922264
  66.9698639  65.9552002  72.4526062  66.3921661  66.6871796  72.6687241
  66.6283188  65.6168289  71.6249008   9.2175150   0.9697340  32.8008537
   9.3073473   0.9495803  31.8480911   9.3783007   1.8832241  33.0373154
  71.3315048  66.9433594  55.6035500  72.0584335  66.7217331  55.0215836
  71.0412979  67.8058014  55.3065529  23.4068146  58.3017502  54.3422813
  24.2027493  58.8229828  54.2372284  23.6475086  57.4307404  54.0266228
  74.2702179  24.2474899  87.3865051  74.4843597  24.3565235  88.3130493
  74.7879868  23.4920082  87.1083069  42.7043114  30.6027107   9.6544323
  42.4789925  29.8246555   9.1444397  41.9476204  31.1806889   9.5565062
  30.3668633  66.9775848  56.6907463  29.7350521  67.4375000  57.2434921
  29.8523331  66.3007278  56.2510223  23.8658161  55.8018761  74.1667633
  23.7345810  54.9454994  74.5737381  23.9414635  55.6134567  73.2313461
  18.5629711  63.7202606  78.4481812  18.3859425  63.0574341  77.7806778
  19.3182926  63.3808746  78.9283295  67.3749161  59.0682411  45.7249413
  67.2185745  58.2694893  45.2211723  67.7086868  58.7588387  46.5670242
  38.9074173  60.8689194  58.5072289  39.4969406  60.5927811  59.2089691
  38.1640625  60.2690468  58.5689545  28.9546051  36.4105530  11.2275534
  28.9138145  35.4959450  10.9481554  28.6685505  36.9080124  10.4614353
  73.6217117  26.7901783  14.8080606  72.8132858  27.2891426  14.9251556
  74.3185043  27.4071121  15.0319204  64.2294693  27.3965054  33.7669983
  64.3886490  28.2694664  34.1259346  64.6037750  27.4276371  32.8865662
  64.0846939  41.9801331  17.2615242  63.2801743  42.3048553  16.8571262
  63.8216743  41.1728020  17.7034206  15.6991625  44.1559982  52.9344063
  16.1805782  44.8712387  52.5185966  16.2800694  43.3992119  52.8565674
  75.0941238  46.1658936  22.7673225  74.9029541  47.0926743  22.9114170
  75.5972290  45.9024925  23.5378666  80.6814804  64.7152405  66.4798813
  80.7551498  63.9031944  65.9785004  81.5839844  65.0185242  66.5785522
  31.0710011   0.6921234  40.6355896  31.1956482   0.6522165  41.5837975
  31.6530476   0.0159461  40.2888336  52.3647766  24.7108421  50.1678276
  52.9023552  25.2631855  50.7354164  52.1154442  23.9703045  50.7207031
  85.2633362  41.0432053  11.5034237  84.9320755  40.9179077  12.3926935
  86.0427017  41.5880775  11.6127052  79.4146194  67.9999695  84.6758347
  80.0754013  67.3084335  84.6387024  79.7056122  68.5713959  85.3864822
  74.3528595  25.3268433  84.6278839  74.9189072  25.8719349  85.1744080
  73.8838959  24.7700653  85.2494202  50.7845879  59.1338310   1.7395607
  51.5113220  58.9746246   1.1372788  50.6169472  58.2821732   2.1430576
  14.0822220  60.6005173  45.7855225  13.8716803  61.3032265  45.1706238
  15.0372028  60.5397873  45.7619781  11.3920860  69.2731323  74.3591156
  11.4988985  68.4676285  73.8531647  12.2044592  69.7576447  74.2123718
  76.8321533  61.6267128  70.3972626  76.8934937  60.7985497  69.9212265
  75.9193878  61.8956223  70.2934265  69.5051117  36.3196678  15.7282104
  69.4855042  36.8873863  16.4986267  70.1604614  36.7168427  15.1546278
  36.1413651  52.6384964  43.3488045  35.5631752  53.1638756  43.9018936
  35.8680534  51.7348747  43.5069275  55.9239693  22.1885071  84.8769684
  56.7329750  21.7166328  84.6792908  56.2074966  22.9460278  85.3888321
  75.7026138  71.0878830   1.1616945  75.1634674  70.3018723   1.0736839
  76.4835052  70.9023285   0.6401587  13.6789408  57.0763512  28.4513874
  13.2444801  57.7882462  27.9816208  13.1392269  56.9386063  29.2298260
  53.9083672   5.2044158  86.0893784  53.6340599   4.5955491  85.4036179
  54.4807892   5.8273716  85.6416168  19.3054790  65.8937988  40.6658897
  20.0007305  65.2923431  40.9325638  18.5170403  65.3516922  40.6390915
  72.7667160  41.1309319  57.1198387  73.3578033  40.4780464  56.7448845
  73.0595627  41.9619713  56.7458763  15.3221207  25.8811607   9.1312981
  15.0603943  25.0436573   9.5138178  15.4503288  25.6904335   8.2020950
  61.9610634  30.9102249  55.0064888  62.2584000  30.2411556  55.6230659
  62.1605873  30.5465698  54.1438293  34.4777718  57.0026741  23.1584473
  33.8283424  57.7015381  23.0805473  33.9917488  56.2637978  23.5246086
  73.8985825  45.9547157  59.8569221  73.2334595  46.3022690  59.2627449
  74.6949539  45.9138832  59.3274269  18.6172791   8.6619616  63.7783661
  18.7419338   9.5105572  64.2033157  18.8937569   8.8044987  62.8731194
   5.2407537  55.2684326   2.1096866   4.9974799  54.8134079   1.3034607
   4.4079123  55.5592308   2.4812312   4.8359694  21.5559616  88.9587860
   5.4486003  20.8674068  89.2172546   4.9986258  21.6827698  88.0240707
  56.7160835  40.4438782  42.0273743  55.8932571  40.9251556  41.9404144
  56.6837654  39.7866592  41.3322144  43.9826584  40.6768494  44.8024178
  44.0756531  39.7682533  44.5159912  44.8661041  41.0397186  44.7385788
  26.1293297  45.3446960  83.4564438  25.6928005  46.1816673  83.6150284
  26.8843956  45.5677376  82.9120560  46.6674461  68.5322266  76.2667999
  47.3663406  67.9844971  75.9093475  47.1257896  69.2398605  76.7200165
   2.1985517  16.7692299  22.5387001   2.6690705  17.5991364  22.6168022
   1.2737988  17.0159264  22.5530300  80.2301025  17.9488316  16.1132526
  80.3648453  18.2616062  15.2186871  79.3387070  18.2215843  16.3306332
  47.7151680   5.7459779  23.7635212  47.7884979   4.8536487  24.1020527
  48.5163193   6.1800036  24.0567970  46.3770599  35.5642815  -0.0167032
  47.0700035  35.2820396  -0.6136969  46.6871834  35.3036003   0.8505334
  67.6758728  38.6753006  13.8006954  67.0508347  38.1798096  13.2714996
  67.5356979  38.3609047  14.6938572  48.8790588   5.3517890  75.4226837
  48.0418167   5.4095631  75.8830261  48.9479828   6.1790934  74.9461899
  41.3302307  71.2249908  30.9031906  41.7024040  71.9581070  30.4130306
  41.9953041  71.0124283  31.5579662   2.2453434  59.0841599  72.8962631
   1.3224623  58.8482971  72.8019638   2.2357936  60.0265121  73.0639191
  38.6818886  34.6064949  45.9011497  37.8955574  35.1081963  45.6861801
  38.8257675  34.7741051  46.8325157  45.4209862  22.0904369  86.8841248
  46.3492813  22.3130989  86.8139648  44.9648819  22.9223633  86.7572403
  19.2830906  49.3343048  38.5136833  20.0378284  49.1130219  37.9681244
  19.4599628  48.9071846  39.3518486  39.6794357  63.3567200  59.5081062
  39.1941528  64.1669998  59.3526268  39.1563911  62.6785088  59.0806923
  57.1355782  21.1736774  45.5330963  56.6435699  21.2635918  44.7169609
  56.4748001  20.9465790  46.1873360  80.4809113  11.8791971   3.6050818
  80.8649139  12.3625937   2.8735757  80.8887558  11.0143518   3.5610795
  28.6963978  55.5991135  39.2066841  28.5727940  55.1972809  40.0666161
  27.9981880  56.2509155  39.1443024  42.8046150   9.0757380   0.8504882
  43.0010071   9.1888103  -0.0794994  43.6547089   9.1450834   1.2849592
  41.2649040  34.7106361   7.4690466  41.4428024  34.3584824   6.5969396
  40.4997864  34.2223473   7.7730217   1.5565764   4.3309669  40.8625183
   1.3571984   3.8321626  40.0702591   1.6061513   3.6715562  41.5545807
   3.9210703  18.9820576  78.1756516   4.3128991  18.1390076  77.9476852
   4.6681571  19.5514526  78.3597260  59.3366699  43.7874565  44.4438820
  58.5326538  44.3034973  44.5029526  59.0350266  42.8866348  44.3265839
  42.9072342  34.3147583  57.0221024  43.6937256  34.2551689  57.5644264
  42.2511330  34.7123451  57.5945435  80.2530975  44.8600502  72.3098602
  79.6724548  45.3713760  72.8734436  80.4336243  45.4357491  71.5667419
  63.8678818  24.6255093  71.5598450  63.8684883  25.5090046  71.9281769
  64.4706497  24.6749134  70.8179092  23.8179436  35.5929642   6.4837155
  23.1200409  35.7766647   7.1125374  24.5432835  35.2701912   7.0184436
  81.3495865  47.4008484  37.3001022  80.7920227  46.6954269  37.6283302
  82.0743790  46.9509544  36.8659401  25.4385967  19.5637302  85.1552658
  26.1339779  18.9087105  85.2154694  24.6730556  19.0734749  84.8555450
   6.1963649  48.8292885  48.6129608   5.7855387  49.6627922  48.3833427
   5.4676986  48.2114258  48.6722870  55.6925430  34.7863960  14.1905155
  55.9448776  35.3062439  14.9536133  56.1981010  33.9778671  14.2737074
  64.7735291  22.0636997  32.9359703  64.4741821  22.5014534  32.1391029
  64.1300735  21.3708420  33.0847740  67.0885773  61.1154785  19.3931198
  67.0608063  61.6334000  20.1976185  66.2037354  61.1827812  19.0342751
  72.9431839  41.7331047  44.9912949  72.9980850  42.1080437  44.1122971
  73.8150635  41.3725929  45.1527977  14.4244308  62.4204636  68.0363617
  14.0697870  62.3551025  67.1496887  14.2484217  61.5651436  68.4283752
  79.4145203  48.7056732  64.2555237  79.8692474  48.7017059  63.4132423
  79.8806610  49.3596878  64.7762985  73.6896210  61.3424721  10.1311293
  73.5831604  62.2427864  10.4382648  72.8335800  61.1091042   9.7720165
   3.3675573  40.5130768  16.0591660   4.2558436  40.3538704  15.7400532
   3.4768527  41.1529961  16.7625751  58.6293564  43.3475037  80.8957977
  59.5699844  43.2698784  81.0552521  58.5648155  43.6795273  80.0003510
  81.4246445   8.3356943  73.0264130  81.6231995   8.7825298  73.8493042
  81.1787567   9.0388641  72.4253159   9.4165583  25.5949516  73.8517151
  10.0748062  26.0287914  74.3946075   9.7950630  24.7379856  73.6553116
  59.4126205  69.0157700  69.5166702  59.5676117  69.9593277  69.5603409
  58.4738998  68.9348068  69.3479156  11.8877430  68.4143600  83.4598236
  12.2288666  68.9724731  82.7609863  11.8508396  68.9861984  84.2265549
  14.5191393   3.5151825  21.6351299  14.1822052   2.9137762  20.9710388
  13.7798157   4.0891213  21.8356953   8.4210463  48.0208092  67.0473022
   8.9473305  48.7030144  67.4642563   9.0452528  47.3213615  66.8539810
  46.1558533  62.4301834  81.4460907  46.7886505  63.1012383  81.1901932
  46.6438332  61.8519707  82.0324173   1.9940096  28.6598301  32.4748230
   2.0729296  28.8441811  31.5388660   2.8867884  28.7394638  32.8107376
  56.1165504  56.8214836  16.0244770  56.1785889  57.5952682  16.5845165
  55.7807312  57.1544571  15.1922588  24.1499672  63.5233078  33.3221016
  23.2772560  63.5891876  32.9344597  24.3777618  62.5969582  33.2432594
  61.4131508  19.2200737  45.6000519  61.9836769  19.9729843  45.7545166
  60.8948059  19.4655762  44.8337097  69.3860397  33.7245712  23.2840919
  69.5009689  34.4289055  22.6461773  70.2564697  33.5994530  23.6621552
  13.0580463  63.1245461  78.8166809  13.6603680  63.2279892  78.0799713
  13.5763016  63.3635063  79.5851440   7.8883448  55.0067863  19.5194550
   8.7940941  55.2779617  19.3700867   7.9267178  54.4687500  20.3101997
  42.1362724  25.5109749  80.2549973  42.2040558  24.9018955  80.9902878
  41.7500534  26.3009434  80.6331711  36.6514282  60.4406281  87.9244232
  36.9725189  61.1801071  88.4404678  35.7074814  60.4299622  88.0827789
  41.5712624  38.1524925   7.2718983  41.9592667  37.9372253   8.1200399
  42.2911644  38.0577507   6.6482034  55.3410988  69.1169510  79.6749954
  55.7975082  69.7287140  79.0973511  55.3120422  68.2975235  79.1810989
  60.6618690  57.7729874  65.4538651  60.6318550  58.1960106  66.3119965
  60.2888565  58.4197235  64.8548431  30.3799286  55.0480843  46.5068130
  30.4156189  55.8874626  46.9655113  31.1200733  55.0748558  45.9004326
  42.7518044  40.3096199  37.7251511  42.0444908  40.8317337  37.3465538
  43.4956017  40.4539948  37.1402130  17.2274704  21.1413689  17.6989117
  17.0657501  20.6565418  18.5082455  16.9147930  20.5605927  17.0052528
   8.8006983  48.8490639  35.0160217   9.2714939  48.3766136  35.7025871
   8.3960361  49.5890007  35.4687653  48.9771042  43.9322128  18.8298435
  49.5392838  43.2493324  19.1957150  49.4357033  44.2231750  18.0416451
  44.3728828  12.6006918  13.2201872  44.5779114  11.6827974  13.0422373
  44.9132156  13.0912323  12.6007996  14.1241179  62.8176727  10.9634542
  14.4702778  62.5016823  11.7980528  13.6291189  63.6044388  11.1919441
  22.4020290   9.5726929   8.2546558  21.5053482   9.6184540   7.9228415
  22.9506283   9.6988297   7.4804726  83.0125122  47.9217720  68.1747284
  83.5517578  48.6031265  67.7732391  82.1118927  48.2022667  68.0121231
  30.0442696  46.7120514  54.7923660  29.4245148  47.4321518  54.6757927
  30.8848228  47.0710831  54.5081139  82.1840515  15.7637110  54.8330994
  83.1146317  15.6280804  55.0115776  81.7827606  15.8398771  55.6987762
  26.8483143  14.3829880  83.7407913  27.1439323  14.4790564  84.6461182
  26.3835983  13.5462627  83.7280884   5.3640199  65.4546280  63.1153603
   5.7521200  64.9669876  62.3888474   5.4104891  64.8537750  63.8590355
  54.9326210  39.3881531  62.0963058  54.5158958  39.8893967  62.7972565
  54.6237831  38.4915848  62.2267532  27.8462830  24.6680584   7.1069832
  28.4941406  23.9638901   7.0813231  28.3241825  25.4206142   7.4555554
  51.1852989  62.3096962  61.3965912  52.0325165  61.8651085  61.4248505
  50.6884003  61.9243355  62.1182709  51.8238297  57.9934349  38.8654556
  52.3645973  58.0696716  39.6515808  50.9376373  58.1984711  39.1635361
  62.4827919  25.3858490  46.5124855  61.9601593  25.9855156  47.0449181
  63.3824959  25.5252895  46.8079910  85.0949554  16.7669125  17.2756557
  84.5214844  16.2680035  16.6938934  85.6623077  16.1078625  17.6756592
  49.8941422  29.8859348  83.6062241  49.9591675  30.6833591  83.0807495
  50.7077293  29.4143543  83.4275513  52.2198410  47.9281502  21.3813782
  51.8122635  47.5312538  22.1511745  53.1589699  47.7994499  21.5144367
  32.4840660  47.7988777  53.5150871  32.1916389  48.5598831  53.0135002
  33.1085396  48.1543770  54.1474495  75.5190277  11.9018784  18.5358276
  75.3430405  12.5396147  17.8440533  75.5592651  12.4231987  19.3375988
   5.8336840   1.7886072  80.7253571   5.0451732   2.2702048  80.4752655
   6.5101919   2.4611721  80.8042526  53.3677216  69.4908066  51.9327850
  53.7835808  70.1693802  52.4646111  53.0364113  68.8572083  52.5691948
   7.2121468  18.4289799  72.8494568   7.1944671  17.4739704  72.7872086
   8.1428480  18.6492977  72.8880234  79.1101685  61.7828751  23.4840069
  79.9821625  61.4743118  23.2377529  78.7424622  62.1339798  22.6729908
  56.3642731  35.9621468   4.4610858  55.4506378  35.7353363   4.2877169
  56.3232613  36.5805855   5.1905246  48.5608978  58.7320023  84.5474167
  48.9843636  58.8510666  85.3975525  49.2185059  58.2875214  84.0124283
  23.4011669  48.8735199  17.0920753  22.8868084  48.8546257  16.2850380
  24.2361012  49.2646103  16.8348560  80.7552261   8.7022800  17.9500141
  80.8562241   9.0212421  18.8468380  79.8577576   8.9354744  17.7125149
  25.4412003  68.4489059  47.9841805  24.6429462  68.8577881  47.6497536
  25.9282608  68.1973038  47.1995163  54.1555290  43.0195694  56.8077240
  53.2129440  42.8656387  56.7439079  54.2300987  43.8921051  57.1941872
  64.0419998  49.7067108  29.1190128  63.9906769  49.5250320  28.1806164
  63.1459389  49.5903206  29.4348679  21.1013241  19.4625626   8.5313501
  20.5125961  19.6235905   7.7939892  20.5567493  19.0158539   9.1795187
  61.2042084   5.3799782  43.7647896  61.0051193   6.3120785  43.6765556
  61.6222267   5.3045030  44.6225739  69.8618546  10.8041906  10.5599003
  70.7020569  10.9887295  10.1400995  69.9144287  11.2480221  11.4063520
  79.2651672  44.3820229  59.0544930  79.0866852  45.2284851  59.4642258
  78.9040833  43.7394371  59.6651726  43.8538170  40.2650146  88.6830750
  44.3575478  39.4529228  88.7378006  44.4078255  40.8566513  88.1738815
  53.4633942  16.6053944  65.4004440  53.9395866  16.1135941  66.0694809
  52.5999298  16.1934414  65.3695297  38.2776260  45.5359077  22.6260815
  37.4303665  45.1092834  22.7540512  38.0608177  46.4521561  22.4537010
  76.1533966  22.9946785  42.3586082  75.3384705  22.6108131  42.6822891
  76.3385162  22.5170803  41.5499916   2.6900592  49.1826782  67.2106781
   3.4175854  48.5991974  66.9950714   3.0218256  50.0599365  67.0194168
   0.7184280  20.3507805  21.6474934  -0.1690885  20.0385685  21.8237591
   1.2503992  19.9661827  22.3441448  69.5135040  16.3988228  68.2631149
  68.7800446  16.2756958  68.8656998  70.1467896  15.7271805  68.5162430
  66.7700958  49.8561249  43.4006004  65.9721222  50.3729134  43.5119591
  66.9533386  49.5074577  44.2730026  84.5778732  23.1001759  83.8830643
  84.0272141  23.7562008  84.3104248  84.2222748  23.0292988  82.9972000
  65.6370544  17.5623722  70.7772751  66.0946579  18.3682804  70.5378189
  66.2139893  16.8606739  70.4756165  24.7156258  66.0324402  78.9747238
  24.0438919  66.0253296  78.2928467  24.7108593  65.1416168  79.3249283
  80.3389740  38.3032227  26.3661594  81.0921936  38.5403519  25.8251724
  79.7263947  39.0304031  26.2557888  64.6201553  57.8026199  81.9186172
  64.7611084  56.8962440  81.6450348  64.6622238  58.3072815  81.1063461
  83.6432266  70.6699371  51.3589172  83.8669128  71.5706406  51.5932884
  84.0023041  70.5551682  50.4790764  16.3947201  56.2507858   7.3293352
  15.8298674  57.0134506   7.4538932  17.2653599  56.6194077   7.1798906
  38.2583656  24.4015961  87.9490891  38.7776146  24.9464817  87.3577271
  37.7724457  23.8148994  87.3695221  10.3197069  69.9523315  24.6190891
  11.1223783  69.7719269  25.1083794   9.9743748  70.7537003  25.0125122
  51.1261406   0.0790119  77.1052551  51.7670479   0.7669321  77.2847977
  51.5458488  -0.4730925  76.4455109  54.4941788  52.6681633  39.0260353
  53.9763794  53.4280243  38.7600899  54.4951897  52.0980339  38.2571487
  83.1554871   2.3589342  66.0537033  82.2353821   2.5015211  66.2757416
  83.5547485   3.2264693  66.1185684  19.8021431  67.4377136   8.8635473
  19.0130978  67.8619995   8.5264730  19.5181656  67.0118408   9.6723852
  56.0540276  14.3643951  62.5647736  56.1271286  14.9491282  61.8104706
  56.8641930  14.5036278  63.0551605   7.8474746  56.5640717  88.7010727
   7.3726735  57.3903809  88.7905731   8.4893827  56.7302399  88.0107269
   9.9499731  62.7928314  39.4313889   9.6371450  63.6753578  39.2326012
   9.1758671  62.2376175  39.3379784  33.4246750  46.3269043  23.8241768
  32.9901810  46.2518578  24.6737728  32.9156685  45.7607346  23.2440071
  77.4514389  12.9228992  66.5625839  77.6491547  13.8095551  66.2609558
  76.9707031  13.0497856  67.3805161  58.1103783  65.8386459   3.7664511
  57.5067406  65.7283249   3.0318227  58.6822548  65.0722504   3.7237134
  55.5369110  26.8219738  43.8138237  54.7127266  27.2595272  44.0271263
  55.9994087  26.7616959  44.6497040  84.1643600  42.3809853  84.5178986
  83.6574936  41.6380997  84.8456726  83.7708054  43.1444817  84.9402847
   0.0402252  71.4400482  38.2404594  -0.4552748  71.2061920  37.4555893
   0.9008778  71.0427399  38.1075974  77.4908829  43.0010109  54.1630249
  77.8845367  43.7966957  53.8050385  78.0592651  42.2941246  53.8572884
  54.8916130  60.2275734   2.5162811  54.0713081  60.1511688   3.0036123
  55.4863358  60.6762962   3.1172683   1.2300634  19.5999584  73.0314407
   2.0509074  19.6314373  73.5228195   1.1516478  18.6871052  72.7543488
  77.3204651  32.2973366  36.1124916  77.0657730  31.8801289  36.9354744
  77.2428131  31.6031933  35.4579964  48.8695946  21.4503632  60.0869560
  48.2051735  21.6808434  60.7363052  48.4613762  20.7633762  59.5600395
  33.9532623  63.7091141  41.6052399  34.8127022  64.1092300  41.7375412
  33.4001427  64.4264908  41.2959518   6.8098536  38.2601929   8.7143517
   7.5785875  38.5965118   9.1749706   6.1320028  38.9185066   8.8672400
  69.3929062  33.7160110  42.2990685  68.9864426  34.5360069  42.5794830
  68.6868820  33.0712051  42.3436661  28.6308041  54.7687263   3.4507642
  27.8989296  54.8964157   4.0543256  28.2617989  54.9470520   2.5857394
  34.3940887   3.4685016  79.8049774  35.2279205   3.0657895  80.0474243
  34.0167313   2.8689272  79.1612778  47.9952621   2.7441311  86.4708633
  48.5931320   3.0350287  87.1594620  47.1891708   2.5163064  86.9340515
  69.8035278  50.1597252  43.3302536  69.2583389  50.3248177  44.0995026
  69.1942215  49.8251190  42.6722069  48.5127640   0.1276461  45.6454506
  48.6651306   0.5636777  44.8070641  47.5976830  -0.1506534  45.6078606
  43.6924820  16.1248112   0.1215751  44.1713638  16.5751724   0.8173328
  44.1600342  15.2976513   0.0056687  19.8183174  36.0845871  71.4965668
  19.8314171  35.1492653  71.6996231  19.2757626  36.1515198  70.7108307
  58.0192604  52.2675552  65.6059036  57.1788483  52.4368324  65.1801300
  58.2937508  51.4165840  65.2642365  65.5372391  48.7430267  50.3892784
  66.2213745  48.4015923  50.9651413  65.2059555  47.9725571  49.9279099
  18.4752827  15.2198887  86.5080872  18.9835167  16.0308590  86.4920425
  17.9151669  15.3034782  87.2797852  15.4309416  10.0413055  75.0706024
  14.5422697  10.2527866  74.7846451  15.9972334  10.5361233  74.4784012
  65.8443451  69.2486420  76.4723053  66.6606293  68.7502899  76.5118408
  66.0757828  70.0505905  76.0037537  75.4784164  51.4543991  53.8230209
  75.1010590  50.7700386  53.2703133  75.1900558  51.2332268  54.7085495
   3.8127351  54.2506828  21.5401325   4.4836230  53.7521820  22.0066490
   3.9908006  55.1632195  21.7677326  17.5473061  50.4555969  65.5448151
  17.6649532  49.9674034  66.3597183  18.3192139  51.0189171  65.4895172
  49.9788437  58.1319427  65.3497086  50.3555641  57.7313004  66.1331558
  50.2276688  57.5438118  64.6366730  15.1130514  19.0343952  87.7448349
  15.6565485  19.8019447  87.5667572  14.2251034  19.3829021  87.8243561
  59.4635124  28.2412453   7.8026018  59.4854050  27.9156570   8.7024603
  59.0594826  29.1063232   7.8706613   5.2264380  63.2840919  64.8202133
   5.7419806  62.4876747  64.9473572   4.6758595  63.3402367  65.6011963
   5.9273973   0.0206745  27.2482014   6.5696554   0.3333924  26.6110649
   5.6159019   0.8142139  27.6835155  27.2380066  61.1417847  80.1852570
  26.7793236  61.7534637  79.6093292  28.1622944  61.2483521  79.9603806
  11.2549334   7.0154123  61.7628517  10.7220097   6.2567253  62.0007973
  10.7440853   7.4653897  61.0899582  85.7388992   2.4463649  71.5331192
  85.3380661   3.1360688  72.0621490  85.3229675   2.5303645  70.6751099
  58.1849213  56.0997353  58.1323471  57.8171883  55.8437042  57.2865028
  57.9934425  55.3610725  58.7102242  73.8239059  13.9382887  22.2847824
  74.3410110  14.2964668  23.0062675  72.9352951  13.8756008  22.6350307
  46.1923561  33.1143150  62.9705467  46.3755531  32.7988586  63.8555069
  47.0281982  33.4656601  62.6636963  18.6775208  44.1716614  22.9798489
  19.2952747  43.4453926  22.8953342  19.0711136  44.8812065  22.4720440
  51.8521538  54.1343307  20.9401379  52.1534653  53.7803001  21.7768612
  52.5231934  54.7709465  20.6938534  51.5474510  26.6132011  71.5073471
  51.0894356  27.2107849  72.0984039  51.8580818  27.1721306  70.7950668
  12.2691441  62.9882431  35.6730614  12.6587696  62.1680260  35.3703003
  13.0056009  63.4870644  36.0266762  58.6850662  20.2869205  64.4717026
  58.7351379  19.4888611  64.9978409  57.8071022  20.6295109  64.6391602
  67.5811386  51.1060104  12.0481434  67.3620758  52.0166130  11.8505478
  67.7761154  51.1044998  12.9852734  74.1865616  14.9092522  13.4054832
  73.5075073  14.7098951  14.0499783  73.8268967  14.5984306  12.5746632
  67.9190140  43.7056313  63.2045937  68.4711456  42.9304428  63.1022949
  67.4566040  43.7821617  62.3699989  79.2527771  55.5818520  46.0995941
  79.4228821  56.3793335  46.6009102  79.9483795  55.5590973  45.4424362
  49.0485535   9.7869234  76.6825333  48.8937798   9.0824442  77.3118057
  48.2293663  10.2819262  76.6708832   1.3512721   2.9085896  43.5584335
   0.6944094   3.5965073  43.4510460   0.8456458   2.1277020  43.7837982
  71.7968292  18.4113979  79.9513779  72.2181244  17.6853161  79.4914398
  70.9434586  18.0659828  80.2134552  15.5419750  25.7710781  84.7527618
  15.2098417  25.9960251  85.6218567  16.3086948  25.2240868  84.9235611
  22.3381157  27.9032726  72.8251572  23.1591377  27.6093502  72.4304886
  22.4097137  27.6481876  73.7449646  84.1465759  14.7770338   7.5611000
  83.2443237  14.6663189   7.2612581  84.6342850  14.0856848   7.1134248
  63.6296997  30.9714775  66.0783234  63.9558525  31.5034199  65.3524475
  63.2096634  30.2220516  65.6562271  62.2522507  47.9482040  31.5735626
  62.3554115  48.8995514  31.5966721  61.8304787  47.7327499  32.4053802
  36.7735405  59.8464737  56.2524414  36.6005974  60.6929359  55.8403473
  36.1297073  59.7877350  56.9583130  38.1251602  68.1322861  67.5953903
  38.5932922  68.6050110  66.9071960  37.5582924  68.7915192  67.9957581
   9.0271921  65.2950287  38.5041122   8.4759483  66.0391998  38.7461319
   8.9837608  65.2656174  37.5483513  71.8638000  58.2288055  24.4696941
  71.7149200  57.2894936  24.5781193  71.1218719  58.6415062  24.9117908
  36.0981331  53.6110115  51.4175262  36.3562546  52.7074051  51.2355843
  36.7710419  53.9365692  52.0153847  60.5779533  65.7843246  29.9307442
  60.0578194  66.5808487  29.8246670  59.9342918  65.0758591  29.9282875
  46.9757271  66.8378220  80.1058502  46.7494392  66.4459000  80.9493103
  47.6774750  67.4561005  80.3095932  56.9771957   1.8012846   9.9780235
  57.8387108   1.6853346  10.3787394  57.1519089   2.2834013   9.1697721
  33.6056900  10.6838779  10.5275526  33.9757118  10.3589630   9.7067318
  32.6609993  10.7008982  10.3742619   7.8051958  59.3623390  36.4614220
   7.3585057  59.5518112  35.6363182   8.6959028  59.6880493  36.3318672
  25.4725819  60.5945778  82.1654129  26.2343292  60.6527634  81.5887070
  25.7882423  60.9110870  83.0118179  42.5164490  13.0159826   1.5878125
  42.9660263  12.3992825   1.0100663  42.5441551  12.6004982   2.4496922
  53.0083923   0.2288368   8.6750536  52.4431038   0.9399979   8.9766035
  53.5056992  -0.0275562   9.4516993   1.2800958  24.6047802  78.3713608
   1.9833137  24.5415268  79.0176697   0.6152492  23.9890728  78.6797638
   8.8375587   9.7295275  21.1994305   7.9466376   9.7833338  21.5452576
   8.7571106   9.1894054  20.4132824  35.9520454  54.8483582  40.3260002
  36.6416550  55.5071983  40.2447357  36.2767487  54.2426987  40.9923134
  41.2096672   5.8306193  11.6896400  40.5330925   6.3154998  12.1622601
  41.7549706   5.4484491  12.3772621  43.9467621  60.5990562  10.9703245
  44.0169373  61.5441170  11.1051016  44.7912674  60.3470268  10.5967951
   8.3366346  45.1996918  60.9848251   8.8291292  45.6252327  60.2829742
   7.9987416  44.3969841  60.5876846  85.1488037  14.3619080  44.5434227
  85.2605820  13.9427223  45.3966637  85.6041489  15.1997375  44.6266899
   9.0926838  33.2550354   6.5478687   8.6711845  33.5471954   5.7396531
   9.7557468  33.9218025   6.7267590  18.6545258  51.8600159   3.4759116
  18.8920422  51.1796417   4.1059160  18.9523277  51.5197449   2.6322536
  34.8869362  54.5199852  25.0127277  35.8057632  54.6069069  25.2665653
  34.6406975  53.6413155  25.3017559  74.4500961  24.8874855  43.9401970
  74.2981796  25.7380199  43.5281944  75.4009171  24.8346577  44.0370102
  53.6138878   5.7000937  42.0186996  53.4152908   4.9438362  42.5708466
  54.2061844   5.3585935  41.3487778  30.0701942  61.6219215  75.7972488
  29.6011295  62.2800827  75.2843857  30.9519386  61.6118317  75.4248886
  34.2343254  37.7718201  65.4498596  34.0311508  37.6117439  66.3714523
  35.1872406  37.6974869  65.3982620  76.3645935  45.1719284  58.1059341
  77.2016449  45.3701172  58.5258141  76.3529129  44.2175293  58.0336914
  77.6279831  57.6651573  87.7173386  76.8880920  57.1651573  88.0620041
  77.9851074  57.1147728  87.0203781   3.3890502  42.7290993  28.8630486
   2.4847353  42.5483551  28.6065750   3.7989457  41.8659744  28.9199295
  28.1127911  45.0253105  23.7376804  28.9754200  44.6124153  23.6974297
  27.5339565  44.4158936  23.2796459  13.9172754  57.1255989  31.4000225
  13.9551859  57.9587479  31.8697681  14.7780905  56.7315750  31.5413513
  30.8140659  63.2174873  59.4279785  30.9481583  64.1604156  59.5235481
  30.7855415  62.8873863  60.3260040  66.2613602  67.8432846  66.0725098
  66.6528168  68.0326920  65.2197952  66.8864212  68.1949615  66.7064285
   8.0417490  43.2765121  39.2044220   7.1272097  43.0934448  38.9891624
   8.5297480  42.5527191  38.8117218  68.3706741  49.4999886  32.4948997
  68.3278732  48.6322327  32.8966446  67.6618423  49.5013351  31.8516293
   4.2340212  48.7790146  25.2255077   5.1334357  48.5827599  24.9632683
   3.8579478  47.9272079  25.4473839  35.3557014  43.5757256  11.6470356
  35.2851982  42.8536797  11.0226107  34.6966324  44.2070923  11.3585310
  65.0694733  41.3368454  31.1250076  64.5277023  41.9613152  30.6425571
  65.9235458  41.7635727  31.1934700  52.2093124  58.9852104  19.9213238
  51.5292206  59.3631325  19.3637562  52.9708710  58.9023056  19.3474007
   0.6937492  10.9367647  34.2293930   1.0513076  10.0925884  34.5046196
   0.4739808  10.8141603  33.3058662  86.3078003  46.8525925   0.4694616
  86.3583679  46.6868210  -0.4719174  85.9992371  46.0265656   0.8418834
   8.7321024  30.2109089  42.1485825   8.9182224  30.9737663  41.6011887
   8.9448023  30.4961205  43.0372009  83.2381897  14.2318163  60.5108528
  83.2364044  14.3086090  61.4649658  82.7904434  15.0210800  60.2061996
  36.9912376  10.3100452  78.8992920  36.8336716  10.4915714  77.9727631
  37.7797699  10.8098621  79.1105576  26.0300617  70.6463928  63.7674408
  25.6784668  70.2277603  64.5531616  26.0270691  71.5813675  63.9724693
  24.1706905  45.3540497  78.5617142  23.7882767  46.1892242  78.8309326
  25.0678463  45.5718307  78.3089066  17.0375214  42.2791862  47.3204079
  16.9171734  42.7630157  48.1375122  17.2542133  42.9510155  46.6739426
  72.3121719  31.4543343   5.8251662  72.1031952  30.8580837   5.1061053
  72.6152267  30.8822956   6.5302634  43.3357353  63.1522903  39.1844940
  43.4886513  62.2214622  39.3470001  42.6618958  63.1692390  38.5048752
  61.5917931  21.6013165  72.5352020  60.7818298  22.1086216  72.5884323
  61.4606285  20.8759098  73.1457825  58.6177940   6.3530855  30.5411510
  59.3079453   5.8672619  30.9927006  59.0477867   7.1518145  30.2355843
  30.0212975  52.8038406  59.0236511  30.4386253  52.5739784  59.8538513
  29.2224369  52.2769279  59.0031891  48.5433884  69.8682785  47.9801750
  48.8002853  70.6843872  48.4093666  48.6078873  70.0591736  47.0444221
  42.2838173  36.3240471  87.8419647  42.7183151  35.9191475  88.5926285
  42.3096313  37.2626610  88.0278931  41.4352951   3.2295661  84.5954208
  41.4155579   4.1310153  84.2741241  41.0128212   2.7196407  83.9042435
  55.3583565  67.2454300   2.4824450  55.2984848  68.0209427   3.0403285
  54.6096191  66.7072296   2.7392912  40.2886620  48.9434242  57.1317558
  40.5077133  49.4671974  57.9024124  40.1543121  49.5863686  56.4354782
  53.5696106   3.0474355  67.1134186  53.4220886   3.9847999  67.2391891
  52.6908684   2.6704798  67.0692902  39.8177681  64.1597900  67.1875305
  39.6811562  63.2401123  67.4150467  40.7197342  64.1963348  66.8691635
  71.9311600  45.1841888  50.6719170  71.9026642  44.2293510  50.7328033
  72.7567139  45.3711510  50.2249947  49.7566376  59.2382965   6.8689671
  49.6692238  58.3399048   7.1875319  48.8611336  59.5086250   6.6659341
  61.4192200  26.5792122  81.1879654  61.9610596  25.9193439  81.6206512
  60.5196686  26.3048401  81.3661652  73.9346390  42.9185181  30.9426250
  72.9858627  42.8739471  31.0612411  74.2164917  42.0040207  30.9206543
  17.8913097  39.5543633   6.3937955  18.4524803  39.6484070   5.6240711
  17.0301971  39.8518791   6.1001954  38.0309677  21.7520790  76.1307526
  38.1291542  22.0401344  77.0382843  37.9732170  22.5637875  75.6267395
  51.7090263  59.5592804  50.0393295  52.3385620  60.2695007  49.9147987
  51.0891075  59.8991241  50.6846504  13.1410885  36.2724075  66.7445679
  12.9521008  35.4004822  66.3977814  12.2802687  36.6503868  66.9244308
  54.9195747  17.0895653  42.1836510  54.9020233  16.4750900  41.4499359
  55.8505402  17.2275848  42.3582573  52.7278938  45.7606010  75.9898605
  51.8227654  45.4515572  75.9515533  53.1198730  45.2652512  76.7090378
  65.2086411  14.3628988  11.2295799  65.7065125  13.5629301  11.0610390
  64.3842087  14.0567656  11.6074982  41.2746964  68.2091446  73.9611053
  41.8775635  67.7057266  73.4139709  40.7101402  67.5498734  74.3646698
  55.6195412  34.9259605  31.4377251  55.9403801  34.0243263  31.4564953
  55.0414963  34.9903641  32.1979523  14.2961283   5.7104096  85.9551392
  15.0824318   5.9226398  86.4580536  14.5979023   5.6615291  85.0480728
   2.3839228  48.1807365  21.3968182   2.0100045  47.7532120  22.1672993
   2.8857872  48.9151649  21.7503357  61.4840660  58.0236740  76.6679840
  61.5432625  57.7761993  75.7452240  62.3114204  58.4693069  76.8499985
  26.3295803  40.1876373  34.9940033  25.9872551  39.5599632  34.3575516
  27.2368393  39.9163780  35.1337547   1.2329202   6.5812931  34.5219650
   0.8838567   6.2149224  35.3344688   2.1638556   6.3593059  34.5396461
  59.2556076  36.1727982  25.8075008  59.2967987  35.3141861  25.3864079
  60.0555382  36.2214813  26.3309231  48.1311684  27.5383892   9.6976061
  48.4471283  26.9470882   9.0144043  48.6710510  28.3231964   9.6036148
  37.6126938  40.2405281  68.4871216  38.3356514  40.6342773  68.9755096
  37.0120850  39.9240570  69.1619186  51.5986137  16.1724701  60.8164482
  52.2380066  15.8558931  61.4545631  52.1252480  16.4477234  60.0660324
  67.4663620  29.2034187  80.0202408  67.7895508  28.4068928  80.4413452
  68.2575760  29.6897144  79.7884293  79.9876862  50.0155716  39.6182709
  80.1645889  49.1023827  39.3923950  79.4475784  49.9668999  40.4070358
  16.6629944  70.2543182   3.9973075  16.9485359  69.9298630   4.8513732
  16.8749523  69.5462875   3.3890328  48.9396706  17.6051579  30.0139122
  49.4218178  17.3493500  29.2275753  49.0414581  16.8626976  30.6094151
  45.9298096  30.3902054  36.5495491  45.3801613  29.9715595  35.8870888
  46.0687065  29.7110271  37.2095909  18.7685165  50.0990181   8.5731468
  19.3927021  50.8010063   8.3892069  19.1737404  49.5974922   9.2806053
  13.8484716  66.2377167  80.0318756  14.7772055  66.0061646  80.0401306
  13.7626457  66.8577728  79.3077240  71.9138718  66.4200516   7.6742649
  72.4898682  66.8268967   8.3215189  71.8740463  67.0532227   6.9575090
   9.7826796  69.4550858  18.4467545   9.6910315  69.1536407  19.3506145
  10.6646223  69.8248596  18.4058590  19.9218121  39.8217316  88.3782959
  20.3675213  39.2824440  87.7250443  19.0055618  39.8250847  88.1013336
  79.6341782  52.7725716  69.3506699  80.3379135  52.6270676  68.7183533
  79.8975372  52.2704735  70.1218872  34.2580872  12.7925186  76.4644241
  34.7625618  13.3145285  77.0883179  34.4335709  13.1983833  75.6154785
  42.3000908  62.2410469   1.5065076  41.5239716  62.0005074   1.0005310
  42.8653908  62.6909485   0.8786125  59.9232445  15.9299107  43.1636467
  59.1559181  16.4189796  42.8665657  60.0084190  15.2129984  42.5351448
  41.7874870  50.0069733  23.7400017  42.1989670  50.4099579  24.5045395
  41.9028244  50.6491165  23.0395870   4.4515700  63.9734154   1.1918160
   3.7503309  63.8132324   1.8233511   5.1020236  63.2966919   1.3793939
  76.5491638  37.1746063  40.9022522  76.4865417  36.2740707  40.5839043
  76.1582642  37.7024994  40.2060051  54.2411270  65.3373871  31.0475845
  55.1204720  65.6993637  31.1569271  54.3120270  64.4364777  31.3631325
  46.2575722  40.0930443  73.4491348  45.8758240  39.2197266  73.5375366
  45.5473480  40.6305275  73.0985336  50.8607674   4.6548858  12.2854128
  51.6457253   5.1873264  12.1566534  51.0036736   4.2164664  13.1242199
  25.7080669  42.0755386  15.7545338  26.3948002  42.1443787  16.4177761
  24.9237347  42.4147911  16.1857681  49.2529945  33.3512421   8.1453199
  49.9013100  33.5508842   7.4699960  48.9649925  32.4606400   7.9450321
  31.4119129  68.0782471  23.8528137  31.3172874  68.9768448  24.1687145
  31.4988136  67.5526886  24.6480923  71.4875488  37.7879906  11.1475220
  71.3782425  36.8376694  11.1131773  72.4244461  37.9264908  11.0086565
  72.2020721  55.9020424  60.4400520  72.2241516  54.9498062  60.5348778
  71.2828445  56.1345482  60.5711861  85.9768448  29.7379742  55.7170944
  85.4694214  29.9338570  56.5047379  86.8893204  29.8327484  55.9902992
  25.3864765  61.5765915  46.8896141  25.8031673  62.3828468  46.5853844
  24.4662895  61.6756325  46.6453209  22.0682774  48.9954529  48.2072983
  21.4510689  49.3460121  47.5651207  22.6222248  48.3974991  47.7054787
   3.2387464  64.9895859  73.9882355   2.9709477  65.8902588  74.1707306
   2.7578554  64.7527390  73.1952133  18.9027100  61.4176483  29.1272202
  18.2377033  62.0819244  29.3081474  18.4725304  60.8040848  28.5316410
  42.4460754  60.1281166  35.4341660  42.2919617  60.3019180  34.5055771
  43.3012886  60.5193863  35.6123543  34.2001343  66.5657425  81.4841537
  35.0583649  66.1563950  81.3741379  33.8666306  66.6661987  80.5925674
  69.7006149  35.2381821  20.8900757  70.0727234  34.7264442  20.1718197
  69.9438553  36.1423264  20.6911049  55.0863838   7.5258889  19.3363075
  55.4403801   7.8324809  18.5014896  54.7573700   6.6468325  19.1485767
  44.7336540  69.8530045  68.4869003  44.9787674  70.7763443  68.5468063
  43.8073921  69.8349838  68.7276154  71.4600525  22.8482246  23.9897270
  71.1465073  22.6042728  24.8605938  71.7211609  22.0194206  23.5883121
  77.1762848  36.3066521  21.8446312  76.7668457  36.0820694  22.6801853
  77.1459427  37.2628288  21.8123817  22.2504387   2.9787047  16.0764561
  22.4333382   3.9039392  16.2399216  22.5805092   2.8219764  15.1917410
  35.9683723   1.3809229  46.3605003  35.9255486   1.8438940  45.5238075
  35.2753448   1.7767158  46.8889847  64.0097656  56.1549225  34.3534622
  64.1129608  56.5781593  33.5011406  64.8248291  56.3477135  34.8168602
  77.7401047   4.9563656  17.2027321  77.4437637   4.6826916  18.0707836
  78.3173676   4.2499347  16.9129715  43.8861809  35.8726959  21.5883656
  43.8051224  35.9911385  20.6419868  43.2380562  36.4704857  21.9609413
  16.6277714  54.1303825  50.8417740  15.8105936  53.9490433  51.3060646
  16.6111469  55.0749435  50.6876450  36.6722488  57.6618996  54.2368736
  36.4123001  58.4647675  54.6885986  35.9240837  57.0743561  54.3430748
  63.7175865  24.3331890  17.4480286  64.2383423  23.5378036  17.5594330
  63.0483932  24.0935059  16.8069630  69.8202286  29.6724415  13.1774158
  70.5398636  30.0470257  12.6694403  69.1663666  29.4282722  12.5223732
  82.1007843  60.7276421   5.1302781  82.0805740  61.1465302   5.9907179
  82.9781952  60.9116821   4.7948437  41.1867981  21.5859566  -0.2144388
  41.4675941  21.1767483   0.6040571  41.7623329  22.3444576  -0.3127690
  72.7498093  43.0427818  72.7733002  73.1402435  43.9166756  72.7632828
  71.8571091  43.1828880  73.0890350  38.7275772  53.6333313   0.2056496
  39.3049660  53.6539688  -0.5575191  38.9697800  54.4098015   0.7102946
  39.1175461  51.1104012  28.4542294  38.7270355  50.3519287  28.8883343
  38.9845619  51.8325691  29.0682507   9.9734211  13.3120556  85.2878494
  10.4498405  12.5350761  84.9953461  10.6537447  13.9022512  85.6119766
  64.5297470  22.0548744  28.3751926  65.4336853  21.7735806  28.2337475
  64.1098633  21.3069553  28.8001003  83.1559906  39.4691353   6.1067104
  83.5903625  38.9639511   5.4194398  83.6730728  40.2715569   6.1772699
  72.6660004  69.6625366  11.1824923  72.2991867  69.6471634  12.0664864
  73.2636108  70.4102631  11.1841230   3.9728518  29.0299320  21.1688614
   4.0856295  29.2078266  22.1026001   4.4028149  29.7647724  20.7313995
  64.6404648  38.3453789  26.7371845  64.7858963  38.7869453  27.5739040
  64.8795013  37.4334373  26.9029026  18.9237404   2.6798832  72.2469788
  18.1756878   2.5928791  71.6561432  18.6779423   3.3883283  72.8418884
  28.1175728  41.5587578  85.3003006  28.9483261  41.1557388  85.0480042
  27.6386528  41.6556816  84.4772186  77.2417450   9.1781979  78.6637802
  77.0260544   8.6014242  79.3966141  76.8889084   8.7305603  77.8947830
  52.0062332  35.4493103  56.2775841  51.1607361  35.0438004  56.0854111
  52.2676849  35.8600883  55.4534836  53.9838295  41.4382935   4.1775436
  54.4478836  42.2754555   4.1709075  54.5029984  40.8812523   4.7575459
  52.8495903  29.9335480   3.4880180  52.6849823  30.8558521   3.2918296
  53.3801994  29.9491062   4.2845368  34.8174591  61.9761467  11.3154554
  35.3784142  62.7511940  11.2860098  34.1267204  62.2039261  11.9377346
  65.2879181  18.6616383  11.3087378  64.4831696  18.9802761  10.8999825
  65.8187790  19.4477081  11.4372330  68.8768463  59.7169418  53.5178947
  69.7101059  59.3006783  53.2973709  68.2138138  59.0748367  53.2642746
  33.6977272  56.1067581  60.2558060  33.5829506  55.3438301  59.6892395
  33.4010239  56.8460312  59.7250748  68.3093567  41.3376312  13.0080290
  68.1473312  40.4848289  13.4113989  67.5623779  41.8740158  13.2736330
  10.0538225  28.5523510  48.0679779  10.5314178  29.2853642  48.4563446
   9.2178841  28.9295158  47.7937813  78.8042679  44.3723106  36.2296486
  79.4255676  44.5383339  35.5206680  79.2210312  44.7465324  37.0058594
   2.0484161  24.1669769  63.2265739   1.7142774  23.4262028  62.7207718
   2.0628870  23.8526783  64.1305847  48.2261696  16.1929188  57.6256981
  48.6107788  17.0694046  57.6168251  48.9518394  15.6153164  57.8623695
  46.8350449  62.4530563  34.5136528  47.0486488  63.0183411  35.2559853
  47.5418968  62.6043739  33.8861961  57.2587051  51.0951729  61.6964722
  57.4394722  51.0672722  60.7569084  56.7587128  50.2971611  61.8679810
  25.3765182  36.5513077  75.4554596  25.8331089  36.0919266  76.1602478
  24.6996212  35.9381256  75.1690140  56.0670319   3.2330592  77.2523575
  55.5101662   3.2928693  76.4761124  55.8062592   2.4130166  77.6715927
  55.8337746  52.3071175  52.0604897  56.4513512  52.5830231  51.3832130
  56.3669395  51.8146515  52.6845436  68.8111420  66.8480377  30.1019707
  69.7233963  66.5843811  29.9814720  68.3587494  66.5043869  29.3315983
  81.7920914  69.0493622  62.8067551  81.8219910  68.3304443  62.1754875
  81.5318069  68.6350403  63.6294479  44.9247780  67.2303162  78.0887909
  45.1541443  66.3022919  78.0397339  45.6541824  67.6801682  77.6623764
  57.7579308  41.3795586  44.4852715  57.3277206  41.4036903  43.6305389
  57.1192169  40.9620895  45.0631905  58.3136101  32.8845291  21.7717342
  58.7737885  32.4984322  21.0264854  58.2591476  33.8170204  21.5626335
  24.5250912  42.9584999  87.5759735  24.2855282  42.2903976  88.2182159
  24.0289955  42.7252350  86.7912979  37.6474419  40.6469498  31.7688560
  37.4952126  40.0568123  32.5069580  38.5485878  40.4674835  31.5006123
  86.1168823  19.6484489  82.3863525  87.0075073  19.4437485  82.1015472
  85.6934280  20.0095654  81.6075592  76.1242371  45.9140739  41.4921722
  76.1525421  46.4938431  42.2532883  76.2771530  45.0399895  41.8510933
  45.7093048  49.0408249  43.3391685  45.3725929  49.2597275  44.2080421
  45.4416389  48.1323357  43.2004662   6.0761971  11.0407343  72.5210266
   6.8575311  10.6202354  72.8800964   5.6081414  10.3350992  72.0746765
   4.0296888  42.1209869   3.6776123   3.8346758  42.8230591   3.0568912
   4.8048072  41.6906624   3.3167164  28.1833477  59.5191002  13.4691772
  28.6829281  58.8603325  13.9515409  28.3510647  59.3198624  12.5480871
  32.1603966   9.0443201  88.4475327  31.8652344   8.1604586  88.6663971
  32.8904648   8.9102488  87.8431702  52.1323509  65.0932617  57.3999786
  52.5222664  64.2413101  57.5958939  52.7095108  65.4743347  56.7382355
  30.3708401   6.7596698  60.8331566  31.2873230   6.5299802  60.9865685
  30.2465534   7.5803270  61.3099213  39.0382385  50.3495140  86.9571991
  38.7910461  50.2326622  86.0398865  38.9375839  49.4801903  87.3449860
  10.3173084  39.0761719   0.7322251  10.8487244  38.3130989   0.5051854
   9.5752201  39.0393715   0.1287503  32.4693336  49.8486938  74.1609497
  31.9188728  49.2767677  73.6260452  32.3910522  49.4959030  75.0473099
  43.7592278  35.0972862   0.6090242  43.7726631  35.6011086   1.4227908
  44.6083374  35.2738495   0.2039637  80.2761154  22.9437370  62.8223152
  79.5758286  22.3756561  63.1434250  79.9432602  23.2894917  61.9941292
  81.1150208  56.4633865  62.3886070  80.9196091  55.5790520  62.6984444
  80.6278229  57.0373878  62.9797020  12.4247475  23.2698135   3.3904889
  12.1925087  24.1604767   3.6531959  13.1552191  23.3822918   2.7822196
  69.8527069  10.5442867  79.2104111  70.4444199  11.0910091  79.7273254
  69.0247269  11.0245771  79.2066879  86.4094543  33.1304131  52.4254951
  86.3936462  33.2566071  51.4767838  86.0408859  32.2568779  52.5570984
  12.2785511   1.1029625  78.3118134  11.9664392   0.2320302  78.0662613
  12.3321085   1.0776501  79.2671738  77.4249039   0.8141017   4.8809643
  78.2067566   0.4179665   4.4962306  77.1498489   0.1940486   5.5563235
  55.3036842  50.8726654  40.8944092  54.8448944  51.2072868  40.1238441
  55.1144600  51.5112495  41.5818977  40.0179329  65.3275299   6.3777013
  39.3393402  65.0868073   5.7469916  39.5651321  65.3474045   7.2207947
  60.2404060  29.5505066  64.0621872  60.2082596  29.8366299  64.9750595
  59.3355331  29.6191292  63.7576714  72.8948898  23.7317066  57.3323021
  72.5084915  22.8590393  57.2589722  72.3055115  24.2061176  57.9186440
  20.3551846  59.1349220  13.1175938  19.9852448  59.5246582  12.3254557
  21.2934265  59.3146210  13.0572567  13.7242136   9.3577986  12.6358480
  13.9962234  10.2420702  12.3902750  13.5543852   9.4119501  13.5763044
  32.6638756  16.9521179  85.4003296  32.5019073  17.8937244  85.4584274
  33.0223541  16.7174873  86.2562943  59.0961456  12.1844358   1.7335100
  59.4862747  12.2564726   2.6046243  58.7131195  13.0463991   1.5705879
  35.1548347   2.6461425  10.0654640  35.0993919   1.7317491  10.3430290
  35.5259476   2.6067982   9.1840105  75.6057663  34.7217522  39.8661575
  76.1890717  33.9644470  39.8163643  74.9534302  34.4788322  40.5231857
  71.9074326  61.8847580  81.3542404  71.4870911  62.6513748  81.7439041
  71.1977386  61.2516403  81.2459106  47.9848022   3.4187484   1.5858755
  48.3684921   3.4594557   0.7098868  47.9982452   4.3243661   1.8955643
  14.2868814  45.3624458  57.0840721  14.9844332  44.9146500  56.6053925
  13.6897478  44.6623535  57.3477707  17.8288994  63.7771111  26.4382248
  17.3590317  64.4421234  26.9414310  18.5783253  63.5464592  26.9872169
  29.4553089  27.8926411  10.1515894  29.9565296  27.5458622  10.8896646
  29.9222355  27.5796528   9.3768301  14.6010551  70.5524216  62.5500984
  15.3986893  70.1906891  62.9363098  14.6998482  71.5002365  62.6401978
  44.6895561   9.9501591  84.9567871  44.0775909   9.7777529  85.6723328
  45.1705132   9.1294861  84.8499832  33.7026062  37.0892754  70.5091248
  33.9740410  37.1290627  69.5920792  32.9280167  36.5269279  70.5054474
  48.2888985  53.1230927  52.8795738  47.7109261  53.7152290  52.3983727
  48.3061104  53.4757423  53.7692795  30.7256737  17.0967636  71.7100677
  30.1576004  17.8597450  71.6033783  31.1999111  17.2632828  72.5246887
   9.8221798  67.9767838  49.9514427  10.7100143  68.0354767  49.5985451
   9.9385662  68.0174561  50.9006691  73.0532532   5.3680239   5.0554433
  73.9948349   5.4414287   5.2112260  72.7733765   6.2610879   4.8546023
  81.0303802  64.7117538   0.7498507  81.7449341  64.4255905   1.3188443
  80.8894577  63.9760818   0.1538990   9.5266180  46.4377594  18.3818893
   9.2976065  47.3667526  18.4094715   8.8646669  46.0116272  18.9263725
   6.6127758  31.7956848  68.1426010   6.1729183  32.2739601  68.8454590
   7.2932725  32.3944016  67.8348694  20.0603638  48.3360291  31.8351612
  19.8174248  49.0711746  32.3979912  19.8818817  48.6451645  30.9470100
  82.6336060   7.5495615  13.9217491  82.6234589   7.3085475  12.9954443
  81.7155075   7.7146878  14.1363459  71.1663361  68.2003632  40.6247635
  70.9457855  68.9463501  41.1825142  72.1033020  68.0645905  40.7658234
  45.0498123  65.4126511   8.3259592  44.1016235  65.4058685   8.4568357
  45.3188477  64.5064392   8.4764128  11.9192533  65.0350418  53.5524750
  12.2693815  64.5566101  54.3039665  12.3439674  64.6339874  52.7941895
  18.8340034  68.4972229  41.5723038  18.9738579  67.7414093  41.0018501
  19.7068501  68.7154846  41.8990059  39.9869766  32.3837204  22.9027309
  40.9220009  32.3795547  23.1075344  39.8159409  31.5119228  22.5464363
  66.4764328  52.9561234  14.4457674  67.2628250  52.4832954  14.7182560
  65.7869492  52.6263695  15.0220537  30.3851719  53.8054199  35.0186806
  30.9008560  54.5785370  34.7893600  30.3156929  53.8382301  35.9727936
  59.3860817  64.9080200  16.2925491  58.4862900  65.0249405  16.5974083
  59.9109421  64.8993835  17.0929718  73.5335999  47.6711311  33.9008064
  74.2149506  48.2741890  33.6036415  73.8266220  46.8112602  33.5991592
   9.7532291   3.3634186   8.5051289  10.1382627   4.2143774   8.7145319
  10.2199678   2.7446065   9.0667849   3.7062938   2.4290004  58.2846489
   4.0755010   2.3160884  57.4087677   3.3649626   1.5646234  58.5139465
  71.4728165  32.6331902  16.4477825  72.3010559  32.2185059  16.2063560
  71.4493637  33.4393539  15.9322395  23.5603905  16.5491085  52.4885902
  23.1221962  17.3302708  52.1509476  23.3757629  15.8711166  51.8386116
  80.5013046  67.5839767  64.8650589  80.8613434  67.1759644  65.6525421
  79.5808563  67.7406311  65.0759201  43.9414597  30.2144165  83.7294235
  44.2800789  29.5710564  84.3520432  44.5600357  30.1898117  82.9993591
  80.0265656   3.6286020  16.1498013  80.1119003   3.8681238  15.2269907
  80.2324295   4.4329844  16.6260586  22.3002872  47.1124649  14.4295444
  23.1928062  47.1629906  14.0873623  21.9403763  47.9883957  14.2901144
  78.6720047  44.6191483  65.8683472  78.7362061  45.3333168  65.2342606
  77.7588806  44.6347542  66.1550446  85.1656189  59.8140144  36.4591599
  86.0020599  59.3487511  36.4477348  85.1431961  60.2868843  35.6272240
  36.9357109  19.2833652  75.3805618  37.2707748  20.1478806  75.6184235
  36.9006538  18.8040085  76.2083435  55.9817963  12.3882980  48.5589485
  55.7636719  12.2496538  47.6373062  55.7647095  11.5585270  48.9839020
  51.1279488  32.2256432  24.4055309  52.0614014  32.1742592  24.6110954
  50.8880539  31.3330860  24.1564903  72.5478516  53.0764084  85.0898895
  73.2239532  53.0240402  85.7654572  72.9351730  52.6431313  84.3293152
  46.2950096  40.8590431  84.5953445  46.8153114  41.6540985  84.4795609
  46.8228760  40.3096161  85.1747589  26.5124359   6.3103876  82.0251694
  26.6492863   6.0758471  82.9430466  27.2103691   6.9360909  81.8312225
  39.4643364  47.5270157  80.1012115  39.5444221  46.8197746  79.4611816
  39.4709663  47.0840569  80.9497223  82.1727295  18.4839153  54.2897720
  82.3653564  17.5507050  54.3805695  82.8971329  18.9225235  54.7359734
   0.8051448  58.0124435  19.2498131   0.9106885  58.1326942  20.1935463
   0.0425307  58.5451622  19.0242901  46.2304153  48.5101280  86.7771759
  47.0526466  48.3367424  86.3188019  45.5691605  48.5257339  86.0852737
   4.7546682  37.9231796  77.0981903   4.7664971  38.8359489  77.3861847
   4.5030141  37.4290886  77.8784332  20.3386173  54.9254913  22.2753830
  21.1930084  55.2131310  21.9536533  19.9547901  54.4467926  21.5407009
  84.4117966  18.0784607  58.4688530  83.7321625  17.4371548  58.6763382
  84.2610397  18.7951317  59.0852013   3.7713432  45.7034874  21.0695076
   3.4095163  45.1754456  21.7811852   3.1871910  46.4595375  21.0113430
  59.2987099  22.1832047  47.1758652  58.9023972  22.5015430  47.9869308
  58.5581856  21.8811893  46.6498947  75.7872772  18.6903782  83.0177994
  76.0872040  17.9654350  83.5661926  75.2784424  18.2711563  82.3238449
   0.6823488  28.7608261  51.1703529   0.5063871  28.5646114  52.0905495
  -0.0978601  29.2280273  50.8716393  43.0728569  57.6610413   4.4311004
  42.6781349  56.9304771   3.9549706  43.4872818  57.2548256   5.1923308
  45.2949333  63.5672722   5.3997765  44.6496544  63.7662888   4.7213631
  46.0317268  63.1834755   4.9243178  74.1684799  29.8500557  20.1079445
  74.6194534  29.3306103  20.7735519  73.2554321  29.8663712  20.3948593
  38.1092987  67.4418488  35.4206161  37.2780647  67.7152328  35.0326157
  38.1882935  66.5161972  35.1900444  35.9597816  71.0450439  21.6058483
  35.6241570  70.1489563  21.6305122  36.4763527  71.0852585  20.8010082
   1.7809434  54.2412758  72.9071045   1.0329109  54.6470680  72.4689178
   1.4038851  53.8082581  73.6729736  25.8456974  39.3371162   1.6059991
  25.8920116  38.3833008   1.5402186  26.0152550  39.5220032   2.5297406
  43.8996964  45.4749947  13.1511793  43.2282677  45.9591217  12.6705208
  44.7078094  45.6398811  12.6653814  17.9675503   1.7771779  25.1565208
  17.1541748   2.2283225  24.9304180  18.4379749   1.7010912  24.3263741
   3.6381180  20.0699673  83.7440567   2.9758523  20.3601933  84.3712769
   3.5634451  20.6855354  83.0148544  31.0907154  49.1163559  61.9882088
  30.6680450  48.2760811  61.8106613  31.9259243  48.8834000  62.3936577
  77.2966690  25.6050625  64.5923080  76.7711334  26.2433701  65.0746002
  77.9530487  25.3095818  65.2232513  58.1146393  41.3445930  32.2201385
  57.3765640  41.9192276  32.0169830  58.8047676  41.6184731  31.6160355
  67.6237869  11.1229658  49.4920731  67.8582764  10.3565693  50.0154114
  68.0994797  11.8463831  49.9002571  64.6910858   9.8057499  58.3842964
  64.3318176   9.1888685  59.0219650  63.9649696  10.3979158  58.1885300
  20.5015240  24.5561771  74.0949783  20.5346756  24.2730808  73.1812057
  21.1895714  25.2178421  74.1658478  -0.1196090  39.0266647  18.3871975
   0.5821956  39.4240074  17.8716183   0.3344033  38.5448494  19.0785427
  30.5890465  13.5002661  69.9086380  30.9235420  12.8158064  70.4881744
  30.0484791  14.0507479  70.4751968   5.0933824  27.2010708  85.5209045
   5.7780104  26.6404228  85.1559525   5.4845858  28.0744419  85.5412750
  86.3522568   6.9131236  10.6034498  86.2166290   7.6636090  10.0249958
  85.8662109   6.2002821  10.1889019  71.5822601  33.6323853  88.1628952
  71.2128525  33.7866287  87.2934265  71.9910202  32.7691574  88.0997620
  48.0613098  65.5072784  45.1349716  48.9721107  65.7971802  45.1862793
  48.1176834  64.5805817  44.9019508  56.5683250  65.7148209  82.3860092
  55.7400894  65.7546463  81.9078140  56.6553650  66.5797424  82.7867203
  64.2841187  55.3021278  72.6366806  64.9958725  54.6621590  72.6277847
  64.1698761  55.5460739  71.7181625  35.4890747  67.6822510  28.5072136
  35.1170845  67.4400253  27.6591682  34.7414246  67.9961624  29.0158463
  53.6312294  46.0594902  69.9651947  53.8473206  45.2081985  69.5846252
  54.3570175  46.2469215  70.5604477  17.2497540  33.7110214   7.0740232
  17.7865429  33.4987411   7.8375854  16.8808098  34.5716896   7.2724161
  78.0280457  41.8341713  36.9225922  78.2253952  42.7272606  36.6403160
  78.0326767  41.3210487  36.1145630  23.9057140  23.9721184   8.4211369
  24.2250443  24.2764359   7.5716367  23.0274544  23.6369038   8.2407894
  69.6016998   4.4271870  18.9312191  69.4605789   4.3709545  17.9861507
  69.3223114   3.5751595  19.2662201  51.9777451  64.5514755  67.5049591
  52.5898247  63.8279572  67.6395264  51.9893074  65.0320740  68.3326874
  70.5931778  28.0617943  42.0722885  70.3300476  27.9143620  41.1638527
  70.6719208  27.1834087  42.4444046  11.9267664  20.9933243  55.9354744
  11.6846256  20.0948658  56.1599159  12.3166418  21.3435154  56.7364693
   6.0280294  18.5459557  53.0752640   6.0548296  17.6159554  52.8502846
   5.1985064  18.8563786  52.7122765  52.1243477  24.5593166  67.4778214
  52.6059189  25.0076294  66.7825928  52.5449371  24.8506756  68.2867966
  54.0474243  26.7321644  51.3329620  54.9312439  26.8907146  51.0013542
  53.8865776  27.4539528  51.9407272  73.1038132  52.1393127  23.0380573
  72.3527069  52.5958672  23.4170341  73.4209137  52.7276344  22.3528156
  19.7423935  50.4027405  71.0122223  20.1362209  49.7518425  71.5931320
  19.8888416  50.0575600  70.1315155  38.9361992  29.2650986  41.4506454
  39.5245209  29.9911900  41.6577721  38.4462128  29.5647984  40.6849251
  46.4591370  40.2934875  42.0717316  46.9074783  39.5530968  41.6630211
  45.5428314  40.0210953  42.1209602  32.0960083  30.6602745  67.0756531
  32.3642006  30.0996323  66.3476486  31.1980896  30.9151497  66.8635025
  83.2075043  32.5361977  31.8563118  82.3427963  32.1473083  31.9877605
  83.6422043  32.4457703  32.7042999  22.0118332  56.2079964  14.4805632
  22.4285889  57.0689163  14.5175104  21.2271404  56.2983513  15.0212364
  48.4195709  29.2996998  18.8826046  47.8548012  30.0631580  19.0025959
  48.6673698  29.0431137  19.7708549  47.1413651  62.7002029  14.0468884
  46.4092712  62.7853203  13.4361305  46.7355042  62.4326668  14.8714676
  14.3356552  59.1562309  41.9622498  14.1860313  60.0688286  42.2092552
  15.2882977  59.0632401  41.9547234  10.9375525  64.2550888  33.5791588
  10.8563318  65.0638885  34.0846100  11.4845409  63.6873169  34.1219940
  63.8486099   8.1490774  47.1825256  64.2873764   7.8560748  47.9811935
  64.4412537   8.8015060  46.8092422  58.7246857  64.5572357  81.1163940
  57.9045753  64.9743500  81.3803253  58.6929283  63.6898270  81.5199051
  62.7662010  32.3737602  33.3203964  62.3407593  33.2300529  33.2757988
  62.6007957  31.9792442  32.4641075  52.1104240  18.0289917   8.2166109
  51.9296837  17.2359409   8.7212248  52.9581184  18.3319263   8.5419989
  84.5675659  43.9212685  20.1778736  84.7255249  44.6439705  19.5704365
  83.6834412  43.6206322  19.9677048  30.1424713  61.7685547  87.5084763
  30.0805931  62.5854111  88.0036011  30.5970058  62.0112724  86.7018051
  14.4009457   6.8107309  12.8133373  13.8344650   6.6209722  13.5612154
  14.1685925   7.7032948  12.5572624  40.2102737  41.0003166  30.6346836
  40.0058556  41.9333229  30.6974640  41.1662712  40.9663315  30.6007366
  82.1375275   0.0871535  77.1769638  82.5547638   0.9403005  77.0574341
  82.4426956  -0.4347855  76.4348831  29.8210754  60.8025284  52.1889534
  29.1896248  61.4495430  51.8745155  30.6752701  61.1783791  51.9760704
  53.8967896  18.7277508  86.6972809  53.8334923  19.6746178  86.5721130
  53.5634575  18.3554211  85.8808899   9.6128016  65.3993301  41.7823486
   8.7775183  65.0094223  41.5244598   9.8747807  65.9256897  41.0270004
  82.6001053  36.2012711  16.2177982  82.0520706  36.1455956  17.0006065
  83.2344360  35.4915466  16.3185387  48.5984840   3.4064431  24.6436100
  48.6570740   3.5910251  25.5810165  48.4285202   2.4657133  24.5949001
  17.3948498  55.5592499  72.7149734  17.2021141  55.7077255  73.6407394
  18.2641430  55.1585541  72.7125778   9.9285669  70.7791214  79.4577713
   9.0495777  70.8352966  79.8325424   9.8550549  70.1140518  78.7733002
  11.5271358  31.1178780  30.9181252  11.5512438  31.1988258  29.9646587
  11.4835787  30.1750336  31.0774269  19.8408623  55.3418427  42.4274826
  19.0586758  55.8734894  42.5750237  19.8368950  55.1658936  41.4865990
  11.4935360  49.1497421   6.5042548  10.7994452  48.4911346   6.5308313
  12.3026066  48.6425133   6.4382453  76.6757660  36.2391052  66.9944229
  76.2908554  36.6962929  66.2467270  77.4704895  35.8356895  66.6452637
  62.7422180  32.9851723  39.4375305  62.9928932  32.0690613  39.3186569
  62.4499283  33.0373688  40.3475151  25.6376362  24.5635414  86.3937836
  25.6796799  23.8578091  85.7484818  25.5660286  24.1141376  87.2358856
  55.2362442  57.0153961  51.3060265  55.9889450  56.5039444  51.6028252
  55.3134384  57.0236168  50.3519783   6.1186352  69.3433151  74.5742645
   5.9543433  70.1104736  74.0259018   7.0278535  69.1074905  74.3900299
  83.4184647  17.1903915   8.8912525  84.0528183  16.5249062   8.6248770
  83.5728531  17.9215088   8.2930336  42.7880669  47.5414276  87.8638306
  42.5443230  46.9361076  88.5641174  43.0698090  48.3344002  88.3199463
  68.3615570  32.7349815  75.3618393  68.8093796  31.8951702  75.2598572
  68.7155685  33.0981750  76.1736221  50.9466934  38.7602119  41.9668541
  51.3662338  38.3944054  42.7455711  50.7781639  39.6749344  42.1929398
  37.5620651  26.7428894  16.4490166  38.0511093  26.2559910  15.7856922
  38.2079277  27.3327255  16.8378487  17.6262722   8.3515778  18.2976112
  17.8594742   8.0803585  17.4097557  18.1653976   9.1254435  18.4610367
  45.3727379  49.8217773  81.4319916  45.1113930  50.6202812  81.8906021
  46.2960701  49.7076111  81.6570511  46.5122604  43.6217880  84.1257019
  47.3201942  43.9724350  83.7508469  46.3509712  44.1646080  84.8974304
  21.8650112  65.3157806   4.5791259  21.3541813  66.0396347   4.2167540
  21.2433949  64.8331604   5.1240163  24.6491718  15.2933693  45.8599129
  25.3115406  14.7143908  46.2371178  24.1119881  15.5606747  46.6057091
  14.1055069  43.1337051  78.4784546  14.4818201  43.9977722  78.3110809
  13.6349688  42.9173775  77.6734467  60.8105774  71.7725296  49.0872841
  61.6208076  71.8689957  48.5868340  60.5695915  70.8526382  48.9779167
  66.1009140  16.5683765  15.3687143  66.9747696  16.5795231  15.7592106
  65.5071030  16.4716377  16.1132030  41.1597939  17.0081997  77.9951553
  41.0055466  16.9611607  78.9386749  41.3198357  17.9363861  77.8246078
  42.2259865  38.6487770  17.2093964  41.3170700  38.8799858  17.4008236
  42.4695740  38.0385017  17.9054317  46.4425926  26.2806530  81.2696533
  47.0975456  25.5845470  81.3216782  46.9447784  27.0663338  81.0534363
  27.8270588  62.8545418  59.4872169  28.7498550  63.0727196  59.3565407
  27.7903957  61.9026527  59.3934441  30.1614990   6.9833903  67.6376114
  29.5064335   7.4074988  68.1919174  30.4318810   7.6648240  67.0221634
   6.2078700  42.8975563  45.5195007   6.1781516  42.0137253  45.1531792
   5.2892699  43.1538048  45.6016159  60.2056656  68.2505722  73.7672806
  59.4011765  68.0799026  73.2774887  59.9089546  68.4349594  74.6584549
  82.4001389  62.4464340  68.9016266  83.2428284  62.2641830  69.3174438
  82.0869675  63.2412758  69.3333435  16.5138626   1.3268447  14.4722023
  17.1123505   0.5808585  14.5115433  17.0853043   2.0941854  14.5017748
  34.9065552  31.2360306  15.3370028  35.2516136  30.3432083  15.3427429
  35.4914513  31.7225990  15.9178429  63.0289803   3.8008926  34.6224403
  63.7613602   4.4166203  34.5954399  62.5139351   4.0069675  33.8423805
  16.7408409  26.4013519   3.5147862  16.4299927  27.2944412   3.6631091
  16.4726200  26.2001915   2.6182241  80.8244629   2.2299459   4.5654011
  79.9642563   1.8783412   4.7948365  80.6744461   2.7224345   3.7584426
  65.9829788  17.7769279  81.7905502  65.0378189  17.8306923  81.6490707
  66.1410751  18.3214626  82.5617371  46.9606628  53.7736397  87.1674500
  46.5661659  54.6278877  87.3431244  47.2845078  53.8395538  86.2691116
  48.8336830  64.0540237  41.4050064  49.7644196  64.2105637  41.5645676
  48.7819862  63.8482399  40.4716225  62.1133385  46.8380318  84.9248199
  62.7572212  46.2362900  84.5512466  61.5346069  47.0537529  84.1935425
  84.5254059  34.2710991  79.3953552  83.7479324  34.3540535  79.9475250
  84.9264526  33.4460983  79.6687851  78.0786896  40.0023193  65.9806824
  77.2278900  39.8592987  66.3953094  78.4099960  40.8045425  66.3842926
   7.5410943  14.7443457  88.9937057   7.9289341  13.9344893  88.6621246
   7.8217278  15.4162216  88.3723679  10.5558872   0.3312135  68.4314041
  10.8400736   0.5790544  67.5516052   9.8660412   0.9591272  68.6460419
  18.7397728  19.2782669   6.4173999  18.4961662  19.3801689   5.4973435
  19.0074425  18.3624763   6.4942803  84.4400864  38.1309853  20.0501442
  84.1958923  37.2071609  19.9940643  85.0326157  38.2673988  19.3108654
  41.4028664  45.0810661   6.5949783  41.3640594  45.2117043   7.5424271
  42.2232437  45.4965630   6.3293157  50.8288841  11.4393320  88.8002777
  49.8888664  11.3534098  88.6414795  51.1884384  10.5798454  88.5806503
  84.6076584  62.4436378   8.3737106  85.2596359  62.8019981   8.9759855
  85.1070251  61.8667412   7.7957354  37.9660263  51.5850029  16.3948765
  37.7331467  52.1473541  15.6561193  38.9231873  51.5769653  16.3973637
   5.7623563  23.6577244  82.9617386   5.7663336  22.9872169  82.2786331
   5.9019470  24.4796371  82.4914169  16.2613182  68.0636978   1.5375655
  15.3890762  68.3629303   1.2808784  16.0978813  67.3437347   2.1468072
   2.9595921  70.1366043  61.2420006   3.1149573  69.7707748  60.3712158
   2.2128079  69.6421661  61.5797577  63.1644630  59.2622566  10.2173986
  63.0330086  58.3216133  10.0984678  62.2889824  59.6393394  10.1303320
  14.0694208  65.1354141  71.0164719  13.7815685  65.8026276  71.6395340
  13.7111444  65.4217911  70.1763229  74.6554642  70.4600296  23.5340576
  74.6305466  70.4161682  22.5781879  74.6422348  71.3965988  23.7312794
  16.9721966  19.6641083   8.4714384  17.3856983  19.4787502   7.6282954
  17.6742706  20.0347366   9.0061884  51.2395859  52.6886101  75.1369553
  51.7973518  53.4614716  75.0485306  51.8318176  51.9988251  75.4364319
  85.8063736  50.4145775   9.9467621  86.5137711  49.9238091   9.5284729
  85.6449432  51.1513481   9.3574066  70.2602615   0.6122929  12.0308218
  70.2361145   1.3929645  11.4774685  71.1927490   0.4378023  12.1582689
  63.4565048  56.8762474   8.5776854  62.9660530  57.2710304   7.8566890
  63.3117065  55.9352341   8.4789076  74.7601013  14.9627838  55.0270500
  74.8248367  15.9124355  54.9260406  74.0969849  14.6987343  54.3892479
   2.5237319  36.8360100  85.0870895   2.0410891  37.5702553  84.7073898
   2.3730848  36.9119873  86.0293045  26.3280659  62.5823402  36.1040497
  26.3232861  63.4895096  36.4094200  26.9119053  62.1281853  36.7115936
  85.9224930  62.4540749  22.3890667  86.7184982  62.6994629  22.8606415
  86.1047211  62.6810417  21.4771957  34.1521339  40.2714462  40.6068382
  34.3094101  40.6623650  39.7473755  35.0248528  40.1676521  40.9860802
  38.9153862  29.5846634  63.0628777  37.9765816  29.4975700  62.8976631
  39.2035942  28.6981239  63.2801743  71.1277237   4.7402544  46.4248886
  71.8495636   4.9200587  47.0272560  71.2943573   3.8519008  46.1097794
  82.4004364   5.1211514  38.3636208  82.6520157   4.2969756  37.9468765
  83.2054749   5.6388221  38.3759575  24.3159199   4.4951363  24.7710724
  24.0255451   4.3622065  25.6734257  24.8779564   5.2688842  24.8118477
  27.5068417  70.1817932  11.6339788  28.1022587  70.0121536  12.3640013
  27.5303936  69.3784561  11.1140480  78.5150146  38.1463737  12.7590227
  78.5009842  38.6205292  11.9276314  77.6834564  38.3706207  13.1767025
  39.9757805   3.6899183  10.3578224  40.7724838   3.1677856  10.4520321
  40.1758270   4.5142627  10.8012972  31.9616413  68.0105286  74.0325394
  31.4721794  67.4196320  74.6048126  32.6440277  68.3775711  74.5945511
  81.3429642  23.8197269  13.9502153  82.2207947  23.8292904  13.5687046
  80.9594040  24.6570930  13.6895819   3.9941137  13.1371012  67.0731354
   3.8478909  14.0439901  66.8040619   3.1865590  12.8873529  67.5222626
  10.9739275  28.5716209   2.9575820  10.3576632  28.4428883   3.6786077
  10.7600374  29.4380531   2.6114969  10.7181501  12.2726965  79.6347580
  10.7996788  12.6453972  78.7568741  10.0613461  12.8187914  80.0667496
  73.3880997   6.0057001  32.1374359  73.6128311   6.6221833  32.8343430
  72.4794922   5.7632246  32.3159523   4.2037015  25.6131592   4.6239958
   3.5485380  25.6181679   3.9261653   4.3463202  24.6854954   4.8119717
  16.4139061  52.5127754  10.7808495  16.5750885  52.6933212   9.8547525
  15.5466022  52.1081734  10.7985754  11.0798960  28.4406071  31.8036137
  11.6834106  27.8111477  32.1983070  10.2166710  28.0388641  31.9019814
  51.4802246  69.8240051  79.8894043  51.9672394  69.4967804  79.1331100
  52.0225410  70.5330124  80.2350006  75.1831131  69.0296326  66.1626968
  75.0561905  69.6713867  66.8614655  74.3003998  68.7219620  65.9568253
  63.3566513  34.1191750  47.2944221  62.9521065  34.9487038  47.0405388
  63.4261055  33.6264153  46.4767418  72.4990997  69.6936035  56.0870552
  73.2781525  70.2497559  56.0882874  71.7668991  70.3068924  56.1501808
  18.9426079  17.9735813  86.9183884  19.6618900  18.4934101  87.2770615
  18.6643639  18.4550991  86.1393127  79.6345062  20.3102379   2.1861670
  79.2763748  19.4754791   2.4880860  79.9940796  20.7159424   2.9750524
  36.9976120   7.3164506  74.8223190  36.8310432   6.5581155  74.2624817
  36.5937881   8.0499220  74.3584442  21.0382729  66.6827621  58.7331772
  20.5466709  65.8617249  58.7545395  21.9100533  66.4320602  58.4275932
  41.7486610  31.5204296  25.3637772  42.6003647  31.3275871  24.9718037
  41.9079895  32.2832832  25.9195614  32.7990265  42.7480164  66.2504883
  33.6161842  42.2520294  66.3003006  33.0657730  43.6607361  66.3601151
  51.2216530  10.7936163  47.7242088  51.7296829  11.5914164  47.8713608
  51.7328568  10.2988415  47.0838165  36.0013847  60.9492455   7.6080890
  35.9059296  61.6135826   6.9256096  36.6818695  61.2951889   8.1855812
  68.7734985  43.0342293  22.2762547  69.6233826  43.4061165  22.0403957
  68.8832779  42.7404175  23.1806049  49.9994965  51.5080528  22.4425011
  50.3988724  51.2819176  21.6025047  50.5320320  52.2310715  22.7739811
  71.3787613  23.4628239  47.9395828  71.8031998  24.2979317  48.1362534
  71.6630554  23.2533245  47.0499115   2.4968035   7.0784826  53.3986702
   2.9470060   7.1137996  54.2426491   2.3766468   6.1439118  53.2302284
  16.3001099  47.2823982  82.5150604  17.1221828  47.7368965  82.3310547
  15.6377087  47.9733467  82.5082855  17.3169651  23.6478958  70.9061508
  17.7770824  23.2503471  71.6453934  17.7076492  24.5175323  70.8205261
  23.8408451  57.3127213  56.8146782  23.5475502  57.7827148  56.0340919
  24.5991364  57.8092346  57.1224174  32.1712418  54.7824898  21.8700008
  32.3233643  54.3527031  22.7116508  31.2185078  54.8018074  21.7796745
  38.2488174  -0.0010669  45.8425217  37.4443817   0.4190229  46.1468849
  38.7413139  -0.1835165  46.6427650  48.0277748  15.2541237   4.1558852
  48.9667778  15.3182907   3.9815650  47.8004456  16.0936661   4.5555353
  46.5389786  19.0837097  18.4663334  47.1670303  19.2765961  17.7702160
  45.8415489  19.7279816  18.3449593   5.1827068  49.5325432  57.6067734
   4.5769019  48.9751625  58.0951996   5.8943338  48.9458847  57.3505516
   7.7753530   2.3349199  41.9075317   8.4830503   2.1478446  42.5242958
   8.2123499   2.7350376  41.1557541  64.7599411  52.6491966  51.2594032
  65.6184769  52.3420105  50.9682236  64.9353943  53.1061859  52.0819626
  35.4713402   2.8293338  34.0748940  36.1531487   2.2319047  34.3822212
  35.6984634   3.6731949  34.4654655  36.7748528  69.3664703  32.2747421
  36.2323647  70.1288528  32.0729561  36.3200531  68.9333115  32.9970741
  65.6312637  48.9025917  79.9134216  66.1066666  48.3795624  79.2679214
  65.8723602  49.8070564  79.7132797  75.6218796  10.5265636  46.5434036
  74.7951965  10.1196737  46.2840309  75.6488113  10.4285831  47.4951935
  23.9313049  42.2410698  23.5211697  24.6842651  42.7924042  23.3082981
  23.1917324  42.8478699  23.5537701  56.0706940  38.8289185  24.0652657
  56.0456123  39.7617607  23.8521786  55.1980972  38.6383171  24.4094734
  15.8616600  48.0466080  11.2994413  15.2848730  48.6249466  10.8003693
  16.4861851  48.6368866  11.7210703  44.6527405  16.1873169  36.7159958
  44.8143005  15.4038086  37.2415848  45.4860840  16.3571053  36.2767448
  40.3461838  56.9683609  59.5055084  40.9170799  56.2137184  59.3612022
  39.5233498  56.7314987  59.0776405  11.5191946  57.5580788   6.3143597
  11.8432369  56.6652145   6.1959391  10.8729076  57.6726990   5.6176486
  80.7549057  70.5881500  39.3051643  81.0438309  69.7820587  38.8774071
  81.5127335  71.1707458  39.2551231  20.6767025  44.9128113  89.0292587
  21.0164223  44.0383110  88.8393326  20.6904716  45.3636742  88.1850052
  64.3454514  47.1152840  57.1247711  64.1905441  47.6541901  56.3490028
  63.6134148  46.4987030  57.1381493   1.9092706  55.7908249  85.7232285
   2.6146691  55.4104691  85.1998062   1.8950680  56.7141304  85.4711533
  14.6045399  45.1097336   7.4011140  14.8699570  44.8841286   6.5095491
  13.6898184  44.8331261   7.4559412  51.8372879  71.1992722  38.0322952
  51.1393204  70.5492783  38.1134491  51.3872375  72.0026321  37.7709541
  62.9861221  58.6377296  38.9982033  62.8880539  57.7422028  39.3217010
  62.1747169  59.0755272  39.2554779   5.1604657  69.4072418  48.1607590
   4.5842733  68.6443939  48.2086983   6.0442948  69.0397797  48.1539574
   3.4947979   5.8372812  81.7002335   4.4081926   5.9130716  81.9762726
   3.0526550   5.4292927  82.4447403  42.7054138  53.5525017  86.5231171
  42.9692383  53.9673729  85.7018356  43.0982437  54.0984077  87.2042236
   1.5677928  41.6023102  78.5192337   0.9449871  41.0959129  79.0406799
   1.7664098  41.0398827  77.7705917   8.8044682  34.3359184  32.9683838
   8.8717690  33.7428474  32.2200737   7.9333615  34.7245216  32.8884239
  43.6781998  49.4494972  10.4478741  44.5969086  49.1915474  10.5232010
  43.2676659  49.1081238  11.2423296  80.3542862  27.1696644  11.5748415
  80.7563629  27.9282532  11.1516275  80.7512970  26.4147034  11.1405039
  49.9889946  51.8162689  28.2593288  49.2411499  51.4379959  28.7217846
  49.8045349  52.7551689  28.2332783  68.1504211  20.7180824  46.8118134
  67.5983734  20.1218071  46.3059196  67.6786118  21.5508118  46.7983551
  41.9539909  25.2213173  14.3981419  41.4518051  25.2569141  13.5840311
  41.6059532  25.9400768  14.9258633  51.2312737  19.1655884  81.8588486
  50.5912552  19.3815422  82.5370636  52.0804901  19.2890205  82.2829056
   0.7320992  60.9215546  53.9225349   0.2498465  60.8088112  54.7416534
   0.0985912  61.3176346  53.3241882  22.5019970   0.3256334   5.8142905
  22.4198627  -0.6280308   5.8110709  21.7545567   0.6321402   5.3008542
   2.6759150  14.4996071  32.4700813   2.9263453  14.4461555  31.5477715
   3.4394884  14.8803625  32.9039154  81.8809738  68.4762115  88.5068588
  81.5722961  69.2167816  87.9848480  82.1706696  67.8320236  87.8608398
  57.6343422  42.1013870  20.7065945  57.5522842  41.3872795  20.0744972
  57.7050591  42.8901825  20.1689758  71.6308746   7.4917474  45.3748512
  70.7721405   7.9113488  45.4271698  71.5017624   6.6313705  45.7739906
  35.6359406  55.3927536  75.8688660  35.0414734  54.7821045  75.4330368
  36.0962639  55.8309288  75.1530838  62.8869591  66.2554474  43.7915802
  63.7206497  66.7091064  43.6675262  62.3400154  66.5568390  43.0661469
  81.2597733  25.9912205  63.3829269  80.5030746  26.1158276  62.8101158
  81.7136078  25.2313881  63.0183487  24.3842201  61.2676430  63.8961067
  25.0464897  61.8306046  64.2969894  24.4845142  61.4123955  62.9552460
  56.2796516  22.1706848  25.1075382  57.1244202  21.9473057  24.7167721
  55.6339645  21.7557411  24.5355740  44.7189484  14.1141710  81.6866455
  45.6264267  13.8108206  81.6602554  44.2704849  13.4797134  82.2457275
  29.6991787   0.2447604  37.8158112  30.4405098   0.3322801  37.2166443
  30.0858288   0.3216178  38.6880646  70.8995895  53.1849213  59.9901695
  70.1901321  52.5497513  59.8928719  71.3865585  53.1278763  59.1680794
   7.5533290  63.6159325  81.7838593   7.3641243  64.5441818  81.9209061
   7.7121673  63.5402374  80.8429718  41.9496956  20.8003788  71.7172623
  42.2168617  21.5666332  71.2096100  42.0188713  20.0698566  71.1026154
  28.6314678  65.3414307  20.3662987  29.3363247  65.9831390  20.4535522
  28.3148079  65.2104568  21.2600574  62.6248360  20.9847565  66.0089035
  63.4780922  20.6059608  66.2203217  62.1205521  20.9060230  66.8186722
  61.7315826  62.0326080  12.5322638  62.0045013  61.4835777  13.2673235
  62.4634552  61.9900055  11.9168119  19.9342175  54.8143196  39.4907455
  20.5800018  55.4806824  39.2558899  19.1094799  55.1436539  39.1335602
  36.1815796  63.0062981  34.7053413  36.1086426  62.3525581  35.4007072
  35.5370102  62.7341080  34.0521355  12.5373173  45.3754616  38.2604790
  11.6903267  45.7683182  38.4714394  12.5548630  45.3433533  37.3039780
  61.2498283  12.6570158  75.4027405  61.4127502  12.4503784  76.3230591
  60.4685631  12.1515026  75.1784363  48.7719345   0.6114213  82.8420944
  47.9330406   0.2663749  82.5364304  49.3671951   0.4828409  82.1036072
  82.8551025  22.4439774   6.1482811  82.3082657  23.2266636   6.2160864
  83.7485962  22.7810135   6.0825844   7.0786796  41.6907578  35.8046455
   7.0875201  40.9048119  36.3509483   6.5598850  42.3226395  36.3024521
  73.9163589   8.3412571  36.9214363  74.5619049   7.7205071  37.2593384
  74.2987595   9.2017736  37.0932274  67.3698883  69.3866119  30.4899387
  67.7490921  68.6228867  30.0550156  66.5180817  69.0843887  30.8050995
  53.3920670  14.0341883  28.6217022  52.5971680  14.5407896  28.7881927
  53.0781860  13.1475611  28.4439278  28.0440578  60.9108810  72.8716660
  27.2327194  60.4145355  72.7639389  28.3476105  61.0705338  71.9780273
  39.4590225  44.5029945  27.4063358  39.9109230  43.8335571  26.8926506
  39.5279465  45.2978249  26.8774433  45.3526497  70.6314774  47.6580467
  45.7808647  69.8627090  48.0346985  45.1216202  71.1713562  48.4139481
  53.6457138  67.5808258  82.9970856  53.3296661  67.6274796  83.8993988
  52.9205284  67.1905823  82.5091782  49.4341660   0.2051303  11.2226124
  50.0362892   0.0725789  10.4904194  49.8777771  -0.1915314  11.9723454
  23.7265205  65.2682724  27.1069641  23.2642078  65.9271011  26.5888500
  24.6524715  65.4861298  27.0002575  63.7239761  59.4875259  35.2764587
  64.3820877  59.0841522  34.7104073  64.1194687  60.3145142  35.5519676
  11.4362106  53.9407272  12.1905575  10.6244707  54.2654457  11.8008566
  11.8342733  54.7126617  12.5929155  13.5144529   8.5431585   5.3343172
  12.8275814   9.0789375   5.7310290  13.2887125   7.6454387   5.5779800
  12.3364601  48.6973839  37.9537964  13.2253275  48.6081810  37.6100082
  12.4210958  48.5088234  38.8884163  76.1340256  60.4823799  17.2910500
  76.2990189  61.3264351  16.8708363  75.3014832  60.1891556  16.9207573
  33.7854805  60.4986954  60.6464195  34.2692337  59.7524452  61.0004311
  32.9677620  60.5117874  61.1438103  44.1553688  36.1455231  85.7651520
  44.3663177  35.2285500  85.9409180  43.3375092  36.2981262  86.2384872
  16.1421509  50.1562729  25.5599651  17.0749149  50.1718674  25.7743034
  15.8069000  50.9904404  25.8886070  84.6526794  58.6197319  46.4494057
  84.0622025  58.3778534  47.1628990  84.3367310  58.1194267  45.6970062
  74.5774460  48.2151909   3.3672225  73.8042450  48.6295891   2.9842441
  74.4664078  47.2828331   3.1811714  79.0790329  22.8067093  30.1246948
  78.8866577  22.0898132  29.5203094  79.8522568  23.2318058  29.7536755
  15.9221687  51.7696571  19.1327057  16.0126648  52.1407204  18.2550068
  14.9772396  51.6886368  19.2622318  38.2613144  51.2206459  82.0767517
  38.7529564  51.3269577  81.2623749  37.4729004  51.7487373  81.9512405
  79.2448807  10.1403971  63.7263107  80.1554794  10.3956566  63.8742485
  79.2219543   9.8530159  62.8135605   3.8756812  10.1726971   6.8461895
   4.2120466  10.5999193   7.6339531   4.1541085   9.2608042   6.9308176
  42.0365105   2.7932043  32.6591148  41.3559875   3.4381614  32.4663658
  41.5904312   2.1210313  33.1743126   8.0129204  69.1599350  23.5653839
   8.8356552  69.5451431  23.8669739   8.2049465  68.8466339  22.6815300
  78.2827835  58.2647476   3.6544559  77.8769913  58.2527847   4.5213017
  78.1816483  59.1682930   3.3551059  23.9336052  28.1732883   1.1514883
  24.1668358  27.2513027   1.0429623  22.9894123  28.1646175   1.3085099
  10.2051315  38.1374207  83.9256592   9.2568016  38.0138855  83.8851624
  10.5349131  37.7230453  83.1283112  13.3706837  59.7502403  12.6965246
  12.7442913  59.6042252  13.4054289  12.9239960  59.4306221  11.9125948
  79.5785904  31.3028088  27.2723026  79.5026245  31.3970451  28.2218189
  79.7787857  32.1849594  26.9593163  65.2806244  53.9385300  46.0591202
  64.9148178  54.7205963  45.6458473  65.9136887  53.6054153  45.4231186
  32.7983589  46.6664352  81.2134399  33.7458992  46.7057076  81.0835953
  32.5433807  45.8139648  80.8605804  50.2103767  56.3752556  21.5659943
  49.7836609  56.8545723  20.8557835  50.1778831  55.4592476  21.2901173
  36.2002983  13.3575048  66.3683701  36.8446732  13.1790037  65.6834259
  35.3579254  13.1470270  65.9654617  52.7238388  38.3782997  32.1515274
  52.3065605  37.6776505  32.6527252  53.3137398  38.8007774  32.7758369
  35.3939362   2.6844425  18.4518986  34.9222603   2.4931059  19.2625408
  35.0953751   3.5588071  18.2017403  64.8740616  59.4373512  54.8668671
  63.9792175  59.3341560  55.1906433  65.2602615  60.1014938  55.4378319
  22.3999977  44.6902428  72.1395950  22.3613892  45.6014404  72.4302139
  22.9028721  44.2428741  72.8201904  40.0205765  11.9730463  33.3866692
  39.4247169  11.7548971  34.1033249  40.2087212  12.9038868  33.5065460
   7.9668598  27.4261894  10.0731297   8.1524229  26.7067184  10.6765862
   8.1368771  28.2174225  10.5842829  82.5710297  16.2065907  35.8783875
  82.0240402  16.7191639  35.2831535  83.4491653  16.2581367  35.5009689
  53.3062325  47.0462189  15.0762978  53.9279976  47.5174789  15.6308708
  53.3827896  46.1330910  15.3530121  67.8637695  48.9147606  65.8377533
  67.9129105  48.8741646  66.7928238  67.7465439  49.8446350  65.6432648
  83.6327515  40.0083122  80.8437195  83.1792603  40.6804085  81.3525009
  83.3890839  39.1839867  81.2648468  65.8849564  40.1664238  64.3664551
  65.1868134  40.7312431  64.0350800  66.4831924  40.0655899  63.6260643
  74.3233337   0.2522362  34.0458260  73.9645462  -0.4043205  33.4488068
  74.8665390   0.8104768  33.4894753  52.9987869  61.8880424  39.4762192
  52.0884132  61.6810226  39.2650414  53.0227013  62.8438606  39.5217552
  39.3435898  43.8343811  88.5063400  40.2141075  43.6353188  88.8510132
  38.7744675  43.1700363  88.8948975   0.2631130   0.5753928  13.7618847
   0.6260005   1.2698631  13.2121067   0.3647891   0.9003461  14.6564789
  14.7600908  30.0291023  62.9846115  15.3488770  29.9866409  63.7381096
  14.3364601  30.8841763  63.0595627  11.8401814  43.4223709   2.1996951
  12.2221403  43.5649185   3.0657320  11.3833666  42.5845299   2.2743516
  72.0723877  71.6746368  46.7627563  72.1568832  72.3346786  47.4508247
  72.5116119  70.9015427  47.1172218  84.1272202  15.2058840  37.9214592
  83.7415771  15.5621824  37.1211090  83.5674438  15.5356169  38.6244240
  62.0489311   5.0742798  20.2855263  61.6345711   5.2588067  21.1284294
  61.4531250   5.4512558  19.6381187  13.0295820  28.8404636  14.8655205
  13.7485809  28.5125351  15.4056463  13.3853216  29.6215420  14.4417315
  28.5925312  28.7061539   1.8854122  27.7120838  29.0403481   2.0567605
  29.0473461  29.4348850   1.4631269  17.6025410  65.7750015  21.8945713
  17.3079147  65.1664352  21.2170219  18.3938503  65.3714828  22.2512760
   3.5452902  61.2908325  27.6895409   3.6671472  60.3441925  27.6170750
   4.4121976  61.6272316  27.9165668  56.9599876  35.4199104  42.3119888
  56.4721336  36.2135124  42.0919266  57.8784828  35.6879005  42.2840347
  38.0903168  10.5741558  73.6249924  38.1529007  10.6907368  74.5730057
  38.9244843  10.9009094  73.2879028  15.4711657  39.6041641  89.0641861
  14.9101982  39.3673172  89.8027344  14.9206734  39.4701805  88.2926712
  64.6440048  23.6811829  61.0496559  63.7465668  23.3550377  60.9828300
  64.9712601  23.3152637  61.8713875  73.2768784  49.8170700  77.0279617
  72.7245331  49.2083855  76.5373993  72.7178421  50.5792160  77.1790924
  74.2878342  44.9371452  49.5434227  74.1030655  44.2054291  48.9546242
  74.7604218  44.5417175  50.2758980   2.6335893  70.8069611   5.2375736
   3.5086517  71.0792694   5.5138803   2.1821718  71.6253433   5.0309339
  73.0741882  71.2285156  53.0549316  72.4072952  71.4654007  52.4104309
  72.9321976  71.8360443  53.7808647  42.5839119  33.3123169  81.0532379
  43.5325127  33.2245369  81.1464081  42.2454147  32.4304695  81.2081528
  30.3019199  39.5454636  45.4665985  30.7472172  39.9762039  44.7369385
  30.9927635  39.3900452  46.1106606  44.2390518  23.4054298  18.9166927
  44.4673004  22.4957771  18.7252064  44.6308784  23.9063663  18.2013130
  61.3007965  43.5144768  81.8886490  61.3958588  44.1020393  82.6382904
  61.8983345  42.7902107  82.0747223   4.2953911  50.5376282  29.8351383
   4.9626665  50.0540810  30.3221283   3.4658687  50.2542686  30.2196293
   6.3208938  28.6861057  82.1456451   6.0443525  28.9942245  81.2826157
   6.0479765  29.3795929  82.7463303  68.4279404  59.5168343  77.8201828
  68.0255814  60.3358154  77.5310364  69.0550461  59.3012733  77.1298904
  53.1433144  11.1760035  28.9872265  52.5765190  11.4906340  29.6914864
  52.7953453  10.3117208  28.7677631  48.2257042  64.4466400  25.6091003
  47.3563576  64.1597748  25.3294926  48.7199478  64.5416260  24.7948971
  38.6077614  26.0948696  76.5955048  38.6633034  27.0455208  76.6924973
  39.2868042  25.7545986  77.1780396  43.2351837  22.9529343  70.5744400
  43.5866470  22.6666985  69.7313690  42.3058510  23.1086159  70.4060898
  68.6090240  49.0042267  28.8363724  68.0876465  49.5219002  28.2228470
  67.9623871  48.5610580  29.3856373  82.3211288  33.8984871   6.1471934
  82.1344604  34.7886543   6.4455142  81.8503418  33.3360901   6.7622519
  57.7551689  70.2660675  88.2676086  57.1544342  69.5819626  88.5631485
  57.7460938  70.9136581  88.9724350  50.1441612  27.4182911  58.3108292
  50.1289368  26.5341625  57.9443359  49.2380943  27.7200680  58.2460175
  70.5621567  17.2806587   0.3377679  71.3736725  16.8510475   0.0673641
  70.8494492  18.0181293   0.8761272  51.2600746  34.5535393  22.7563362
  50.3368759  34.7769508  22.8747597  51.3700523  33.7299347  23.2315311
  19.9951572  47.7387810  26.9439316  19.3001842  47.1131477  27.1484470
  20.5479927  47.2835121  26.3088455  11.6857357  50.2330475  55.0134888
  12.5322657  49.9564438  55.3643608  11.8669062  51.0673790  54.5807114
  63.0557671  27.1517162  22.4406586  63.8651543  27.1232967  21.9304466
  62.5292435  27.8295822  22.0169830  56.6778679  66.3920364  31.4937096
  57.3258553  66.2276306  32.1787758  57.1971474  66.5390854  30.7031689
  69.9678802  59.6451340  25.8520279  69.0810928  59.3113976  25.7161751
  70.0927048  59.6142960  26.8005524  57.4873772   8.0330620  43.9527550
  57.4731369   8.9546719  43.6945610  58.2161407   7.6572118  43.4589272
  14.7500982   5.9684010  79.6037750  14.6367617   6.9187875  79.5914383
  14.0485802   5.6362433  79.0436172  26.6988087  37.5992050  14.8948345
  27.2525730  38.3542786  15.0934334  26.9583397  36.9368057  15.5352278
  71.9732742  30.1409054  56.1862564  72.7734909  30.2903671  55.6827164
  71.2806854  30.0946236  55.5271606  38.3463783  34.7401390  86.6317902
  38.2651024  33.8377991  86.9406738  37.5732079  34.8764000  86.0841827
  77.1836548   6.8110991  65.1094284  77.4135513   7.6560159  65.4960709
  77.7758331   6.7202468  64.3628998  61.4235916  65.3411026  53.6477928
  60.7689896  65.1296616  54.3133926  62.1907654  64.8241501  53.8936348
  25.6211739  53.3867340  71.0666733  26.3613377  52.7798424  71.0581665
  25.3722095  53.4479408  71.9888992  40.6544495   1.3238757  77.1016464
  40.3541260   0.7884178  77.8360291  40.3778877   0.8399075  76.3234940
  86.4528427  69.7683792  79.5479050  87.3626251  69.8611603  79.2652054
  86.3995514  68.8779907  79.8951797   2.2852714  49.3616028   6.3271503
   2.3506939  48.6563148   5.6833200   2.4185908  50.1622238   5.8197398
  64.3222351  55.0216255   6.4309492  63.8368263  54.4743462   7.0482836
  65.1820297  55.1349525   6.8360925  25.7315712  66.9332504  30.5867100
  26.2152767  66.3775482  31.1978226  25.5597782  66.3680267  29.8335590
  17.5382099  21.7944050  22.3349266  17.5694771  22.6924076  22.0050087
  17.2655849  21.2715759  21.5809002  63.3849297  44.6066284  15.1721935
  63.2010956  43.6681137  15.2124729  62.8359680  44.9277382  14.4568176
  52.6014748  62.8229790  32.2366219  53.2562637  62.1694298  32.4823074
  52.0706253  62.9381943  33.0247574   2.1322298  55.7045593  16.5236301
   1.7724065  56.4030495  15.9769421   1.7337849  54.9039459  16.1823215
  40.9062309  32.5085754  10.2523012  41.3797188  33.1456108  10.7873049
  40.1698456  33.0007935   9.8894091  18.5430737  44.0213623  66.7534332
  17.7756157  43.6184578  67.1595230  18.3603001  44.9606934  66.7754211
  31.2760582  52.1120148  84.5189667  32.1755447  51.9521942  84.8046494
  30.7588310  52.0735550  85.3234787   6.0419321  22.2356052  74.0920029
   6.7487826  22.7313213  74.5053558   6.2742405  21.3188229  74.2395630
  10.0547180  66.8225555  82.4160995   9.4994955  66.7584000  83.1931686
  10.7622919  67.4127731  82.6753616   6.5026612  19.0517864  66.9167175
   7.4009066  18.8893127  66.6286392   6.5242043  18.9052181  67.8623810
   7.8639913   6.2498822  76.4898682   8.4410210   6.8411570  76.9732590
   6.9834337   6.5875187  76.6537399  75.9202652  56.4328995  70.1339417
  76.0788116  56.7028389  71.0384979  76.2731476  55.5445404  70.0837402
   1.4911014  32.8391533  73.2954330   0.9130490  32.3801041  73.9048309
   2.2734802  32.2897720  73.2475204  79.4248962  12.7366762  32.3475113
  79.2277451  11.8592062  32.6752472  80.3762894  12.7450008  32.2425880
  39.7297935  65.4298706  47.2845421  39.2628632  65.7435379  46.5100594
  39.6732559  64.4759979  47.2283287   6.8728342  37.2015915   6.3109450
   7.0218844  37.9412956   5.7220035   6.8427305  37.5928459   7.1840124
  13.1293068  17.5508518  86.2981720  13.3669205  17.6487656  85.3761215
  13.8904810  17.8778210  86.7776947  46.2480659  59.8698425   9.7112179
  45.8788033  59.8314056   8.8289471  47.1894341  59.7541313   9.5821171
  71.1650620  20.5078812  32.9839363  71.7336960  20.0473862  33.6010513
  70.6068420  19.8230076  32.6157417  67.0191879  47.6559448   9.1977119
  67.2960587  48.5722237   9.1967325  66.1112518  47.6804123   9.4998446
  80.3705368   3.4531693  84.9134216  80.9943924   2.7653186  84.6812668
  80.4057693   3.4958920  85.8690186  77.0879669  25.3613071   9.9357224
  77.8297043  25.6622066   9.4108229  77.1598358  24.4068489   9.9269075
  47.5196762  42.6811676  65.7316360  47.0900726  43.3725739  66.2352524
  46.8809929  42.4419556  65.0599976  53.0517235  51.9191284  49.6594734
  52.3896523  52.6102829  49.6454277  52.5515289  51.1105232  49.7698975
  51.5091171  48.5679321  47.5781860  51.0445137  47.7829514  47.8683319
  52.1041565  48.7742348  48.2990150  84.4311600  24.2515545  46.0955772
  84.4203796  24.2381878  47.0526237  85.1994400  23.7326355  45.8574371
  45.8617516  45.7835274  73.7461090  45.8140945  46.7357979  73.6615753
  46.5643196  45.5249901  73.1496277  39.8566360  51.1463432   0.3718219
  39.3419266  51.8832741   0.0428179  40.0702629  50.6357803  -0.4091520
  67.3211823  44.6722832  76.5792847  68.2031860  44.8056984  76.9263992
  67.2095413  43.7216835  76.5678406   8.4487457  53.2337532   1.9833860
   9.1595802  52.5927429   1.9905246   7.6509681  52.7062912   1.9438131
  32.5998535  55.6211166  57.7100296  32.9738770  56.4018364  57.3016014
  33.2592125  54.9406166  57.5743790  84.9397583  53.1003990  51.8334389
  85.7020264  52.7010269  51.4142952  84.4210510  52.3583412  52.1441269
  78.9115677  25.4293041   7.7814870  79.0482178  24.7335854   7.1384201
  79.6841278  25.9881763   7.6975265   7.7005711  48.6091499   5.1914520
   7.0973082  49.2794685   4.8705511   8.0890846  48.2376289   4.3994541
  61.0222435   1.8045907  20.2427998  60.6696701   1.8811356  21.1294022
  60.6552315   0.9860120  19.9089394  29.9002419  34.4959984  17.3946571
  30.5427322  33.9415703  16.9518833  30.4144001  35.0044670  18.0218220
  59.5102310  37.6187782  62.0528641  59.8636627  38.2041969  62.7226448
  60.1637115  37.6326981  61.3535767  85.6539536  62.1216507  51.8654709
  85.2557068  61.4771996  51.2803955  84.9234238  62.6712418  52.1492081
  53.0443115  71.1667862  11.4571276  52.7405357  70.2605667  11.4049892
  53.9653854  71.0965881  11.7079849  36.0013084  42.4508743  72.3870850
  35.1605835  42.0435982  72.1784210  36.0648766  42.3941078  73.3404846
   9.5814590  19.0709782  80.2379150   9.4604559  19.1081219  79.2891235
   8.6955729  19.1337337  80.5949860  79.4233856  38.0814972  54.0789948
  78.5344849  38.2322845  54.4004631  79.3027725  37.7340736  53.1952629
  49.8517532  38.1542816  33.4572792  49.9587364  39.1035538  33.3967438
  49.6437454  37.8792686  32.5643425  79.9228134  67.2227478   0.6070790
  80.3422775  66.3885269   0.8177207  80.6467896  67.8008423   0.3664635
  50.0207481  18.7966843   6.1405530  50.5154457  18.7511787   5.3223639
  50.6885605  18.8966579   6.8189774  74.9105682   5.4889774  35.7498016
  74.8132629   4.5428109  35.8571968  74.0133972   5.8224936  35.7405205
  31.0883579   4.8384295  20.8919544  30.6792583   4.2487478  20.2585964
  30.3530331   5.2687984  21.3282032   4.3776803  51.3235855  44.0343094
   3.4317369  51.1782303  44.0514565   4.5529976  51.6560440  43.1539841
  56.8812828  27.0762177  15.3152323  56.1931725  26.7603092  15.9008389
  56.4398651  27.2080784  14.4761877  58.3759422   2.4068878  63.3269615
  58.5959206   2.2522700  62.4083061  59.0046005   1.8763129  63.8163605
  53.2509995  21.3370724  11.2815723  53.6756668  22.0573063  10.8155737
  53.9601479  20.7222443  11.4695368  38.9976044  51.7755699  39.1796608
  38.7215538  51.0268364  39.7082672  39.6134758  52.2493515  39.7386475
  85.2987366   8.8018684  87.4174194  86.2516479   8.7960014  87.5077820
  85.0050049   8.0479631  87.9288712  59.7345581  44.2655754  62.8854065
  59.7244072  44.1489487  61.9353943  58.9747849  43.7727242  63.1953583
  81.1085739  69.9985504  10.2123089  81.1108932  70.3819885   9.3352690
  80.2221603  70.1529846  10.5388832   0.8224186  38.4177208  69.9939499
   0.7742155  37.4621468  70.0219879   0.9912610  38.6221352  69.0742035
  47.3448830  62.5335503  50.3713112  47.3601456  63.2997894  50.9447899
  47.8959732  62.7794609  49.6283073  16.0608997  55.0301476  85.2338562
  16.9661789  55.0963974  85.5376816  15.5365210  55.3303375  85.9762421
  42.7239418  32.4606133  51.5430984  42.3989334  33.0220528  50.8392639
  42.2114639  31.6560669  51.4636993  53.8203926  43.5466652  82.3301620
  54.7603836  43.4331245  82.4707184  53.6287498  44.4156876  82.6827316
  39.2243729  60.6488380  64.0306473  39.1903534  61.6051788  64.0086823
  40.0762787  60.4483185  64.4183121  40.3042412   6.8013945  68.9486237
  39.7073174   6.5879784  69.6658173  39.9812927   7.6357965  68.6084595
  67.7294159   6.5946841  53.5490608  68.1973343   7.3470635  53.1868324
  67.3028107   6.9340816  54.3358574  29.3674908  63.7804794  68.9236450
  30.2326107  64.1899872  68.9136276  28.8794308  64.2679367  69.5872803
   9.7014027  34.9013939  88.6465149   9.0719261  34.4200668  88.1095657
  10.1488514  35.4806480  88.0296783  24.5907784  49.7111778  20.3816833
  23.9853897  50.0076447  19.7020931  25.1280594  49.0466118  19.9505043
  21.5754166  61.7296219  27.7903118  21.9350567  62.2488060  28.5095749
  20.6835632  61.5208244  28.0682220  54.2228012  70.4805908  87.7214127
  54.8518791  69.9448776  88.2046432  53.9990730  71.1896286  88.3242798
  73.6903992   2.5843873  10.1498184  72.7898712   2.8967640  10.2376118
  73.8366699   2.5376740   9.2050152  80.2558136  22.6102924  51.5892448
  79.6731873  23.2679310  51.2093849  80.4650726  22.0261021  50.8604355
  74.1219864   8.4684935  62.8513718  74.7974014   7.7997317  62.7382278
  73.8196106   8.6562538  61.9628067  50.3019791  31.2232761  74.2220993
  50.0385895  31.7219048  73.4486465  51.1015816  31.6542110  74.5240250
  62.4914780  12.6533737  26.8912086  61.7109375  12.9143314  27.3799763
  62.9711227  13.4699707  26.7521305  30.8404408  59.2333527  25.1723442
  29.9607430  59.6106148  25.1784019  31.3593674  59.8269691  25.7150841
  77.4009552  14.8740320  54.1663513  76.4910812  15.1361647  54.3064842
  77.5475464  14.1703291  54.7984467  40.3130798  31.5921745  75.2777252
  40.8617630  30.8147755  75.3817978  40.7045021  32.0650215  74.5432587
  43.9838333  60.5635567  39.4998398  44.9380264  60.4883766  39.5096817
  43.6804314  59.7187004  39.1675797  39.5528984  54.3289909  49.6812973
  39.0947876  53.6074371  49.2503395  40.3493080  53.9310799  50.0329094
  17.1631737  46.5623856  87.3229828  16.4790211  45.9066238  87.1882782
  16.6862087  47.3758850  87.4871521  23.0775223  63.2906876  57.1571045
  23.4263763  64.1675873  57.3170433  22.5075912  63.3949471  56.3951721
  57.6765060   7.9939928  15.9626741  58.1732635   8.1413088  15.1578379
  57.8879051   7.0947294  16.2134075   8.8937225  58.9813919  80.6056061
   9.4948664  59.1769600  79.8868484   8.9704247  58.0355988  80.7313843
  36.0995216  59.5972977  78.9921799  35.5690231  59.8178558  79.7577820
  36.2239151  60.4310493  78.5387268  86.1063385   9.1937399  53.8689194
  85.4835510   9.9126396  53.9764137  86.7566910   9.3353786  54.5568199
   2.7262144  35.7251511  11.4861412   2.4215667  35.2912445  12.2831020
   3.6800897  35.7299385  11.5657091  77.2980728  27.6667461   2.2108862
  77.7421875  28.3408108   2.7253129  76.3998108  27.6660938   2.5415664
  18.2053394  22.2516479  12.6255560  17.3490467  22.2002678  13.0502367
  18.3829403  21.3568897  12.3355608  79.2554321  64.2146072  11.9812384
  79.3249817  63.6885681  12.7779026  78.3650284  64.5652466  12.0027189
  69.8112488  25.2328873  43.0646324  68.8887253  25.4876785  43.0808220
  69.7949753  24.2795067  42.9807701  52.9398499  26.0398273  21.8345032
  52.8297615  25.6689663  22.7100449  52.0924263  26.4374619  21.6345291
  19.8240566  42.1645813  50.6238861  20.3387318  41.6325264  51.2307320
  19.7729530  41.6369820  49.8268585  17.4775639  54.2728920  25.0087261
  18.0551586  53.6796417  25.4890060  16.6216469  53.8450012  25.0321846
  83.1589966  42.7367554  60.7743034  82.9283600  42.2518425  61.5667038
  82.4227676  42.5894966  60.1805763   0.5835471  64.8144684  18.5988216
  -0.3169160  64.5894012  18.3648491   1.0181346  64.9667358  17.7596684
  13.1208925   0.8827942  16.5936680  13.4460411   0.2927836  15.9136705
  12.1683655   0.8473830  16.5060806  76.9522247  11.2991743  53.7221718
  77.1968994  10.5880194  53.1300316  77.0940552  12.0959482  53.2110252
  46.6840286  62.1650047  44.1861115  46.4480896  61.7833748  45.0316429
  46.6365395  61.4329071  43.5712852  66.1469269  18.9909210  53.0187645
  66.0739365  19.7432480  53.6060562  65.4850769  18.3756218  53.3343544
  79.4019241  62.7925987  36.2211876  79.3709335  61.9191818  35.8307800
  79.7056885  63.3607483  35.5132523  64.6564102  47.3726425  52.9731140
  65.5426636  47.7275810  52.9038124  64.7842026  46.4533272  53.2071342
  25.4521503  34.2740479  11.8506336  25.9046993  35.0827179  12.0903893
  26.0830936  33.7973671  11.3112659  52.8597298  57.3805962   2.8874280
  53.1125946  57.8574295   2.0969100  52.1955681  56.7588081   2.5899355
  69.6072235  35.2300911  53.2362137  70.2407150  34.6868896  52.7673302
  68.9451981  34.6122742  53.5464630  14.3832178  63.0351028  88.3348083
  14.1161385  63.5794754  87.5941620  15.3367949  62.9882469  88.2660522
   7.3511314  63.2358742  13.2238789   7.8954482  62.7587662  12.5975256
   7.1373944  64.0561829  12.7793102  28.3073635  36.3197479  53.5926552
  27.6304779  36.6084480  52.9805183  27.8616238  36.2740173  54.4384995
  13.2511253  50.5168800  76.9087677  13.7852526  50.5580368  76.1155167
  12.3484783  50.5441208  76.5914078  38.2292786  52.4286079  22.2813454
  38.6748123  52.2424049  23.1078186  38.7749290  53.0922279  21.8593178
  68.0364227  40.5408325  53.3361320  68.6659546  39.8199806  53.3189430
  68.5762405  41.3288269  53.3984871  77.8476181  17.6564865  13.7371225
  77.2625046  18.3956451  13.9030132  77.4485931  16.9247971  14.2079144
   4.6800661  33.1499519  26.6604176   5.4905505  32.6752930  26.8449364
   4.0648594  32.8410187  27.3254833  37.8055878  36.4483070  18.9442272
  36.9094429  36.7779808  19.0111008  38.2844696  36.9158020  19.6285896
  31.0992851   6.2963452  44.8227577  31.9791641   6.5473647  45.1038895
  30.5394974   7.0144238  45.1181068  42.6474686   5.8414826  78.7332001
  42.6295433   6.3570533  77.9269180  41.8418770   6.0833330  79.1901016
  40.6293983  40.8264771  35.9446220  39.8614311  40.7004318  36.5019112
  40.3667564  41.5074615  35.3253365  50.2902679  12.1332235  17.7185593
  51.2329750  11.9879675  17.7987785  49.8939476  11.3953209  18.1818771
  78.9578781  19.8404121  72.7712631  79.5222015  20.1761589  72.0748138
  79.5527344  19.3711567  73.3562241  62.7406349  33.3061981  52.0771713
  62.9154892  34.1580009  51.6770554  62.4769402  33.5124130  52.9739304
  26.3848095  67.0857468  63.9901810  25.9472599  67.5916214  63.3054390
  25.8163605  67.1761093  64.7549896  15.1574049  57.5073700  35.1206627
  15.0758953  58.1792030  35.7975922  14.2618408  57.2008705  34.9783440
  66.2809067  25.9433937  22.9657631  66.9717255  26.2200966  22.3637371
  66.3226089  24.9871635  22.9549274  50.1999664  55.6589432  18.2394562
  49.6280632  54.9684677  17.9042034  51.0476151  55.2307243  18.3592587
   4.0703039  58.7816010  65.0146103   3.9575546  58.1190300  64.3330536
   4.9628663  59.1040840  64.8898315  15.8128223  59.1854134  71.0777206
  15.5966520  58.2941971  71.3520126  16.6745510  59.1076355  70.6683197
  87.0914612  58.3059692  65.1348190  86.3844528  57.7667923  65.4893036
  86.6643906  58.8636818  64.4845886  41.1652718  15.6397190  69.3464661
  40.8207664  14.8015118  69.0383148  42.0664978  15.4475889  69.6055298
   8.7650785  23.5346889  61.7416916   8.1934271  23.8756733  61.0538139
   9.0017500  24.3040504  62.2596703  80.2422104  21.2588120  66.0071259
  80.6209030  22.0555038  65.6354980  79.4890137  21.5647640  66.5124207
  15.0139999  31.7349167  72.9107285  14.0666389  31.8652649  72.9525452
  15.1185188  30.8264141  72.6280060  63.0732613  34.3755569   6.7467251
  63.9884453  34.5398026   6.5193524  62.9993248  34.6549454   7.6592526
   9.5364599  14.8388195  78.1341705  10.0779619  14.3603230  77.5064392
   8.6921358  14.9391899  77.6945419  26.2753487  46.4052734  64.0686340
  26.3858700  45.7389107  64.7468491  27.0118866  47.0028419  64.1977005
  64.5232620  48.3826447  42.3112831  65.4072876  48.7469749  42.2666168
  64.5530396  47.7713699  43.0472794  15.9445248   3.2026756  68.5500717
  16.1565590   4.0624046  68.1865616  16.7941380   2.7812300  68.6795807
  50.5337448  32.3641243  21.0681725  50.7309341  33.0665550  21.6878033
  50.3898354  31.5935650  21.6175022  23.8349304  50.0717812  11.4832048
  24.5299835  50.1586533  12.1355762  23.3747807  50.9106827  11.5103226
  79.7106934  62.0240326  51.1657677  79.7518387  62.7147141  50.5043297
  80.1505814  62.3973427  51.9295578  72.4824295  49.2522774   0.9199551
  71.8622894  49.2564430   0.1908205  73.2836609  49.6279488   0.5550724
  22.2730370  59.2421112  70.5614548  22.0942936  58.3037148  70.5006638
  21.7188168  59.5454025  71.2805405  44.8521080  43.1428757  32.1659126
  44.1339684  43.7505798  32.3425598  44.6341476  42.3607063  32.6727982
  12.4999771  55.1789017   2.2529292  11.8358946  55.3903236   1.5967827
  12.0038948  55.0401154   3.0596962  22.5507603   5.4788795  17.0762844
  22.6650810   5.1506462  17.9681492  21.8606873   6.1380877  17.1502895
  62.5219841  33.2177277  68.2130508  62.2769623  32.7609482  67.4083481
  62.0090103  34.0256767  68.1955261  40.5268402  55.8018303  69.8842545
  41.2369385  55.3676376  70.3569717  39.7955093  55.1861382  69.9323273
  29.0650597  23.1138821  76.2962036  28.6984863  22.8302917  75.4586868
  29.9217186  22.6889706  76.3388672  43.5870285  47.4022560   5.2309847
  43.5067139  47.9498444   6.0119629  43.0040817  47.8107681   4.5910459
   0.5444960   4.9817777  85.9654312  -0.3466860   5.2705317  85.7688446
   0.5688440   4.0685062  85.6798172  64.5661087  49.2106285  65.0980453
  63.6241989  49.1497917  65.2572250  64.8246155  48.3234596  64.8483734
  84.5101852  28.0945091  22.8604069  84.1606445  27.4215164  23.4444733
  83.7614822  28.3610039  22.3268776  16.1173801   7.7607656  73.8137131
  15.3842058   7.1643529  73.9653015  15.8487101   8.5807524  74.2280426
  62.3365440  47.7112579  16.9441051  62.6538506  48.1587257  17.7285309
  63.0834694  47.1923141  16.6457291  85.0313187  47.2431602  15.1808262
  85.1917801  46.4384193  15.6736479  85.8049698  47.7825241  15.3444700
   6.0308976  60.4730835  34.6047249   5.2009306  60.8632088  34.3305130
   6.3798761  60.0693321  33.8101006  63.3422966  66.0425644  34.0412292
  62.5602150  65.9104919  34.5770836  63.1350594  65.6212769  33.2070847
  22.8645020  16.4338779  55.0283737  23.0520153  16.1641445  54.1293106
  23.5610065  17.0546055  55.2424126  49.5364609  58.7237701  25.5678978
  50.4332695  58.4784775  25.7954979  49.6233673  59.2221909  24.7553368
  10.9217701  54.6990891  21.6141262  10.2668524  54.5177155  22.2882309
  10.7949104  54.0074501  20.9646854  53.5199738  30.1829300  72.6150894
  54.2896080  29.8808575  72.1327515  53.8772774  30.6028214  73.3975601
  34.1966705  12.5431986  70.9077606  33.9579544  13.3976831  71.2670670
  33.8673363  11.9133081  71.5488586  12.2726765  22.9573917  77.7339935
  12.5564499  23.2036381  76.8536148  11.6736355  23.6561966  77.9967804
   6.3732786  39.8603249  83.0821915   7.0339003  40.3924980  83.5255966
   6.6557565  38.9574432  83.2279205   2.0566440  31.7497730  18.3801517
   3.0105033  31.6705379  18.3698769   1.7406430  30.8576050  18.2372837
  66.0289001  52.3045654  -0.1266074  65.5463867  53.1212158   0.0018232
  65.7156296  51.7290115   0.5711291  63.9003067  25.6531105  86.4088821
  63.2155075  24.9919777  86.5098114  63.5051765  26.4596825  86.7398605
  77.1884995  54.0167389  47.3587418  77.0861130  54.5556183  48.1431885
  77.7281189  54.5471878  46.7725182  81.1639175  67.4540939  41.9996605
  81.4961624  66.6735840  42.4431190  81.8730316  68.0925903  42.0751953
  77.4226303   3.1149008  13.3018513  77.2123566   2.2973301  13.7530642
  78.3787308   3.1246407  13.2569656  17.4342136  68.8612213   8.8633642
  16.7145844  68.4268188   9.3212500  17.1144943  68.9752579   7.9683733
  75.7167206  25.6475334  39.6925545  75.3100967  24.7814770  39.7214928
  76.3195267  25.6540699  40.4360695  57.5451050   5.0881066  86.6321106
  56.7500916   5.2829814  86.1359100  57.2280960   4.7341957  87.4630661
  42.1365852  44.0696411  55.1684113  41.7917900  44.9455070  55.3422127
  42.8371429  44.2100677  54.5314407  50.9379501  33.4579163  41.6641846
  50.5339050  33.1295319  40.8609734  51.5472450  34.1336288  41.3668594
   9.9321318   8.1870050  71.9608307  10.0979471   7.3968344  72.4749985
   9.4805555   8.7758293  72.5654831  41.5146179  42.3711205  10.8073807
  40.7882004  42.4962997  10.1967421  41.4818535  41.4410133  11.0311308
  35.3962860  30.1338348  75.1331558  35.2218552  30.8953972  74.5801392
  35.3894997  29.3920040  74.5282822  29.4681549  43.8780861  37.8201942
  28.8288116  43.5523262  37.1866722  28.9890900  43.9118118  38.6482010
  24.6849861  55.6559639   1.5917120  23.8784313  55.8425598   2.0722141
  24.6337280  54.7213440   1.3914846  61.9921074   1.2192156  66.6973114
  62.2004280   0.4259267  67.1907959  62.7632179   1.3707488  66.1508102
  21.1007061  51.3232079  49.5459862  21.4103966  50.4390869  49.3493881
  20.9364014  51.7156334  48.6885262  46.3416595  51.8929176  43.2634468
  47.2472153  51.8113785  43.5626945  46.1309280  51.0325928  42.9005966
  82.1900711  18.2691441  75.8682556  82.4741821  18.4437294  74.9710236
  82.6339417  17.4550629  76.1059265  63.4382057  46.2012863  70.7782822
  63.0229034  45.3392105  70.8024521  63.1211815  46.6420517  71.5666046
  46.9217529  32.9547958  16.8434811  46.1939201  33.2753716  17.3761349
  47.6318512  32.8120575  17.4692764  20.3265095  41.6938744   8.8124619
  19.4799213  41.4788170   8.4209623  20.7109432  42.3349648   8.2145910
  39.6065521  66.2310410  69.0496750  39.5419273  65.5143051  68.4185333
  39.0388145  66.9149323  68.6944275  39.7325325  52.5029411  72.6715012
  39.0924339  51.9486847  73.1179276  40.4262657  51.9000473  72.4041290
  75.6389160  28.9085751  69.8952637  74.9511871  29.4613476  69.5241776
  75.5479050  29.0161762  70.8420258  58.2502937  33.6944542  75.8960114
  58.6879349  33.1934547  76.5842743  58.4187431  33.1985359  75.0948105
  54.1897812  29.9152012  81.5987701  54.3723259  30.0587940  82.5273666
  54.8894653  29.3320312  81.3045120  10.0727654   3.4922690  28.0684166
  10.1058407   2.5549834  27.8770180   9.5388451   3.8616583  27.3650589
   2.4504230  39.4556847  57.8372536   3.0321133  38.8958359  58.3514900
   2.0053647  38.8543205  57.2401619   9.7990513  10.9911127  17.5395374
   9.6637697  11.3986912  18.3949966  10.4985332  11.5057764  17.1369476
  24.8418827   2.7889817  70.6674805  24.6021423   2.6994081  69.7451324
  24.9544640   3.7309043  70.7953110  10.7401390   0.3796471  86.3282471
  10.5935192   1.0267247  85.6382980  11.2361870  -0.3183468  85.9004898
  70.1728439  70.5780792  28.3950634  69.4354706  70.1621780  28.8417606
  70.8597336  69.9114380  28.3950062  58.7819328   5.6779585  17.6495838
  59.2382088   6.4683785  17.9381657  58.2636032   5.4100733  18.4084015
  70.9037781  48.0718498  75.8432159  71.0702896  47.6143379  75.0190887
  71.2824860  47.5031815  76.5136108  66.4506073  42.2229614  71.1729660
  67.4017105  42.2071800  71.2796783  66.2296753  43.1533852  71.1313019
  58.4060402  56.7442856  18.7566929  58.9673576  56.0445709  19.0906944
  57.6717033  56.7755470  19.3698845  54.6916924   9.8148041  79.8637695
  55.6379738   9.6706676  79.8625641  54.5785561  10.6661587  79.4411240
   1.6867419  66.7752151  65.5443268   1.2200764  65.9662247  65.3346024
   2.5019214  66.4827042  65.9519424  55.7708626  23.0814190   5.6464710
  55.1098747  23.0892010   6.3387632  56.5114250  23.5615425   6.0169864
  84.3820724  43.2764549  32.5327034  84.3005371  42.8619728  31.6737595
  84.0781555  42.6107368  33.1497040  30.3147659   4.4500289  31.1276932
  29.6425629   4.4414368  31.8090897  30.0197487   5.1178174  30.5086174
  55.2192307  20.6872635  74.9304123  54.8153191  21.5496922  74.8339539
  55.3885307  20.4003582  74.0330505  39.7806053   2.1225891  54.5129089
  39.5520592   1.3709755  55.0597878  38.9496155   2.5751340  54.3683739
  49.2747536  54.4541779  28.4624863  48.5242996  54.4518661  29.0566635
  49.6122322  55.3488350  28.5063610   3.9536700  40.3060799  45.6486969
   4.3495493  39.9144096  44.8701668   3.1434813  40.7045021  45.3307533
  48.3950958   1.3358072  59.6312943  48.5155029   2.0647128  60.2399254
  49.0058060   0.6651314  59.9370041   0.9354088  27.7005920  27.7022667
   0.4530623  28.2721195  27.1048298   0.3134789  27.0081196  27.9256859
  30.3564415   1.4438870  73.4573593  29.8508816   2.1941094  73.7701035
  30.6435795   0.9993107  74.2549438  35.4885826   2.5966187  39.8857002
  35.9014053   2.1857781  39.1260834  35.2107925   3.4569516  39.5712318
  82.2945023  11.1639214  42.5682297  82.7021027  11.9385271  42.1808281
  82.1070175  11.4184675  43.4717178  83.1858368  45.0058784  64.2312775
  82.4027863  44.4553833  64.2353363  83.8880234  44.4256935  64.5254898
  75.3364410  31.3693695  44.7746239  76.0061646  30.6944294  44.8849297
  75.7551193  32.0353508  44.2292709  12.2362928  45.0992584  31.1120605
  11.4952898  44.6353951  31.5019035  12.4087839  44.6313133  30.2950497
  25.8554440  23.6585579  68.9721832  26.2001343  23.0876560  69.6588364
  25.0508289  24.0206604  69.3432693  60.0922966  63.9503098  22.3948193
  60.8177834  63.6786575  21.8325920  59.6579514  63.1325073  22.6372623
  45.6396141  29.8267498   8.7385559  44.9884071  30.4947300   8.5241613
  45.1801491  28.9961033   8.6154604  53.8903770  25.8865585  83.9555054
  53.1839142  26.1059341  83.3480377  53.5278816  26.0725803  84.8216553
  65.8686676  12.8730402  34.3267708  65.4694672  12.8763390  33.4567947
  65.1265259  12.8470984  34.9307442  29.2696877  34.1598129  69.2959671
  29.3733387  33.4130936  69.8857956  29.4605618  33.8068733  68.4269257
  15.4173441  47.6636543  48.2714996  15.8898277  46.8473549  48.4347382
  16.1050892  48.3172874  48.1450005  30.4459801  22.5180492  79.6531601
  29.6968708  22.2255268  80.1722870  31.2022533  22.3749161  80.2221909
  11.7538433  62.8372650  41.7500992  11.1143064  63.5391273  41.6292076
  11.9609804  62.5463982  40.8619995  24.8539162  35.2496681  86.0497742
  24.5249653  35.4658356  86.9222946  24.5527496  34.3543053  85.8953018
  40.2877502  22.3595943  83.8086166  40.7139549  21.8160648  83.1459274
  40.5988312  22.0081806  84.6428604  61.9856911  24.1748829  88.4242935
  61.3393517  23.5952206  88.8273621  62.6451530  23.5831776  88.0620422
  35.8677711  52.2332268  81.2287521  35.7435455  51.3222275  80.9625244
  35.4064713  52.7425270  80.5623779  43.6046600  43.4893417  22.6324978
  43.7640266  44.0378265  23.4006119  43.0513153  44.0263672  22.0653610
  78.8369370  70.1086197  47.0608978  79.6985931  70.5254593  47.0652542
  78.9339981  69.3642120  46.4670334   8.7918148  71.3304977  30.0623837
   8.2374449  72.0918884  29.8915329   8.8063498  70.8537521  29.2324829
  16.1608810   1.8680195   6.4362226  16.4974899   1.3686768   7.1802540
  15.4011688   2.3344412   6.7848220  81.2619019  62.1087952  46.1563530
  80.3885193  62.4980431  46.1125412  81.7290421  62.4839439  45.4098434
  86.6540680  37.2198105  43.5717010  86.2094345  36.4947128  43.1326523
  87.4836731  37.3110580  43.1030235   5.1013422  30.0618191  53.6114235
   5.4943914  30.1558628  54.4791222   4.3059912  30.5930138  53.6499100
  49.5824203  14.8852873  65.7790833  50.2699585  14.7683611  66.4347076
  49.9011917  15.5951872  65.2217178  67.3394241  40.5960274  85.2622452
  67.3758698  41.2081528  84.5272598  66.5545425  40.0728493  85.0995255
  30.3009129  45.6030388  17.4756203  30.0647640  46.5115395  17.6629410
  31.1979790  45.6519699  17.1453037  34.4025879  16.9988804  67.6875076
  33.4976883  17.2975731  67.5971222  34.8846130  17.4904079  67.0224609
  26.6825104  19.3951321  11.8193207  25.7968731  19.0743332  11.6491299
  27.2450428  18.6347370  11.6723928   9.2284718  32.0061493   3.0881839
   8.6242332  31.2639046   3.0740705   8.7312622  32.7119255   3.5015759
  38.3656120  10.8393240  15.1000814  38.7268448  10.0776548  15.5535173
  38.6863251  10.7577238  14.2019081  13.9321928  32.6032906  82.0799942
  14.6237926  33.1885071  81.7710571  13.1374855  33.1361198  82.0523605
  64.2504807  26.9103851  66.2714920  63.6353416  27.6130657  66.0615463
  64.5348816  26.5786381  65.4198532  49.0289574  27.6205959  23.9355316
  48.4231911  27.4965820  24.6662140  48.8340492  26.8989105  23.3376923
  47.8789062  16.8417511   0.4941114  47.5141373  17.3041267   1.2486864
  48.6446838  16.3840179   0.8409503   5.4410491  69.0681152  22.5340462
   5.5851293  68.3495789  21.9182663   6.2243619  69.0727997  23.0841656
   6.3407068   1.4084287  17.2273235   6.9846783   1.7256206  16.5941391
   6.3507533   0.4569844  17.1229935   3.4472098  20.1479053  74.5832520
   3.5228722  20.7976437  75.2820740   4.3372240  19.8148308  74.4685059
  62.6487732  11.6186380  58.0993347  61.8000450  11.9748259  58.3620529
  62.9377708  12.1890078  57.3870201  22.0957584  34.3707275  17.0189629
  21.6812572  33.7967796  16.3747559  22.0392532  35.2446556  16.6325836
  34.6973190  32.9089737  69.1067505  34.7853851  33.5990181  69.7642593
  35.5939522  32.6142998  68.9472351  30.1074829  53.6608582   0.2990713
  30.5730991  54.4796448   0.4694205  30.7932777  53.0441589   0.0429472
  13.3762665  25.8798237  74.7176132  14.2237663  25.8924751  75.1623764
  13.0583944  24.9843922  74.8333282  47.4408035  17.0576572  35.6891556
  47.6089745  17.4567261  34.8355179  48.0884323  16.3561192  35.7573509
  56.3787575  25.9457436  66.6663589  57.0326462  25.4773865  67.1853027
  56.8915291  26.5109577  66.0885773  78.2531891  16.4177513  52.0898438
  78.0562210  16.1051655  52.9728661  78.9397736  17.0728073  52.2152519
  17.4099293  52.8666725  48.6207123  17.1264000  53.6901169  49.0179291
  16.9232082  52.8175507  47.7979584  70.1292496   2.9156892  55.9967232
  70.6825256   3.6878407  55.8788376  69.2542419   3.2699435  56.1551628
   9.3523760  67.8420792   8.3878260   9.8870564  68.5714264   8.7015152
   9.9846849  67.2156754   8.0356407  71.7403336  64.8320618  43.0869102
  72.2706985  65.1172485  43.8309631  72.3722916  64.4636917  42.4695168
  78.2029343   9.8115635  87.1324997  77.7901077  10.0771275  86.3107452
  78.0143356  10.5285702  87.7379456  81.6340332  45.1094818   6.5915341
  80.8543625  44.5611916   6.6794362  82.3540039  44.5507622   6.8843045
  59.2497368  58.5477333  58.1505585  58.3681259  58.8554611  57.9400902
  59.1098557  57.7402267  58.6451263  43.8590050  43.2749825  86.8801651
  43.3199501  43.4088898  87.6597290  43.8591728  44.1250648  86.4401779
  16.8007946  17.1369896  88.3672180  16.1182098  17.7635994  88.1270676
  17.5436001  17.3662300  87.8087158  75.3427505  62.7077560  52.8380737
  74.9939346  62.4918442  51.9732361  75.9048386  63.4676208  52.6867561
  67.6247711  39.5370789  10.0876312  68.3999863  39.4609070   9.5313368
  67.8438568  40.2304306  10.7101221  57.1553764  61.1416435  47.2309189
  57.4103508  61.0984230  46.3093147  56.2649231  60.7909737  47.2497711
  80.9091568  41.6862221  11.6908083  81.4565201  41.6171761  12.4730234
  81.3264084  41.1055107  11.0544834  72.2677002  64.3841705  83.7966537
  73.0468063  63.9859848  83.4084778  71.5704117  64.2126083  83.1637344
  11.2644072  66.0042191  64.8132858  12.0748873  66.3334122  64.4247208
  10.5687304  66.4485245  64.3286667  39.7813339  58.7419739  43.0304260
  39.1698189  58.9740105  42.3315430  40.6143341  58.5974121  42.5816078
  68.7696304  13.4775162  38.9941788  67.9073944  13.0635624  39.0319252
  69.3794022  12.7500143  38.8710938  77.3482208  66.9467468  88.1128693
  77.8111496  66.4722900  87.4223480  78.0259171  67.1554108  88.7558441
  19.3255863  56.1809654  81.3749237  19.2922058  56.5012321  82.2763367
  19.3174286  55.2275047  81.4590454  62.2804794  69.2662354  62.7861824
  63.1076164  69.0435257  62.3590050  62.5346642  69.8111572  63.5309486
   2.8190453  32.0756454  29.9186878   3.3653719  32.1865807  30.6967964
   3.3297048  31.5021057  29.3472748   8.2349901  55.7175598  28.0602436
   8.4130430  56.4797516  28.6112347   7.3071418  55.5304604  28.2028065
  77.9549866  12.1631536  -0.2095277  77.0070648  12.2940912  -0.2325999
  78.2508240  12.6853724   0.5361248   4.4050202  22.9998169   2.1022532
   3.8823895  22.3799038   2.6109734   4.6695104  22.5084476   1.3245434
  30.8755932  68.5984039  61.4704323  30.2993069  69.3602600  61.4096413
  30.6919250  68.2274094  62.3334846  41.1577911  52.4896202  80.9384003
  40.4726067  53.0491257  80.5727386  41.4704514  51.9760170  80.1936264
  49.1237793  68.4427338  80.6459427  49.8128433  68.9994507  80.2833252
  48.9649582  68.7973022  81.5207443  54.3575974   4.0609837  72.1994705
  54.9629402   3.6538339  71.5797729  53.9518013   4.7731514  71.7051239
  48.3092651  24.3846035  82.0381927  48.7437668  23.6768208  82.5140991
  48.6910400  25.1850700  82.3983841  67.5202866  70.2180176  50.8327713
  67.3446579  70.5066452  51.7283592  68.4176788  69.8860626  50.8597488
  74.4612198  53.8098793  66.4282455  74.7121124  54.7199936  66.5862808
  73.6166916  53.8683586  65.9814911  66.9730759  55.3669624  18.8660545
  66.8312073  54.4209442  18.8999805  66.3884506  55.6721001  18.1722755
   3.7104642  33.4992561   8.4579306   3.2684875  32.9507408   7.8098440
   3.7258327  34.3711662   8.0632496  69.0603638  44.8605728  14.4477959
  69.3268051  45.4360275  15.1647997  68.1147690  44.7617531  14.5587387
  77.5421982  60.7814713  73.9724197  76.6388092  60.9985886  74.2026138
  77.9876404  61.6274719  73.9266586  36.9828835  54.3260841  83.2601624
  37.0906525  55.2072678  82.9021988  36.4029884  53.8847198  82.6395569
  26.4964752  24.6873531   9.6792555  25.5967045  24.3964691   9.5308361
  26.8522377  24.8231373   8.8010597  18.8247643   1.8308196  56.4906807
  18.9021816   1.4066300  57.3452568  19.7215405   2.0760415  56.2628860
  61.2465630  52.4237251  24.1000195  61.1060715  52.4730835  25.0455666
  60.8927841  51.5703011  23.8495407  40.7851295   0.4103323  81.5572433
  39.9885483   0.1825233  81.0778732  40.5564690   0.2797516  82.4775162
   7.8713393  48.1610107  27.6511021   8.1194506  48.1975403  28.5748653
   7.8661432  49.0754204  27.3681564   6.8158627  16.5803986  79.5480881
   7.6563215  16.6905422  79.9927597   6.4298892  17.4563255  79.5450668
  82.9544144  65.3759995   4.6988311  83.4084396  64.9125214   3.9950709
  83.6532669  65.6621552   5.2870059   5.8906703  13.4798107  73.8333969
   4.9948192  13.7748575  73.9965820   5.7905164  12.6008034  73.4679565
   1.1154625  52.3650703  22.4473515   0.1662525  52.4699707  22.5123730
   1.3452165  51.8008804  23.1856861  10.5968838  37.0130920  71.4529419
  10.3864975  36.9483032  72.3844833  10.8744516  37.9212379  71.3326874
  15.5651531  56.9997330  12.7864475  15.5985193  56.4223404  13.5491648
  15.8542290  56.4506989  12.0575905   7.2987671   8.8657131  58.9158936
   6.3960137   8.6149130  59.1117706   7.2165561   9.6204786  58.3329659
  59.2947006  58.7047806  82.0222397  60.2404175  58.8523216  82.0315628
  59.2011452  57.7528152  81.9870148  46.4352913  53.0640068  10.8931465
  46.2138977  53.9246521  10.5374689  46.6479416  53.2317429  11.8112297
  31.9460526  59.0751305  22.1675262  31.3636532  59.7133942  21.7556248
  31.5812721  58.9482956  23.0433578  26.6236191   2.1307881  61.2142296
  27.4506912   2.5000286  60.9046402  26.2481670   1.7047857  60.4436531
   0.9008313  37.3842659  33.5254669   0.0796339  37.8644753  33.6316032
   0.7686219  36.5725212  34.0151863  21.6894207  34.8967552  86.6570663
  20.9321613  35.4030113  86.9511642  22.4027042  35.1779175  87.2301331
  61.6827240  58.7192841  70.6694565  61.4259338  58.8145103  71.5866394
  62.3837585  59.3598633  70.5492630  49.5381393  66.5181503  50.8241920
  49.3844681  66.2003250  49.9344711  49.8506699  65.7500305  51.3022690
  49.3174858  15.3434334  80.6570053  48.8232956  15.9571018  80.1134796
  49.2802658  14.5155716  80.1779480  56.2955971  21.3864365  79.6960678
  55.4678459  20.9123325  79.6167755  56.8034096  20.8776875  80.3281555
  31.7088451  46.7717056  42.0221634  30.8213673  47.0125046  42.2879333
  31.7447109  46.9817619  41.0889854  25.6228504  45.3367653  25.6614418
  26.2163239  44.8193970  26.2058239  24.7905865  44.8654900  25.6997261
  23.8380756   6.5686026  51.1721382  24.5669060   6.1289601  50.7342453
  23.0550060   6.1890283  50.7734413  75.3868790  37.9851456  25.0873947
  74.5729828  37.5248985  25.2922821  76.0781860  37.3724365  25.3382187
  85.0532303  37.4178658  45.8911476  85.7095718  37.3260117  45.2004967
  85.3742676  38.1392403  46.4322433  53.3920288  11.6563950  65.0351181
  52.7636986  11.1739283  65.5723877  52.8510132  12.2179489  64.4799728
  78.8048401   4.5000458   3.2609806  78.9643402   4.8139739   4.1510587
  78.7356644   5.2966743   2.7348344  42.6024895  14.7379026  13.4760799
  43.2350960  15.3021011  13.9207373  42.9711800  13.8578758  13.5525703
  51.7929192  36.6461411  58.9624481  51.9384460  36.6429939  58.0163803
  52.0757675  37.5157242  59.2453918  48.7991600  46.6891556  45.4560890
  49.6992683  46.6323280  45.7767334  48.5994110  45.8061180  45.1453171
  82.4591446  51.5926514  10.8285446  81.5975494  51.4176903  11.2070541
  82.4648209  51.0998421  10.0079737  32.9584274  67.8175735  30.9587402
  33.6965141  67.2080994  30.9569950  32.5449104  67.6905136  31.8126087
  23.3020496  18.0777874   1.2114766  23.6077862  17.5119381   1.9203993
  23.4513893  18.9668140   1.5332831  61.7152481  59.7762833  85.4350510
  62.3309860  59.0584221  85.2874908  62.0446243  60.2171860  86.2182159
  68.7149124  24.9385395  76.0349197  69.1009521  24.3074474  75.4275284
  67.8274994  25.0773869  75.7040863  55.7544518  13.9135084   4.9867778
  56.1560097  13.0451012   4.9575472  56.2890968  14.4445963   4.3965783
  64.1972351   6.4186482  74.9661331  64.2951202   7.3653092  75.0685272
  63.2823944   6.2469230  75.1892929  45.6699905  27.5549049  66.1921768
  46.1351585  28.1157551  66.8129044  44.9135551  27.2317600  66.6816788
  61.4324265  55.6736183  60.5988274  60.5025558  55.6434898  60.8239136
  61.8378983  55.0192947  61.1677589  16.2613049  58.4548874  10.2548399
  15.3063087  58.3990669  10.2217216  16.5421257  57.5864639  10.5433064
  76.5561523   3.0768597  76.7079163  77.3890839   2.9669127  77.1665802
  76.0961609   3.7529268  77.2054825  67.2179947   8.1534567  41.4651527
  67.5796051   7.3390212  41.1156349  67.0812454   7.9749498  42.3955650
  52.0931168  34.2190018   7.1883693  51.6059761  34.2958488   6.3679924
  52.1350174  35.1134224   7.5267291   3.2160110  50.2521820   9.9113178
   2.5591893  49.7447739   9.4344997   2.7127018  50.9258842  10.3685226
  84.5348587  53.5152397  35.7977524  84.0142059  52.7121582  35.7834358
  84.0005569  54.1554909  35.3278275  13.1015692  68.5558853  64.0599442
  13.0315733  69.0937576  63.2712593  12.9220314  69.1612015  64.7793884
  33.3208694  56.9855690  10.7106342  33.0914001  56.7411232  11.6071949
  32.9137383  57.8426208  10.5843945  33.5285950  45.1850166  10.6394176
  33.1496048  45.6852913  11.3621359  33.0709572  45.5038490   9.8615093
  11.0162621  17.0290890  20.4402847  11.5723743  17.7058868  20.8261795
  11.4909859  16.2123375  20.5945129  45.8776588  30.5086403  59.6678963
  46.5502892  30.5997372  60.3428078  45.6910667  31.4063301  59.3930016
  80.4564209  50.6086388  66.0960159  80.5486298  50.1504250  66.9313431
  79.8274231  51.3077469  66.2744904   5.8386540  31.3438168  45.8550377
   6.1836967  31.2114868  44.9720535   5.0067334  31.7980347  45.7215233
   0.9194249  34.9429092  76.3582535   0.8578264  33.9984474  76.2153320
   1.8447344  35.1460342  76.2212372  30.8001347  39.8637810  82.2920990
  31.1602516  40.2868195  83.0715790  30.5047684  39.0067711  82.5995483
   8.9653845   5.3536868  31.3071747   9.4649124   4.5394897  31.3687096
   9.0624065   5.6258216  30.3946171  80.9189682  67.6702347  33.5704727
  80.4830551  66.9856110  34.0779190  80.9571304  67.3208771  32.6801224
  33.9683685  63.7457619  83.0652008  33.8093185  64.6860504  83.1476440
  33.4945107  63.4912109  82.2734299  81.0349197  17.6812439  28.4782333
  81.9676819  17.4691811  28.4432602  80.9972763  18.5213413  28.9354553
  84.8498306   4.9527049  53.9416962  85.0539932   4.9462261  54.8768463
  85.1125412   5.8240914  53.6452179  72.8873596  58.5715370  62.3128204
  73.7367783  58.9090996  62.5970116  72.8493195  57.6852875  62.6724701
  19.9368935  64.2944031  58.1766434  19.3745728  64.7419586  57.5444107
  20.1015663  63.4364471  57.7854576  49.7327156  52.8375015  64.0696564
  50.1393929  51.9713669  64.0953827  49.6119194  53.0177841  63.1373825
  11.5071354  35.4236565  37.6246338  11.2571144  35.1311722  36.7481804
  11.5453377  34.6201591  38.1434517  56.7263260  31.1731052  85.7104034
  57.5805702  31.4987526  85.9940414  56.7483559  30.2372551  85.9102249
  35.9169846  41.6870499  53.9660149  36.1467896  41.7194138  53.0373764
  36.7215614  41.4066811  54.4022293  64.5430984   4.7235775  88.0707779
  64.4429855   5.3938022  88.7468033  63.6660767   4.6240473  87.7004318
  48.2828407  10.3405466  15.4403286  49.2250481  10.3279963  15.6086187
  48.2034836  10.6759806  14.5473461  62.7782021  42.5926781  39.3695793
  63.4540062  42.7034264  38.7008057  62.2772026  41.8302498  39.0798607
  28.9979057  19.6996841  13.2774124  29.4037495  20.2673435  12.6222134
  28.0665054  19.7070713  13.0567961  35.3143616  68.2223663  65.9013290
  36.0738258  68.2780762  65.3213806  35.6118584  68.6116791  66.7236176
  26.3837414  45.7487946  30.2324944  25.9590359  44.9775429  30.6080284
  26.8806953  45.4098511  29.4879208  47.2163963  12.6981478  81.8888321
  47.3711014  12.3122864  82.7510452  47.5378075  12.0412245  81.2712784
  61.4074173  68.0979691   4.6486197  61.3283081  67.8752747   3.7210529
  61.9477272  68.8880157   4.6600251  84.3192902  47.2699966   8.1530676
  84.8501663  47.1375198   8.9384699  83.4893723  46.8350639   8.3487644
  61.5692139  49.1622772  76.3867493  60.9876709  48.7186813  75.7692871
  61.0974808  49.1386642  77.2192993   3.6014736  43.5159531  66.3874130
   3.1679580  44.3692055  66.4034729   4.2524962  43.5911636  65.6897430
   5.1906643  13.2921505  62.4316902   4.3208256  13.6777983  62.5360374
   5.0459247  12.5186663  61.8867073  10.9177322   6.4955778  24.7952938
  10.0286798   6.5578609  25.1444893  11.4259129   6.0995579  25.5032158
  39.3338776  26.7240543  14.0761442  39.8784370  26.7871742  13.2914762
  39.8465996  27.1566448  14.7589445  83.7099686   9.3250513  80.1293182
  84.6348190   9.1058102  80.0160904  83.2694244   8.8890429  79.3998947
   6.8938618  24.5758839  60.0540009   6.6531038  25.2347507  60.7052765
   7.1191878  25.0819073  59.2733574  70.8500443  65.1849899  32.7498322
  70.7466507  64.5134659  32.0755920  69.9567566  65.4685516  32.9444199
  53.6700439  43.6070900  34.9452477  54.2024078  43.1528969  34.2921600
  53.8690453  44.5341034  34.8138008  62.7693634  15.9323406  67.8489227
  62.8861580  16.5826263  67.1563034  61.9049034  15.5568924  67.6816483
  66.8765106  70.9945908  39.0350609  66.8696899  70.6283875  39.9194145
  67.6120758  71.6071091  39.0351372  20.9889069  44.4909859  24.9186478
  20.2415104  45.0668335  24.7573090  21.2051220  44.1323280  24.0579243
  86.2293320  36.6143303  40.9074440  86.4634094  35.7186546  41.1507645
  86.2887573  36.6263123  39.9521675  29.6009979  46.6516151  58.6298447
  29.6305504  45.8887672  58.0524178  29.4271526  47.3886185  58.0443230
  67.1984177  15.6264048  54.7703629  68.1278610  15.8025560  54.9164238
  67.0000839  14.8908386  55.3498840  30.6079426  40.5045471  42.8882141
  31.2279301  41.1427345  43.2411537  29.9726105  41.0309143  42.4029083
  85.0173721   6.2750840  37.9712715  85.0339890   7.1368375  37.5549355
  85.8612137   5.8836894  37.7454948  67.9983444  62.6473083   9.6406231
  68.1258926  61.7141685   9.8115597  68.7832336  62.9124451   9.1611557
  33.0884476   7.8761067  84.2494049  33.7523880   7.8155603  83.5625687
  33.4478416   7.3663936  84.9755325  46.5120010  41.4983253   7.3255754
  45.6022568  41.7805405   7.4202080  46.4923592  40.5598373   7.5128870
   2.6176651  30.0425911  79.9905853   2.3197134  30.1973114  79.0941925
   1.9977658  29.4035263  80.3420868  12.9777260  15.4705219  81.2521057
  13.9117622  15.2996521  81.3729858  12.8504887  15.4457903  80.3037186
  20.2129879  51.9209175   7.1709518  20.0082340  51.3101959   6.4629078
  21.1643600  52.0198135   7.1343217  20.8076839  30.6233540  65.3898239
  21.0989475  31.3287582  65.9675751  20.8280888  31.0077305  64.5134277
  41.5842857  59.5280495  11.4337358  41.0267029  60.2346039  11.7594862
  42.4461784  59.9313927  11.3303776  52.5376129  62.1171722  29.3813629
  52.7291985  62.1426048  30.3188496  53.3657722  62.3493500  28.9612713
  48.1917992  52.9992142  84.9751282  48.5455589  53.3966827  84.1794510
  48.8342094  52.3314972  85.2153320  66.4700851   8.8214684  78.6123505
  67.0917969   9.3690538  78.1329117  66.4076080   8.0194912  78.0935440
  58.9117966   5.8715854  60.5913277  59.2768517   5.2836151  59.9300728
  59.6562996   6.0959401  61.1495552  24.8318062  67.0834808  21.6864967
  24.5307961  67.8474808  21.1946430  24.3278294  66.3534012  21.3270073
  15.7042732  51.6130791  83.2047119  15.7526550  52.3935509  82.6526642
  16.6066437  51.2974129  83.2528076  12.0694876  38.0723495  64.2625809
  11.9724293  39.0127258  64.4126129  11.6927681  37.6652107  65.0426788
  13.4952307  44.2697372   0.3786382  12.8067389  44.1673164   1.0356933
  14.2598038  43.8419380   0.7641869  67.2095490  47.3542404  84.8803101
  66.8163681  47.4748154  84.0159607  66.8571243  48.0723190  85.4060364
  13.2773247  48.3851318  10.0651274  12.6852064  48.6850471   9.3754330
  12.7294874  47.8417854  10.6315937  31.3542423  61.8163147  28.4013996
  30.5176792  61.3512802  28.3897839  32.0120010  61.1243286  28.4702492
  79.6189423  16.0764885   0.5660060  80.1293106  16.4977417   1.2575997
  79.1729202  15.3521280   1.0048674  61.2355728  24.5409336  28.0183372
  61.4298553  24.6824532  28.9448681  62.0943031  24.4625435  27.6028042
  35.3003769   5.2219243   7.6010623  35.3222313   6.0924850   7.9984012
  35.5981064   5.3614035   6.7020998  32.4178314  61.0489311  39.6766129
  32.9330673  60.4230804  39.1676178  33.0441246  61.7288589  39.9249763
  55.8117142   7.6664667   4.0102620  55.7764969   8.4002018   3.3965642
  55.6001892   8.0541544   4.8594899  10.4525604  45.4777145   5.0012670
  10.2585125  46.0920563   5.7091913   9.6413498  44.9832993   4.8841171
   0.8141604  27.7337780  60.4637260   0.7043640  27.4373741  59.5602226
   1.7177380  27.5058632  60.6824379  58.2830048   6.6239009  49.0982819
  58.7605133   5.8696656  48.7528191  57.8899612   7.0323181  48.3269577
  74.4694977  10.3444157  68.3774338  74.5551758  10.7548733  69.2379074
  75.0513763  10.8514118  67.8112183  82.0947571  57.5012054  88.0860901
  82.2867050  56.6645813  88.5097046  82.9456863  57.8160019  87.7810287
  11.3722191  60.7962570  24.0206718  12.1138229  61.3400421  24.2862854
  11.2773895  60.9621201  23.0827332  37.2171516  40.1665230  78.7771835
  37.4282532  40.4202576  77.8786926  37.6443596  39.3178177  78.8930435
  55.7148132  60.8966255  23.9033718  56.2500229  60.5264244  23.2014236
  54.9083328  60.3813133  23.8868370  42.5113907  42.0772972  64.3459930
  42.2694511  41.3409729  63.7842789  42.7543945  41.6733055  65.1790466
   3.9779024   2.9156792  24.5843449   3.1796100   3.2744284  24.9719791
   3.7722845   2.8243775  23.6539593  63.4972992  37.8201904  74.9649658
  63.0500069  38.0740433  75.7722549  63.0089760  37.0597420  74.6495361
  53.1620636  31.7736473  75.1235428  53.0462189  32.6423149  74.7385406
  53.7853889  31.9091587  75.8372192  14.9048052  15.0986662  18.7913265
  14.1934338  15.1561785  19.4291935  15.6991758  15.2465763  19.3044834
  73.4017029  56.4764862  51.5602989  74.1721725  56.3046646  51.0189171
  73.6479187  56.1676254  52.4322014  68.3456268  29.4715366  32.9093399
  68.5455627  28.8566761  32.2035027  69.0235596  30.1437855  32.8405724
   7.5874581   9.1516943  82.3457870   7.4819050   8.2012329  82.3871841
   8.1129885   9.3680868  83.1159973  50.9656715  35.8659859  39.6918068
  50.8301010  36.8123970  39.6453285  50.5397758  35.5241280  38.9056931
  53.9343987  25.3910675  36.0355568  53.2522545  24.9162350  36.5103683
  54.7285881  25.2476463  36.5502701  15.9390488  52.9687195   1.4020165
  16.7943974  52.9874344   0.9727610  15.3126411  52.8780136   0.6839514
  58.7319527  24.3099213  12.5411224  57.7846336  24.2379322  12.6578903
  59.0479507  24.6760788  13.3671389  24.6069756  47.0399284  50.4031029
  25.4047775  46.6494408  50.0463638  24.7469902  47.9836769  50.3258514
  41.4680557  19.2843571  19.8939705  41.7878189  19.0446625  19.0241852
  42.0789948  18.8627758  20.4983349  66.4834518  41.6682281  67.6545258
  66.4316940  42.0864258  68.5139847  66.9538727  42.2988129  67.1092758
  58.9777870  65.9729843  13.8234854  58.1829262  66.4403839  14.0803232
  59.1281281  65.3482819  14.5329742  67.8230972   7.0591698  82.9671783
  68.3190918   6.2452464  82.8791351  67.0130157   6.7997112  83.4061356
  55.2439232  57.7082520  74.5376434  55.2645378  57.7081223  73.5806656
  54.3357849  57.9159241  74.7576141  17.0881672  39.7441444  67.5541763
  16.2180958  40.1428604  67.5389099  17.0141296  38.9854202  66.9753113
  46.2003593  12.9007034  15.3050308  45.5220642  12.8488750  14.6316328
  45.8387909  12.4159374  16.0469894  13.5240021  57.8630295  73.7268372
  13.9333296  57.4262772  72.9798889  12.6255484  57.5329475  73.7344208
   5.5034432  38.4969788   0.5671632   5.6228628  39.3720512   0.1980846
   6.2489009  38.3817978   1.1564491  20.4354134  44.8133926  74.9409180
  20.4081764  43.9528008  74.5227356  21.3325043  44.8939667  75.2649078
  -0.1475073  66.3486557  43.8882103   0.1891876  66.0911636  43.0299759
   0.6341770  66.4528275  44.4307518  72.6563721   6.3026133  69.8813095
  72.1841431   5.9421964  70.6318665  72.1682892   5.9910045  69.1191406
  33.3836670  54.8729134  81.8108521  33.3388405  54.7659531  82.7610016
  32.5142174  54.6204414  81.5001297  80.5483170  15.7234592  68.8654556
  80.4736404  16.6731720  68.9587402  81.1446991  15.6015072  68.1267548
  53.2796097  68.3260269  16.5179615  52.6865807  68.9882660  16.1630096
  52.7622986  67.8737640  17.1843529  76.1642075  30.0647736  59.1329079
  76.8911133  29.4638901  58.9692841  75.5432892  29.5537853  59.6521263
  54.5389557  69.2981186  39.4818687  54.4412994  68.9580688  38.5924492
  55.3779907  68.9480286  39.7813568  59.8529701  68.8400116  61.5566330
  59.6548080  69.6282501  61.0510216  60.7047958  69.0188065  61.9549484
  37.7879486  66.9081726  17.9710121  36.8372002  66.9664764  18.0653954
  38.0633125  66.3234100  18.6770287  58.9393730   4.7190356  69.4671021
  57.9916687   4.6668415  69.3431702  59.2986565   4.1022635  68.8293457
  13.3585463  22.7099438  89.2563171  13.6586514  23.0620842  88.4183655
  12.5323400  23.1630955  89.4244461  54.5669518  20.1617241  15.4002914
  54.2385635  21.0600624  15.3631039  55.3474388  20.2146606  15.9518938
  50.8555489  18.6064377  33.6557503  50.4080009  19.2649441  34.1870689
  51.7074280  18.9960518  33.4589386  64.2680969  13.5783892  61.6232109
  65.1277771  13.2403708  61.3723679  63.9098816  12.9111538  62.2086258
  33.9202271  65.6492920  73.5657654  34.7850456  66.0156555  73.3811188
  33.3250122  66.3961639  73.5015259  62.9913330  20.2912521  55.1647263
  62.7963104  20.7584190  55.9771004  63.0168343  19.3688202  55.4190941
  68.0784760  45.1379890   8.2244959  67.7938690  46.0065460   8.5088148
  67.8373642  45.0979767   7.2990246  72.5853119  62.0359497  16.2333374
  72.9314651  61.2319679  16.6206627  72.7679291  61.9490051  15.2977505
  46.6191902  24.5463619  79.0485077  46.6715622  24.8905716  78.1568756
  45.9778481  25.1074142  79.4845581  64.8842239  51.8813362  80.6657410
  65.4335861  52.4403534  81.2152252  64.4810791  52.4827919  80.0396729
  14.7183876  31.7462349   7.5938644  14.4090490  31.4183712   6.7494431
  15.5384264  31.2769146   7.7471814  19.1715145  59.4521599  34.8417282
  19.2292175  60.2906990  34.3837357  18.3781109  59.0440216  34.4950790
  49.5070229   3.6683114  88.5289917  50.3989449   3.9202845  88.2898026
  49.6102524   2.8433843  89.0034103  75.4087830  66.1603928  67.5548706
  75.2127914  65.7254715  68.3847198  76.1312637  66.7537689  67.7602158
  34.3352699  53.2793922  45.6553040  33.9838562  52.6112442  46.2437935
  34.6387024  53.9758415  46.2376442  18.3860474  59.4666901  27.2334003
  17.8633270  58.9084549  27.8090439  17.8151436  59.6401443  26.4849262
  22.1765366   9.0009480  68.1425629  21.4104671   8.6053324  68.5583267
  22.7277660   8.2572269  67.8991318  63.9417915  48.1651382  61.2639694
  64.0265808  47.4771996  61.9241066  64.6665115  48.0071449  60.6589508
   3.5359097  39.2399940  25.9581013   3.5014074  38.2943153  26.1020870
   2.9345167  39.3934135  25.2293911  12.0173120  35.1121674  18.6804943
  11.1175213  35.3831329  18.4983292  12.3304911  35.7422943  19.3294067
  26.1482182  29.9999256   1.6705272  25.8050556  30.8836441   1.8028636
  25.3711128  29.4413185   1.6532758  78.0019760   7.8961625  21.1905365
  77.4968872   8.6795578  20.9727955  78.1694336   7.9725623  22.1298714
   5.4208641  48.5883713  33.4569435   4.5341291  48.4329681  33.7821884
   5.9059062  48.8973846  34.2221107  62.2966156  55.1598206  78.1551590
  62.8155365  55.0766640  77.3551331  62.5052147  54.3730240  78.6588135
  21.1301575  59.1405830  18.5074387  21.1977272  59.2361374  19.4574566
  20.6649036  58.3134575  18.3824024  84.5974503  10.7661352  85.6826096
  84.2926254  10.4222336  84.8429337  84.9866714  10.0109921  86.1236267
  34.3364716   2.9206016  72.2356720  34.5658760   2.9809678  71.3083344
  35.1719513   2.7771878  72.6802368  82.1364365  56.3013153  40.0712814
  82.0860291  55.8037529  39.2551155  82.5450974  55.6997681  40.6936646
  86.6281967  26.0587807  39.3501701  86.0589142  25.6619968  38.6908455
  87.5156555  25.8672600  39.0468941  52.6352844  28.1821423  26.9423466
  52.7290077  28.4265041  26.0216198  52.8352203  28.9844284  27.4246273
  32.0950012  34.1022835  68.4438934  31.7179585  34.2906036  69.3033142
  32.7701035  33.4461784  68.6170807  19.1778507  70.6986542  18.8616600
  19.7561569  69.9604416  18.6697540  19.7625523  71.4550629  18.9085789
  56.6011658  25.5991039  27.8787518  57.4790878  25.6167774  27.4977283
  56.0186005  25.8050461  27.1477013  53.8552284  41.8311234  32.3300476
  52.9710350  42.1858749  32.4227066  53.7550240  41.0917053  31.7305050
  10.8503151  67.1526108  16.5977249  11.5409966  67.3821869  17.2194042
  10.0490646  67.4975204  16.9917603  36.6504898  12.8909483  69.9413834
  36.6809616  13.5152435  69.2164307  35.7382698  12.6024666  69.9708557
  14.5783453  33.4285316  51.1863518  13.9404268  32.8226166  51.5633888
  14.4995966  33.3014870  50.2408943  79.7356949  15.8662481  61.7441940
  80.0671082  16.0287914  60.8610306  78.9675369  15.3103657  61.6132164
  32.1559906  62.9215088  43.5596237  32.8214531  63.1213684  42.9012604
  32.4286499  62.0813293  43.9283981  68.4152451  11.0599174  68.1675339
  68.9076920  11.3406067  68.9388580  69.0833206  10.7468615  67.5576935
  77.6003647  26.9046879  12.1788902  77.3751984  26.2550869  11.5128937
  78.5308762  27.0794468  12.0380764  72.1601410  15.0523510  57.9222031
  72.6313095  15.6727295  58.4784050  72.4514084  15.2580051  57.0338898
   4.6700239  65.8412476  23.9406834   4.4858036  65.1891098  24.6167107
   4.2943826  66.6527863  24.2820473   5.7081861  53.6691895  44.9001427
   5.2250814  52.8693810  44.6924133   5.0336065  54.3443604  44.9730530
  70.3011246  62.4584007  59.0385017  70.5303726  61.6596375  58.5634727
  71.0773773  62.6567116  59.5622787  67.1395416  63.5684929   6.3440099
  66.6914597  63.9996262   5.6162906  66.7730331  63.9783516   7.1275411
  12.1444941  16.1328411  78.3724976  12.5179205  16.4237442  77.5405350
  11.3480749  15.6624708  78.1261215  78.6831360  55.7291718  85.7415161
  78.5075226  55.1716766  86.4995346  78.0739059  55.4204521  85.0708771
  56.2908516  50.8488197  12.3276119  56.5687943  51.3388023  13.1014967
  56.9608994  50.1741104  12.2179079  53.4218063  13.2310362  24.3116646
  52.8337555  13.7917862  23.8057117  52.8528824  12.8026123  24.9512062
  61.5879669  54.9843712  36.8680649  61.8113289  55.9142838  36.8279991
  61.7983170  54.7259674  37.7653999  83.8011246  35.7242546  53.9179802
  83.1042938  35.8867989  53.2821808  83.4060898  35.1354141  54.5609779
  47.5621414   1.6163812   9.7766514  48.0398712   1.0487587  10.3814745
  47.6842918   2.4981058  10.1286068  13.2336931  61.1134834  50.8340874
  12.5779705  60.5133743  51.1892357  13.3413639  60.8389435  49.9234467
   6.5199981  63.7028275  61.1194649   5.7427888  63.6861000  60.5609856
   6.6638627  62.7868500  61.3572006  56.0763626  39.5196495  77.3529663
  56.1613998  40.4639168  77.4847260  56.9757309  39.1927452  77.3753204
  15.0181694  22.9728432  86.7095184  15.1780052  22.7801952  85.7856293
  15.8553619  22.7973385  87.1390991  69.8279724  39.2074623  84.8419647
  69.5652161  40.0364838  84.4420776  69.0820236  38.9575005  85.3872299
  33.4905434   7.1039505  74.6732178  33.9673195   6.2813745  74.7840652
  32.7123871   6.8638458  74.1701736  71.9296570  60.8699303  28.1133175
  72.4684448  61.5858269  28.4501152  71.2222214  60.7816162  28.7520370
   3.3434892  68.2935562  16.9764385   3.9444547  67.5862503  17.2105103
   2.6567760  68.2545166  17.6421204  60.3801498  22.3160439  85.8442459
  61.2971497  22.4674988  86.0731659  60.0691833  23.1640511  85.5273666
  38.3554878  33.5953598  19.3534050  38.0661850  33.5606575  20.2651787
  38.1097260  34.4718132  19.0573387  70.5939026  59.1748543  63.7540359
  71.2206192  58.8853912  63.0909576  70.5239487  60.1201782  63.6209946
   0.8030919  69.1909332  24.8508701   0.0235780  69.6077957  25.2180424
   1.2295179  69.8832321  24.3457890  63.1549110  40.5747299  51.7192917
  63.1193275  40.6806107  52.6699524  62.2725296  40.7947578  51.4205971
  52.6739197  37.4315491  87.1850281  52.0551453  37.9235573  87.7247314
  52.2153435  37.2989540  86.3553543  80.0511322  41.1413727  73.5373001
  80.0893784  41.0070496  72.5903473  79.6727066  40.3312836  73.8790283
  56.4411392  46.4436378  25.0935745  56.8509827  46.0522385  24.3221684
  56.9867172  46.1570969  25.8260193  70.1749115  65.4219742  60.6929932
  70.6665421  65.0956039  59.9393272  70.8470078  65.6825790  61.3227577
  83.9214706  10.4965143  54.6140709  83.5225296  11.3635540  54.5411263
  83.7804489  10.2439756  55.5265236  48.7133217  35.7949104  22.3043671
  48.2519341  36.5689888  21.9816341  48.0540085  35.1010742  22.2931404
  22.8604660   6.2544250  64.8062592  23.4214306   6.8157992  64.2710876
  22.8505592   5.4159164  64.3447037  82.1753464  57.6951218  48.0704765
  82.0508957  58.2892532  47.3303719  81.3013077  57.3478050  48.2484016
  66.1546478  13.5853338  66.1200333  66.7412415  12.9371290  66.5098724
  66.1532364  14.3122625  66.7427673  74.1360321  42.3323174   3.0464540
  74.5461960  43.1727333   2.8422453  74.5482101  41.7122078   2.4449487
  28.7497635  62.1215973  20.0370979  28.3429794  62.3340683  20.8771057
  29.6484070  62.4410286  20.1185513   4.2246647  65.4545212  52.9465103
   4.8694367  66.0782394  52.6126366   4.3419766  64.6750183  52.4035110
  46.7701950   8.9134226  70.9138641  46.6439896   8.0701075  70.4789810
  45.9002724   9.1493063  71.2360764  25.9783287  31.5261631  88.0582047
  26.3437805  30.6698627  88.2805176  25.0507679  31.3555622  87.8946228
  16.6169720  40.1169548  23.8056889  16.3978653  40.9408379  23.3704357
  15.8547754  39.9244957  24.3518085   4.2513375   5.7214251  71.8787460
   5.1307478   5.7555504  72.2551804   4.3942127   5.5180497  70.9543762
  66.9798203  49.2352104  45.9938164  66.3862915  49.8250160  46.4586678
  67.1818008  48.5487099  46.6295471  11.8720798  40.6440315  65.0915604
  12.4751301  41.0606422  64.4759293  11.0396023  41.0961533  64.9544525
  51.1745605   1.3065680  56.3016624  50.2399559   1.2944101  56.0952721
  51.2408752   0.8478781  57.1391830  39.6669350  49.0850677  15.0013123
  38.9492950  48.8174324  14.4272051  39.9213753  49.9498711  14.6794405
  57.2569046  63.6603775  48.7022667  56.7865105  64.4937744  48.6819077
  56.7895889  63.1062469  48.0771370   9.4653473  47.0255661  41.3787766
   8.6697102  46.7603645  41.8401451   9.6733570  46.2819290  40.8131218
  45.0354424  67.5051041  54.8792801  44.9888458  68.4052887  55.2013435
  45.0263214  67.5910187  53.9259872  78.8524628  33.2659607  11.8647385
  78.1954880  33.7592125  12.3559818  78.5915833  33.3655319  10.9491730
  80.9283295  41.6090317  59.8475571  81.3078842  41.2446213  59.0479507
  80.2476959  40.9836197  60.0962143  34.9603157   4.3007913  69.5774994
  34.3724251   4.8757453  70.0674438  35.7809792   4.7901182  69.5200577
  64.8129730  70.8831406   1.0291970  64.3346710  71.4826889   1.6019133
  64.2255402  70.1351242   0.9213535  59.8564377  41.6032333  53.8789024
  58.9103355  41.5714531  54.0207138  59.9592094  41.5253601  52.9304276
  86.2160416  53.0282593  38.0452461  86.9815292  52.5129890  37.7907753
  85.6923676  53.0897522  37.2463646  41.7178688  30.5566921  82.1399689
  42.3429527  30.5155830  82.8637161  40.8930206  30.2521896  82.5183105
  41.9290962  29.2833519  13.5748196  41.3626060  29.5264683  12.8425522
  42.7985725  29.5894928  13.3169069  23.4613094  63.0228920   7.5486178
  22.8443623  63.7521935   7.4875827  23.5150223  62.8323479   8.4851217
  27.7864037  17.8337097  75.1520081  27.9257412  18.0629635  74.2331696
  26.8667450  18.0436516  75.3144379  50.1762886   6.1289706  67.8555679
  50.0595284   6.8089423  67.1920624  51.1253281   6.0417747  67.9447327
  86.6683807  35.6977463  38.5466270  87.3201294  35.0062943  38.4310837
  85.9756927  35.4806519  37.9226990  63.2290001  46.0062828  22.3743000
  64.0225601  46.5410614  22.3968296  63.5306587  45.1213036  22.5793514
  84.0600739  30.3260555  82.9308624  84.9173431  30.4323177  83.3432007
  83.4378128  30.6367188  83.5885239  16.4071121  28.2544346  76.6886520
  16.2497025  28.4718227  77.6074524  16.1418266  29.0386333  76.2081451
   9.0770636  22.3533840  77.8810501   9.4390078  21.5370331  78.2257233
   8.9265842  22.8947010  78.6560135  32.9073753  70.7200623  38.9836388
  33.2311211  71.0836563  38.1594887  33.6973495  70.4591751  39.4570389
  62.6828461  60.0641594  14.0228605  63.5623245  59.7812614  13.7724266
  62.8097534  60.5451241  14.8406639  82.8150558  59.2530518  43.0095978
  82.5926666  60.0814285  42.5846710  83.5982285  58.9506721  42.5497704
  75.6853256  18.6968822  87.5238037  75.2899399  17.8809795  87.2168808
  76.3821716  18.8775024  86.8929214  12.1802750  16.0059853  71.2089386
  12.8235407  16.1281662  70.5107193  12.3178787  15.1067467  71.5067062
  45.3668175   7.4518366   0.5163655  45.3148155   7.0794129   1.3966089
  46.2568893   7.7986317   0.4552218  55.4895744  42.0219803  86.0328064
  55.8008270  41.2520332  85.5568466  54.5554848  42.0681801  85.8289032
  83.6176071  33.6779175  69.6434402  83.2545319  33.0512848  70.2693253
  84.5576401  33.6793823  69.8239136  43.7608910  30.4013271  16.9721184
  44.1229477  30.4632893  17.8560333  44.5176392  30.2170410  16.4156990
  74.2193756  45.8267670  37.1752777  74.7244949  45.7454262  36.3662872
  74.4296951  45.0345573  37.6696472  23.6922188  68.8679810  59.6657257
  22.7963581  69.2051239  59.6676292  24.0463219  69.1336899  58.8170547
  72.8030090  12.1642342  32.6475945  71.9278412  12.4810133  32.8711319
  72.6824036  11.2309752  32.4723396  47.3918152  40.5410995  17.7601147
  48.3369827  40.6917229  17.7744160  47.0918732  40.9769020  16.9624043
  73.4910965  17.6643009  27.5717506  73.1441650  17.3525810  28.4076347
  74.4179077  17.4260025  27.5932808  13.0989838  14.3060970  88.7847595
  12.5892239  15.0146818  89.1775513  12.7005510  13.5060177  89.1273346
  29.9078617  41.2796936  33.2599792  29.5695171  41.0873528  32.3854752
  29.9429913  40.4282036  33.6958275  33.8577271  35.7700348  15.5478888
  33.1643753  36.4076920  15.7178526  34.0831299  35.4252853  16.4119320
  21.5187016  28.7885857  76.6318893  20.7315750  29.0047226  77.1318359
  22.2392082  29.1365662  77.1572571  80.8226013  43.4438667  54.0494690
  80.1557312  43.9294357  53.5639381  80.5707092  43.5437508  54.9675140
  51.9551048  25.3260269  61.6361427  51.8471260  24.4546375  61.2550240
  51.1961823  25.8193283  61.3248253  25.7276497  34.3444138   7.8366051
  25.6385803  33.6882401   7.1454220  26.2994232  33.9333000   8.4849052
  76.4509659  65.7248383  16.5962505  76.0589294  66.5156021  16.9667015
  77.0833206  66.0488739  15.9548864  56.6679039  32.5377464  41.4315453
  56.6428070  33.4945450  41.4434700  56.0690041  32.2737198  42.1299973
   7.1750960   3.2326562   7.6022205   8.1016655   3.1711378   7.8344212
   6.7107801   2.9919047   8.4038944  40.3186722  54.8992348  42.3448906
  41.1871223  54.9467735  42.7445946  39.9857101  54.0380058  42.5971909
  64.9649277  52.3853149  84.2653122  64.3749924  52.8224068  84.8794479
  64.4472961  51.6635437  83.9084702  65.6524887  38.7084198  47.7815132
  66.3376083  38.4036255  47.1865845  65.9565430  38.4473381  48.6507759
  31.7872009   8.2819624  76.3321152  32.5792999   8.1116476  75.8224030
  31.6629829   9.2291851  76.2723541  76.3012314  44.7636642  62.2196007
  77.1645355  45.1174049  62.4336395  75.7066345  45.5073471  62.3176537
  82.4735794   4.2061262  34.7203827  82.7397614   5.0756307  34.4214821
  81.6410904   4.3517976  35.1697998  65.3938065  61.7306252  87.2171021
  65.8170700  61.0520935  86.6911087  66.0996246  62.0944557  87.7515945
  51.1550217  64.8402481  21.2784157  51.9437370  65.1474152  21.7254200
  50.8840179  65.5802994  20.7351704  75.3963852  10.6296539  59.9456024
  74.8743210  10.6031780  60.7474632  76.2941513  10.7652922  60.2486763
  77.4005356  17.5120621  72.3179245  78.0058823  18.2508640  72.3808670
  77.7314377  16.8765469  72.9526367  37.5086937  70.8352814  54.6498451
  37.9960632  71.2851715  53.9596977  37.8847733  69.9553909  54.6740417
  65.0312042  27.2775993  56.5612907  64.7868805  26.7604885  55.7937393
  65.1717224  26.6297092  57.2517433  45.4510384   3.9785576  61.5505791
  46.3746529   3.7289927  61.5803680  45.3271713   4.3337183  60.6703796
  12.8270311  24.3672657  66.2614059  12.1465168  24.9491425  66.5998611
  12.4848890  24.0618114  65.4212418  62.5284805  56.5810890  48.6272125
  62.8765488  57.4003944  48.9790916  63.2171555  55.9373665  48.7932892
  28.3032303   6.2954888  58.8693733  29.0012779   6.5227447  58.2551155
  28.7574940   6.1169891  59.6927910  12.7481604  10.1688557  77.6916809
  12.2891474  10.9686518  77.9483261  12.6493263  10.1307545  76.7403564
  36.9275475  50.7838402  37.2154160  37.7487335  50.9023247  37.6927452
  36.2487106  50.8470078  37.8872948  26.1128979  23.8514957  45.5663338
  26.1804161  23.9746933  44.6194992  25.6831913  23.0021496  45.6673126
  68.0912704  39.6109123  25.5711899  68.1603699  39.0328979  26.3310318
  68.2180862  39.0332832  24.8185310  69.7916107  52.7451172  17.9793644
  69.4402695  53.6078300  17.7591095  70.7412491  52.8522797  17.9251881
  75.6414948   6.2542949   5.4977102  75.9030533   5.9776487   4.6194797
  75.9387894   7.1619258   5.5613904  50.6518517  68.3925629  36.0673256
  50.6344795  69.0722351  35.3935509  51.2329750  67.7192917  35.7134399
  39.7881126  69.0127106  70.4449768  40.5777168  68.4721069  70.4675064
  39.1946259  68.5959854  71.0697556  33.0058250  59.8798561  70.1572113
  32.6001892  59.8914223  71.0241318  32.9130173  58.9742508  69.8614120
  40.9076767  42.3718987  72.9817047  41.7589836  42.1407852  73.3533173
  40.3113365  41.7006607  73.3134384  78.0734940  62.5229340  43.1578522
  78.2068329  61.7751579  43.7403336  77.2054825  62.3806458  42.7803001
  63.9648132  52.4889946  65.5179977  64.0671616  53.4064064  65.7712173
  64.7104111  52.3144341  64.9436798  81.6229324  42.3156509  24.1953793
  81.2653961  41.4330330  24.0985088  82.5673294  42.1836967  24.2786808
  53.1764870  32.5290146   9.9829006  52.2914391  32.1671753   9.9382296
  53.4122314  32.4716759  10.9088430   2.5845940  25.5526981   2.4389863
   1.8262899  24.9754906   2.5286472   2.7983181  25.5242424   1.5063854
  55.4063454  33.7183266   7.1093884  55.1480904  34.2627182   7.8531442
  55.7483864  34.3387909   6.4657583  69.8588028  57.3277016   0.0816808
  70.1127243  57.7916527   0.8794934  68.9023361  57.3649406   0.0770813
  58.7057228  52.7567902  46.5732689  57.8380013  52.9708214  46.9160233
  58.8082886  53.3245659  45.8095016  46.7762108  60.0998154  79.4151154
  45.8727150  60.1252480  79.1000290  46.7547798  60.5799141  80.2429276
  77.5055008  36.4853592  49.2285423  77.6331558  35.5982018  48.8925591
  77.7356110  37.0549088  48.4944496  19.7966690   2.3430805  27.4138031
  19.5787315   3.1420283  26.9337845  19.1291485   2.2847264  28.0973549
  51.2779617  38.8708649  61.6260300  51.6943665  38.2621384  62.2361870
  50.3657341  38.5836487  61.5863037  26.8464394  17.3517284  45.7654381
  27.6571751  17.0738201  45.3391685  26.2319088  16.6365681  45.6007271
  34.5322990   2.3015304  67.8148880  33.6124458   2.4832644  67.6223221
  34.7263756   2.8372903  68.5839920  73.1377487  51.3113670  43.1265450
  74.0539093  51.2506256  43.3970833  72.6960602  51.7255821  43.8678780
  33.7936172  43.4368172  34.8028908  33.4859428  43.8641281  35.6022491
  34.3241348  42.7027779  35.1126785  13.4073133  49.0598412  23.4823036
  13.3802090  48.3899994  24.1655369  13.2578354  49.8828316  23.9476814
  63.6464005  64.9502487  20.6017780  64.0922928  65.2817764  21.3811989
  62.9771004  65.6074142  20.4110031  78.6836014  44.3614731  10.4151983
  79.3856735  44.9789543  10.6202459  78.8297729  43.6263046  11.0105066
  11.1784582  42.3870544  47.2995911  10.9365873  43.1918144  47.7579460
  11.0166950  41.6908989  47.9363289  58.1563797  11.2232428  62.4369164
  58.2446060  10.2874985  62.6181107  57.2130280  11.3635235  62.3554192
  76.1413269  20.3048744  13.7023716  75.4742966  20.9762764  13.5591230
  76.9720535  20.7578812  13.5577812  24.6998711  18.6402378  44.2030563
  25.4477005  18.0663471  44.3692780  23.9706917  18.0421276  44.0393677
  60.8162079  56.9244537  51.6720657  61.6220436  56.5528336  51.3132286
  60.8273201  57.8387833  51.3890266  69.4856949  66.4588623  64.5433350
  69.8276138  66.2112274  65.4024048  70.2515030  66.4501419  63.9691544
  61.7798347  37.4605141  60.2631836  61.9420128  37.1748924  59.3641014
  62.1996918  36.7931442  60.8059235  80.3103409  33.3783302  50.9215431
  80.1748657  32.4588051  50.6927338  80.0180969  33.4444962  51.8306351
  19.2180862  56.5702782  63.4067802  18.4032841  56.4928246  62.9104614
  19.6808472  57.3000755  62.9951019  82.2041473  10.6474476  12.6634302
  82.6241379  10.6379890  13.5235167  82.7865219  11.1765194  12.1183109
  40.4558640  45.9059944  38.4054184  41.1839485  46.5198746  38.3091011
  40.7460403  45.2945786  39.0823250   0.4848804   9.7872448  15.6117582
  -0.1688467   9.6141996  14.9343157   0.0341756  10.3500118  16.2413540
   2.2601445  65.0408020  28.1692715   2.2617793  65.9530334  27.8793488
   2.9019768  64.6091309  27.6054077  58.5615387  41.9835587  40.2243347
  57.8245163  41.3802528  40.1292114  58.1614990  42.8092651  40.4971123
  60.5676155  51.3983078  82.5450134  60.3064919  50.5890808  82.9845657
  60.2094536  52.0955734  83.0943604  36.1474800  67.4424133  76.2188110
  35.4503365  68.0578461  76.4456711  35.7338142  66.5809784  76.2739639
  66.0981750  30.1613197   4.7529426  66.8376312  30.7377644   4.9456673
  66.0171967  29.6077995   5.5296597  45.0176201  32.9613571  42.8429222
  45.3261337  32.8965263  41.9391251  44.9350662  32.0530930  43.1335564
  29.8987541  29.2504177  70.3067856  29.2346878  29.3673458  69.6273956
  29.9929371  28.3014050  70.3888474  72.2535706  12.4626417  57.1379166
  71.3292007  12.2253351  57.2118149  72.3070450  13.3390951  57.5189705
  10.5938501  17.9737720   3.8540421  10.7055588  17.8883190   2.9072313
  11.4458218  18.2752113   4.1694942  14.4485674  19.7177887   4.7196364
  14.1270914  20.5444031   5.0796275  14.4656992  19.8593140   3.7731118
  30.4948006  64.7333679  85.3061066  30.9824562  65.0180206  84.5331955
  30.6670628  65.4101868  85.9606781   1.1714617  26.8032627  73.0294724
   0.9469032  26.5575027  73.9269104   1.3462434  25.9711342  72.5898743
  83.4673233  57.6922760  36.3605995  83.7874603  57.7766342  37.2587242
  84.0866013  58.2006149  35.8368416  16.4171486  60.9169464  72.9100113
  16.0621738  60.2735710  72.2965851  16.2821007  61.7601357  72.4775391
  21.4878139  66.0729523   7.3644710  20.9771614  66.5541077   8.0155907
  20.9049702  65.3716125   7.0735259  68.1007996  65.9442825  62.2097473
  68.4225159  66.2764816  63.0478249  68.8928909  65.7667389  61.7025032
  78.9741516  11.1131573  16.9720345  79.3219528  11.3427086  17.8337593
  78.4717255  10.3123589  17.1220932  18.5137024  63.5322914  16.1627026
  18.3358707  63.8267403  17.0559597  19.0327015  64.2379303  15.7767668
   0.8435000  15.7749052   6.0430050   1.4522829  15.7148914   5.3067889
   1.1770009  15.1446238   6.6815615  71.8804626  62.7939148  61.3738480
  71.2839127  63.3204346  61.9059601  72.3791656  62.2808952  62.0097237
  65.1585236   3.1089916  14.8681507  65.7727509   2.6946354  15.4741764
  65.6998596   3.3807058  14.1269646  25.1702328  12.1438217  50.7420311
  25.1795521  11.5667181  49.9784241  25.2855549  11.5555477  51.4882660
  23.6220036  52.1103592  78.4024048  24.0499306  52.9664268  78.3863907
  24.2697983  51.5117836  78.0305176  39.7556038  13.3960123  68.6109009
  39.6834259  12.4516859  68.7497177  39.9942970  13.4849100  67.6882095
  79.9123840  20.9991360  80.2756653  80.3531723  20.4871655  79.5975571
  79.6760254  21.8187199  79.8413239  69.1392365  35.2625618  89.0914841
  69.2262955  35.7817268  88.2920303  69.4692383  34.3965950  88.8518295
  60.6848640  11.6830063  82.0447388  60.5980568  12.6191721  81.8650436
  60.6756058  11.2713871  81.1806107  29.4712486  70.3146667  75.6715088
  28.9758720  69.7545547  76.2690887  28.8044910  70.7306442  75.1250381
   3.9943852  56.0936050  42.9553070   4.2997947  56.5211601  42.1552124
   3.4961650  55.3366051  42.6471405   0.3516712  16.4798775  36.3619614
   0.1616246  15.9790182  37.1552162   1.2792653  16.3160744  36.1917534
  58.0951195  68.6013260   4.4437017  57.5282555  68.5372620   5.2123337
  57.8309250  67.8670502   3.8893850  60.4369850  38.9452133  72.9475937
  60.0856247  39.6356163  73.5098419  60.7842712  39.4099197  72.1862259
  23.3612614  45.0479927  59.7511482  23.2537880  45.5749893  60.5429535
  22.8818111  44.2400208  59.9342880   2.6396177   5.1913309  26.3274746
   2.0482197   5.3432574  27.0646305   3.5156257   5.3079448  26.6952286
   9.1096516  54.8905983  23.8915043   9.9384403  54.6690903  24.3160934
   8.9389381  55.7944603  24.1563091  74.7649612  26.9642754   9.9745560
  75.5899734  26.4789257   9.9709234  74.1660538  26.4148159  10.4801655
  66.2415009  30.6997490  13.7942867  66.4036560  30.3698864  14.6781015
  66.5653839  31.6003208  13.8115807  24.3931637  31.6736584  77.3066864
  25.0441914  31.9543037  77.9498291  23.7842159  31.1282539  77.8046265
  76.3325119  39.2441750   6.2789488  75.5220413  39.7527199   6.2514539
  76.5388565  39.1725998   7.2108984   6.6270218  52.2348137  53.6881943
   6.0245833  51.6196938  54.1064377   6.2626257  52.3695908  52.8133888
  63.7815285  21.7910442  71.0161057  63.9289284  22.7367954  71.0237427
  62.8545761  21.6913509  71.2330246   7.3786192  67.2061157  31.0940742
   7.9568977  67.9339523  31.3222923   6.5010333  67.5883179  31.0943012
  33.4387131  69.8501511  25.3562374  33.1909790  70.3521500  26.1326733
  34.1209793  70.3759155  24.9387207  85.6855087  48.3907433  44.7784119
  85.6427917  47.5042992  44.4197731  85.2222595  48.3335991  45.6140900
  71.5680389  19.5393677   1.9098995  72.2850876  19.4297543   2.5344405
  71.9328461  20.0955639   1.2215767  47.7361755  49.1153297   1.6406809
  48.6762924  49.2488098   1.5198824  47.5119629  49.6598511   2.3953059
  65.8848572  67.6251526  50.3973732  66.5307846  68.3146286  50.5511284
  66.1960068  67.1764679  49.6111794  30.2260151  35.3595886  74.7312622
  30.5639591  34.4878426  74.5261154  29.2768440  35.2761078  74.6399536
  19.3471661  16.6095428   7.5012999  19.1336861  16.8922997   8.3905163
  19.3086433  15.6538286   7.5381308  85.2930603  49.7792053  18.9931641
  84.5628586  49.4800186  18.4513912  86.0644302  49.3667488  18.6044464
  84.4644318  14.2968874  13.5975780  85.1374054  14.8736525  13.2360926
  83.6389084  14.6656561  13.2833109  20.3807850   8.4044819  20.6861477
  19.5822334   8.9302702  20.6403885  20.0885773   7.5529542  21.0113354
   5.3734007  69.6499863  53.8786659   4.5632296  69.1481628  53.7890663
   6.0696502  69.0047073  53.7558670  73.6178589   3.2048066  66.1847000
  74.1291733   3.6810112  65.5304642  74.2444305   3.0068357  66.8807220
  10.4765358  25.6427879  86.6856308   9.8068361  26.3186054  86.7905350
  10.7801514  25.7444477  85.7835693  40.2391548  27.6776085   8.0802488
  40.7883492  27.0081635   7.6722512  39.5302696  27.1858463   8.4948416
   2.3399079  63.3973694  77.1592026   2.3744948  63.9879456  76.4067078
   2.9526899  62.6951675  76.9409332  56.8360596   4.5604463   2.2067623
  57.7756195   4.4205074   2.3245647  56.6388702   5.3274217   2.7444398
  77.1362152  25.5822468  60.1925850  77.9104919  25.8276787  60.6990433
  76.5914307  25.0936108  60.8095703  22.2958393  43.9431114  69.4492798
  22.8522968  43.6751862  68.7179794  22.7512035  43.6211357  70.2272339
  80.5519180  55.6559563  22.3447418  80.2604446  54.8489571  21.9204426
  81.4876099  55.7050018  22.1490059  62.6316719  43.5414581  71.3450470
  62.9431877  42.7752800  70.8632126  62.8600769  43.3601990  72.2567520
  10.7800360  33.1382675  86.3630905  11.3217125  33.7206497  86.8956757
  11.3905363  32.7497787  85.7365112  25.7273560  42.6565819  35.5404167
  25.8743038  41.7487984  35.2747803  25.1578922  43.0160065  34.8601532
  40.0315781  13.1471357  21.1939507  40.7145844  13.5660133  21.7176685
  39.8455505  13.7754841  20.4962387  43.7609825  43.1693611  77.8958588
  43.4008865  43.9471321  77.4696732  44.6679611  43.4028625  78.0935974
   5.0445409   8.7485151  76.7259445   4.3123732   8.3982859  77.2333908
   4.6333799   9.1660318  75.9690704  37.9631767  39.1898994   4.3780079
  37.8624115  40.1022758   4.1066198  38.4734154  38.7861481   3.6759586
  23.3882484  57.5650368  82.9378433  22.5638447  57.8065414  82.5156250
  23.8327904  57.0112076  82.2960510  62.0351028  70.0377350  72.9804764
  62.7333145  69.5933304  73.4613495  61.3424759  69.3816071  72.9030304
  58.4263992  60.2428169  79.3849869  59.2359505  60.3433495  78.8842316
  58.6824455  59.7347870  80.1547699  81.3565445   4.6804247  56.9340706
  81.7079849   5.1557016  56.1811905  81.9573441   4.8876319  57.6498413
  62.0723000  11.0126657  70.2751999  62.2636223  10.3226156  70.9103775
  62.0212479  11.8124933  70.7985535  20.3646259   8.4150038  61.2973480
  20.2662392   9.1542187  60.6972542  21.3110580   8.3085461  61.3930817
  68.8971786   3.1987884  85.0970764  69.1855164   4.1029172  85.2221603
  68.0731735   3.1410913  85.5807266  24.7707767  64.2404480  64.8443375
  24.1455574  64.8427505  64.4411469  25.4457073  64.1140060  64.1774673
  25.0829678  47.3813667  74.4829788  25.5654793  46.7604980  73.9371414
  24.2501240  47.5039253  74.0273590  85.1409988  63.4904671  17.7595978
  85.7311707  62.7421570  17.6703854  84.2802734  63.1464806  17.5207329
  64.4352493  14.2557440  39.7795601  63.9558334  14.0131674  40.5717392
  65.1626053  14.7923117  40.0946465   1.8899951  53.8210373  51.7107582
   1.2258506  53.8272629  52.4000359   2.5589592  54.4332619  52.0171890
   0.5140802  62.7407188   2.2739303   1.4113568  62.9617691   2.5234578
   0.4850089  61.7845230   2.3067529  46.0280533  13.4281301  36.5065002
  45.9909134  12.5818233  36.9521637  45.9339142  13.2143383  35.5782394
  84.9302521  34.3158188  17.4763279  85.5055695  35.0418930  17.7172718
  85.4191284  33.5307770  17.7231903  76.9086838  30.0208912  67.0944214
  76.7205124  30.6570187  66.4043732  77.6138611  30.4210052  67.6032104
  55.2686768   4.3958850  35.0181847  55.9276466   4.0041285  34.4450188
  55.6600113   5.2214074  35.3038483  14.9437838  29.2404385  72.3386536
  14.0765371  28.9271622  72.0818024  15.5436840  28.8123417  71.7278519
  27.2750340  41.1252022  69.6714096  26.9858818  41.9107780  70.1356201
  27.6949940  40.5900230  70.3447952   0.0029163  40.6962814   5.7829738
   0.0198512  40.8456764   4.8376555   0.8911726  40.4103470   5.9962201
  83.8521347  43.0217094   6.6578708  83.6670532  42.5422440   5.8503509
  83.5309296  42.4497871   7.3549790   2.3809564   7.0207763  49.7309074
   2.0421579   7.5428815  49.0036812   2.7970569   6.2676120  49.3115768
  27.7791767  58.2402687   9.9866543  27.8968983  58.7166176   9.1647873
  28.5919189  57.7465553  10.0958652  80.8128662  57.3484192   4.1779213
  80.7956619  57.2591553   5.1307945  80.0187454  57.8403397   3.9690676
  54.1532974   0.7147492  58.0213394  53.9524536   0.0936551  58.7214355
  53.4372444   1.3492553  58.0513535  67.3196640  24.2672787  47.6946068
  66.9731522  23.7116890  48.3928070  67.9539795  24.8347454  48.1326141
  30.7193394  38.2396088  54.7314186  31.4129143  37.8117256  55.2335129
  30.8892097  37.9861374  53.8241539  80.3471985   8.5239315  33.2156143
  79.4791489   8.3565674  33.5826340  80.8257294   8.9591208  33.9211998
  77.7437134  21.8743801  87.4546661  77.9283829  22.6574535  87.9732437
  77.1255264  21.3744106  87.9876862  86.4214859  64.0522995  35.7342949
  87.0643768  63.8496437  35.0547028  86.5585632  64.9803314  35.9245758
  82.2490540  52.9532166  25.0496216  83.1435165  52.6232033  25.1348515
  81.7897339  52.5997124  25.8113899  77.3771133  67.5525131  68.9726486
  78.0494537  67.5114441  68.2925644  77.1496048  68.4805832  69.0287857
  74.8110428  21.5394077  29.5209160  75.2944260  20.7461433  29.2900333
  74.6528168  21.4582558  30.4614544  16.7450314  55.4491615  10.5123072
  16.9896526  54.5557365  10.7535295  16.2653942  55.3523254   9.6896276
  72.8095627  38.9268265  33.8598404  73.1297226  38.2700310  34.4781876
  72.6687393  38.4417534  33.0467567  40.1508598  25.9140930  38.3700104
  39.5851822  26.6086407  38.0326080  40.6412277  26.3283272  39.0800667
  45.9000282  36.2747917  68.7397995  46.3886528  36.0867004  69.5411148
  45.1710434  35.6545906  68.7526321  10.9871750   1.4455485  74.5580292
  11.8148642   1.8570061  74.8067627  11.1845827   0.5094075  74.5279999
  50.3852310  65.6837921  13.6390829  49.7042961  65.7498245  14.3085585
  50.0470886  65.0404816  13.0161533  25.6684399  68.9547882  39.5159073
  26.4080753  69.5276031  39.7185249  25.8814430  68.5821533  38.6603317
  71.8147659  45.1184731  31.6421814  71.4350433  44.2630081  31.4416180
  72.5317459  44.9265137  32.2465973  78.7186050  50.1413116   7.3350716
  78.9677124  49.9044876   6.4417114  78.0860443  49.4708290   7.5930519
  83.2519760  14.4459705  79.3919067  83.5100098  15.1939192  79.9306335
  82.3600159  14.2437687  79.6742935  28.0026150  -0.1237263  35.4337997
  28.5092335  -0.0526486  36.2428207  28.3915787   0.5272081  34.8496552
  41.8006821  59.9719620  62.1747322  41.4585533  59.1415443  62.5057716
  42.6209908  60.0999794  62.6511116  80.4564667  14.8571644  73.0272675
  81.0694580  14.7139702  72.3061752  80.7711868  14.2842398  73.7265091
   4.9630313  48.7505493  81.5896530   4.5776029  47.9012794  81.8050995
   4.4295297  49.3842850  82.0692215  42.4118347   4.5187354  72.9397736
  42.4961472   5.3822446  72.5354538  41.5914993   4.5633383  73.4309921
  55.8390923  68.1840668  46.5800629  55.9916916  68.8104172  47.2876167
  55.3868942  68.6904602  45.9052925  49.3614082   4.9610667  57.5287590
  48.7741928   5.6793284  57.7643585  49.8133774   4.7439375  58.3441162
   8.0661125  12.3861284   1.6586179   7.2115912  12.5983353   1.2831271
   8.0828896  11.4296045   1.6904253  81.9401855   6.9990911  36.6098938
  81.9943466   6.4614010  37.3999481  82.3161316   7.8410120  36.8669243
  57.6618843   8.7279425  65.2518463  57.2508354   7.8709230  65.1387558
  58.1783028   8.8528290  64.4556351  65.6802521  22.0841122  40.7650948
  65.1822739  22.8979721  40.8417892  66.5594254  22.3118629  41.0674477
  17.7467175  32.7842712  72.5728531  17.9223995  32.2676010  71.7864532
  16.8266468  32.6114159  72.7724075  66.4539490  35.9835548  53.3321609
  67.0752945  36.5885811  53.7372551  65.6123352  36.2003365  53.7333260
  74.1899719  12.8418541  28.8472347  74.9862671  12.4884558  28.4506798
  74.4341049  13.0219679  29.7550831  39.0890198  46.6690636  43.1812744
  39.4614716  47.4798164  42.8345871  39.7445679  46.0003510  42.9830017
  85.0487976  58.8915367  52.7403221  85.8742523  59.0264282  52.2748604
  84.4118958  58.7071762  52.0499573  38.8932762  11.5532770  43.4830971
  38.8776321  11.8419285  42.5705910  37.9738731  11.4019213  43.7022247
  38.4592285  68.2210922  39.4648972  37.8583412  68.8982315  39.1540108
  39.3166008  68.4930267  39.1374855  60.2271881   6.3487759  75.9122009
  60.4998550   7.2165971  76.2101517  59.4984894   6.1160116  76.4875717
  58.5662956  38.7624321  77.4450989  58.8833771  38.6600685  78.3424377
  58.9974098  38.0607491  76.9572296  64.2638245  71.0485001  50.8941422
  65.0843048  70.8871460  51.3599968  64.0193329  71.9402771  51.1414948
  66.1530533  35.5392799  23.1440773  65.2820206  35.7869644  23.4542103
  66.5626831  35.1121826  23.8964233  36.3530960  43.3344269  69.3069916
  36.2737198  42.4644241  68.9158020  35.8872528  43.2657280  70.1403580
  62.2977791  54.4367332  45.4755402  62.3834915  54.9898987  46.2519989
  61.9190140  53.6210175  45.8032188  44.9710350  24.0930290  13.6129522
  44.2688446  24.4297123  14.1695509  45.4189224  24.8759441  13.2925243
  39.1354103  42.2448883  24.0134583  39.9232979  42.5234070  24.4802475
  38.4299660  42.7589302  24.4063187  59.9161530  45.8409538  58.9360847
  60.1775665  46.3671265  59.6917572  60.6077461  45.1847649  58.8503532
  62.9886742  49.4848938  45.0943108  63.3196564  50.3800011  45.0203438
  62.0363770  49.5790710  45.0722313  83.7059937  27.7569103  64.8877640
  84.5746002  28.0250778  64.5880280  83.3831558  27.1768856  64.1981430
   1.7543626  56.9828758  69.3939285   1.7330902  56.0389557  69.5513840
   2.2300093  57.0773773  68.5686646  60.9152298  24.9381504  70.5408096
  61.6765976  24.5224590  70.9454803  61.0170937  25.8690720  70.7389069
  86.3645630  66.6081619  71.4815140  87.0929184  66.8344955  70.9031525
  86.0578079  65.7604218  71.1598511  43.8765106  47.9520760  25.5824814
  43.1777458  47.5999069  25.0311775  43.4253807  48.5191574  26.2078857
  42.3222466  67.3312988  10.3425064  42.3236885  67.0485153   9.4280319
  41.9955025  68.2305679  10.3146133   1.7685293  69.8179779  77.8592148
   1.8181312  69.0279694  77.3210068   2.4604292  69.7073441  78.5113449
  51.6234169  34.2361107  26.2844543  51.8280869  33.3867874  25.8933163
  52.4775200  34.6290627  26.4642563  79.3313828   4.7649708  77.1070175
  80.2189789   5.0082183  77.3701477  79.1161423   4.0121970  77.6576843
  65.9988785  38.7856903  32.0023041  65.6228485  39.6472168  31.8217354
  66.9399796  38.9032173  31.8728886  72.5548172  55.2657700  21.0211182
  71.9185257  55.1343460  21.7240353  72.0268402  55.5219994  20.2649326
  40.9226761  55.0059319  73.2497025  40.7659454  54.1530533  72.8444061
  40.2345505  55.0873795  73.9100723  54.2269478  24.4213963  43.4590530
  53.8115578  24.5450573  44.3125076  54.9674110  25.0279732  43.4629326
  67.9099731   5.2285132  41.3172531  68.0415802   5.0550227  42.2493553
  67.3466034   4.5148587  41.0180054   9.6818190  64.5903168  10.2101307
   9.9264612  64.4695435   9.2926359   9.1894636  63.8002129  10.4327316
  22.7429543   9.2677526  53.3979301  22.7061615   8.5421772  54.0211601
  22.9720249  10.0294790  53.9304085  32.7632942  53.9613953  41.4082298
  32.5794373  53.0498161  41.1813965  32.5773277  54.0171661  42.3455353
   2.4186041  37.0052490  72.4443283   2.3118620  37.7582436  73.0255661
   1.7454600  36.3865662  72.7277756  77.7087555  19.3609180   8.1829166
  77.8926239  18.4471836   8.4008961  76.9400635  19.5825233   8.7084970
   4.0376925  14.2919760   6.1341171   3.9967031  14.9864168   5.4766188
   3.9289587  14.7463923   6.9695301  77.8833160  18.6360626  85.7045288
  78.5103607  18.4072170  85.0184708  78.3046188  18.3561020  86.5171509
  55.3582878  53.2879524  29.8502140  55.7629547  52.6172028  29.3001518
  56.0509377  53.5504494  30.4564819  34.7382584  22.4101753  18.6115036
  35.4350319  23.0308056  18.3980598  34.0064926  22.6698055  18.0517349
  43.6789017   2.2834969  38.9895706  42.7297745   2.4075315  38.9906158
  43.8483047   1.7250273  39.7482834  49.5373154  56.2453270  57.5265579
  48.9725151  56.5725784  56.8264618  49.7850723  57.0273972  58.0197258
  39.8345566  31.1169186  70.6022644  40.2296562  30.3644104  71.0425568
  40.0482330  30.9927044  69.6775208  40.7155609  59.2991714  37.7204514
  41.3403664  59.3136177  36.9954376  40.4603615  60.2145882  37.8349762
  63.7963142  60.8405571  67.2105179  64.6979980  60.5216675  67.1716843
  63.4550972  60.7022781  66.3269577  54.4603844  50.6331329  57.3652687
  53.5421600  50.3964767  57.4959984  54.9448471  50.0384865  57.9379120
  47.9707718  10.9184475  80.1429749  47.4508438  10.7789135  79.3515015
  48.4759941  10.1116142  80.2429962  45.7952309  25.9822693  33.4897346
  44.9714775  25.4951248  33.4709854  46.0076180  26.1292191  32.5680351
  24.5491982  11.9871330  83.0576859  24.1461086  11.7677279  83.8976974
  23.8993568  12.5335112  82.6156387  64.0710068  25.5517540   0.3761456
  63.5838661  26.2099419   0.8718395  63.4293480  24.8649635   0.1949777
  57.6113968  43.4985580  25.4090080  58.4524345  43.3310890  24.9837532
  56.9992676  43.6313477  24.6852016  68.4013672   9.3262739  31.1894360
  67.9459457   9.5970135  31.9866314  67.9550781   9.7984705  30.4865265
  84.8273544  22.9458542  69.2334976  85.6910553  23.3374634  69.1035461
  84.4229050  22.9646187  68.3661423   0.7566137  43.4144173  72.3250656
   1.4721545  43.5303497  72.9501953   0.1343146  44.1086540  72.5418701
  81.2782364   8.4924002  77.8727722  80.8733826   8.8852549  78.6460724
  81.0482407   9.0832891  77.1557083  59.7819672   1.6887212  84.3517456
  59.8309669   2.4198942  84.9675446  60.0834770   0.9318195  84.8541641
  62.5598793   9.1531706  20.9824409  62.9659538   8.3695660  20.6119022
  63.0493126   9.3183060  21.7883072  48.7921562  37.4746895  61.4724121
  48.4723015  38.3750610  61.5294838  48.6282425  37.2193794  60.5645676
  49.0952606  46.7781219  53.7175369  48.2018089  47.1145439  53.7867584
  49.5733643  47.2222900  54.4177933  29.4165192  46.5440979  61.4697227
  29.7575512  46.4271240  60.5830154  30.0528755  46.1016006  62.0313950
  46.2837944   3.6870878  21.0503330  47.2280312   3.7862442  21.1720753
  45.9109993   3.8647904  21.9138584  13.7784739  21.2751007   8.1978416
  13.0235882  21.4762154   7.6447291  14.1999779  20.5316486   7.7667437
  65.6919098   6.4449229  26.2647762  66.4385681   6.8673568  25.8401718
  65.0412521   6.3526988  25.5688038  39.5279655  61.8730049  35.5597076
  39.8558044  61.1657677  35.0042191  39.5605927  61.5153847  36.4469948
  55.4753685   4.2917027   6.1963444  55.1142235   3.4459212   6.4617867
  54.7094841   4.8551235   6.0858641  13.9601583  53.3981819  70.9770355
  14.4928360  54.0619431  70.5389709  13.0854368  53.7843056  71.0218048
  60.4000015  38.6226006  65.1687546  60.7658348  39.2018623  64.5002747
  61.1141510  38.4968567  65.7935791  67.6268311  26.5593452  52.1327438
  67.8462830  26.2109795  52.9968681  67.1691971  27.3801632  52.3145599
  78.1040115   5.7800317  31.4539375  78.4754410   5.3134131  32.2026329
  77.2701874   5.3404441  31.2874126  44.2504730  66.1561508  21.8613243
  44.1003799  65.9645844  22.7870693  43.9647560  65.3654556  21.4037266
  42.5553741  31.1726799  77.3979111  42.9981651  30.3722515  77.1159821
  42.2269287  30.9689693  78.2736130  61.1032372  45.2307701  43.0882416
  61.9165344  44.7261238  43.0776138  60.5111237  44.7191925  43.6395340
  34.1807213  38.9266472   4.7754307  34.7478752  39.6147156   4.4273887
  33.9611130  39.2215080   5.6592073  47.1103668  54.4814911  18.6962013
  46.3853302  53.9801445  18.3230972  46.6944618  55.2510834  19.0847683
  64.8802872  63.0764389  19.0992718  64.5755310  63.6454468  19.8060875
  64.4832382  63.4425583  18.3089905   2.4882562  31.8121796   6.5352244
   1.6840889  31.6150017   7.0155029   2.2186563  31.8381939   5.6171441
  33.4694290  57.6199036  78.2750778  33.7895966  56.7830048  78.6117172
  33.0048180  57.3921700  77.4697800   0.5690371  53.2014656  75.3304520
   0.5992387  52.2594490  75.4975433  -0.3647164  53.4106750  75.3066330
  79.4164047  64.5574265  57.2509956  79.2084503  63.9537582  56.5378532
  79.2856064  65.4275208  56.8740883  85.7572556  50.2387848  69.3912735
  86.1538162  50.0724678  70.2464447  86.3967285  50.7837334  68.9326401
   6.4377246  49.3020325  30.8826694   7.1091294  48.6235085  30.8116074
   6.0395918  49.1560860  31.7408180  20.3430920  48.5487671  72.7867661
  19.7015247  47.8410034  72.8475418  20.2141953  49.0582237  73.5868149
  37.6764336  33.5750923  79.7368469  37.8043594  32.6301537  79.6534348
  38.5611839  33.9396095  79.7128525  73.5048904   1.8059286  18.4455700
  73.8918839   1.1737602  17.8399029  72.7319717   1.3616085  18.7940006
  63.1255302  12.0977087  67.8022003  62.5165749  11.8746014  68.5062103
  63.9921455  12.0168324  68.2005310  52.2960587  62.9223289  12.0878420
  51.3958931  62.5984993  12.1205378  52.2078629  63.8562317  11.8973742
  55.5041428  42.0359192  49.6362190  54.6965828  42.2623901  50.0975113
  55.2585297  42.0321999  48.7110748  52.8848648  12.6710205  69.5691452
  53.2457695  13.0746593  70.3584824  53.6528587  12.4014902  69.0653839
  56.7583084   1.0274941  42.6057053  56.7273331   0.0923537  42.8076591
  57.3836441   1.0961399  41.8842659  80.4125519  21.0828819   4.5750322
  79.6371536  21.4405003   5.0075812  80.9947128  20.8352299   5.2933559
  43.2511559   1.9004372  17.7101212  43.8635979   1.9310392  18.4451103
  42.5954552   2.5664361  17.9168396  60.8850403  48.4906731  10.7711220
  59.9378357  48.4311256  10.8955994  61.1002960  49.3948708  10.9998560
  56.8791618  49.1451187  26.8483582  56.6891212  48.2248001  27.0303802
  56.2476654  49.3909187  26.1723232  78.7621765  21.1798325   6.6046638
  78.5604172  20.4318771   7.1668816  79.4791565  21.6292591   7.0520840
  19.1921825  52.6793251  74.3504715  19.7776299  53.0036392  75.0347900
  19.3960075  53.2178764  73.5858459  78.7639694  70.5915604  66.7233963
  79.4879303  71.2169037  66.7560501  78.6184540  70.3457031  67.6369705
  23.0987453  46.3956985  33.5199318  22.3741016  46.1109428  34.0767403
  22.9818401  47.3423805  33.4401894  27.1305943  67.1666718   5.4029951
  26.3248253  67.3415680   4.9168091  27.7997990  67.0597763   4.7269993
   1.4143554  35.4740067  62.9411621   0.6148527  35.0031204  62.7060204
   1.8653809  34.8904305  63.5512810  69.5847855   1.1279496  32.0374069
  69.4764175   0.1788196  31.9770641  68.8784714   1.4843937  31.4986038
  13.3339005  65.7107239  75.8685684  13.2145739  64.8149719  76.1841888
  12.5031977  66.1453476  76.0616150  29.2492619  43.8106384   7.9501481
  29.4309139  43.7600403   8.8885908  28.9144135  42.9429321   7.7238822
  67.8268204  55.9057617  80.9003601  67.5172729  55.0846481  81.2827072
  68.6625061  55.6797676  80.4919739  85.1377029   4.8450999  56.9740906
  85.9915848   5.0060320  57.3756027  84.5133209   5.2746730  57.5587692
  70.4650574  63.7519226  23.1010399  69.7205048  64.3530960  23.1223698
  70.5020599  63.3850517  23.9843693  22.0891819  52.0058784  36.2168579
  21.9379597  52.2244339  37.1364212  22.2608337  51.0642014  36.2195816
  20.3455791  26.8825226  14.0067053  19.6862946  27.5690689  13.9055538
  19.8386822  26.0782738  14.1183834  13.6137486  38.8563004  71.4896011
  13.9213457  38.1657639  70.9024277  13.3200130  38.3913078  72.2730179
  56.6531410  54.6871910  86.0504074  56.5546684  53.8475800  85.6014175
  57.3725624  55.1211319  85.5917587  11.2652445  12.8851805  13.4881554
  11.8317375  13.2242975  14.1812048  11.0257168  12.0066023  13.7830420
  23.9686527  12.7756004  75.2839050  24.1286011  13.3817949  76.0072174
  24.4037571  13.1788988  74.5327301  65.8429871  69.7228470  22.7478218
  65.7196121  70.2186432  21.9383774  65.5576630  68.8352890  22.5309029
  38.0238419  39.5031548  39.2709274  38.9051170  39.4093475  39.6325684
  37.9660072  38.8217506  38.6011696  75.9018097  69.2860794  44.0113907
  76.0444336  69.4623947  43.0814438  75.3365860  68.5136948  44.0247955
  44.1615829  33.4665337  15.2921762  43.2141876  33.5880241  15.2296295
  44.2743073  32.8146820  15.9839983  68.9531250  51.1175537   1.1917359
  69.3379288  51.1637917   2.0669634  69.6800537  50.8623924   0.6236716
  59.5265884  61.9201317  24.9554062  60.3750954  61.6656990  25.3180809
  59.4814034  61.4689217  24.1124363  74.2436752   5.1116786  73.7651901
  75.1867523   5.0901399  73.9275894  74.0688858   6.0109754  73.4878006
   1.8820900  71.4369354  35.1655579   1.7886647  70.8084793  34.4496307
   1.3542041  72.1882401  34.8951683  23.4424381  10.9404039  85.4138489
  23.8976765  11.2789917  86.1847839  23.7651424  10.0441914  85.3195190
  44.5010338  65.6712875  68.4970245  45.3561516  65.4388733  68.8589478
  43.9880219  64.8654861  68.5582199  70.7431946   8.3842440  25.7202625
  71.0785294   7.9506226  26.5049629  71.4937134   8.4202251  25.1272545
   4.3794341  12.2435503  78.2621613   4.0884528  11.8459435  79.0828094
   5.2005577  11.7963305  78.0572662  56.9418945   6.4280696  51.7713051
  57.3923264   6.5349116  50.9334908  56.5375328   5.5621662  51.7171249
  66.5913544  32.3385315  56.3423424  66.7817841  32.9536934  57.0505409
  66.1904678  31.5870609  56.7791634   8.5212059  51.6531181  72.7227249
   7.9637790  52.2922440  73.1666031   7.9226918  51.1652985  72.1569977
  57.2388687  32.7239532  31.3073177  56.9166641  31.9680481  31.7982578
  57.9644241  32.3796997  30.7864628  33.0946236  15.0278969  71.7653580
  33.2451935  15.7043152  71.1050415  32.6382103  15.4820080  72.4736710
  61.2777481  35.4556389   1.8826953  61.4300575  34.5273361   2.0595896
  60.5932159  35.7083435   2.5021987  51.8232994   2.8927565   8.8709059
  52.4436646   3.5940628   8.6720448  50.9836388   3.2159665   8.5442019
  71.3183441   5.6810703  72.2724075  71.1625214   4.7684040  72.5152817
  71.5088043   6.1203256  73.1012650  75.7337570  52.9516487  37.4360199
  74.9622421  52.3853455  37.4532356  76.3792648  52.4934311  37.9741631
   3.8622324  15.0157394  77.2243729   3.9356351  14.2748432  77.8259659
   3.5251226  14.6337757  76.4140091  12.4435425  59.9123497  81.7036514
  12.9626923  60.1406059  80.9325409  12.0613203  59.0607910  81.4915619
   0.7872203  64.1571503  65.0325775   0.9956548  63.2243462  65.0841522
   1.1794845  64.4449997  64.2082520   1.6333605  53.9345398  14.2141695
   1.0086492  53.5587845  14.8344727   1.8854667  53.2005615  13.6538582
  58.5492287  10.4124403  83.9840546  58.2927666  10.9213114  83.2149582
  58.1911774  10.9013281  84.7250137  38.0835800  27.9572506   0.5924011
  38.2415199  28.8134556   0.1946563  38.9198875  27.7218533   0.9941607
  15.9722815  52.8210678  13.7327232  16.5327740  52.5117416  13.0211077
  15.0818281  52.7273216  13.3942909  86.6002884   3.1854055  52.0330238
  85.9252625   3.6843803  52.4930153  87.0550537   3.8351967  51.4971237
  24.7068119  32.4350243  84.6655579  24.7391815  32.5092201  83.7117844
  25.1567154  31.6121635  84.8571854  13.2693977  36.2713623  62.5721283
  12.9075174  36.7831306  63.2955666  12.6542835  35.5465469  62.4602737
  75.8293381  19.4119129  10.4817343  75.0079269  18.9348221  10.5996122
  76.2831802  19.3180046  11.3192568   6.4467559  53.3425102  81.7957306
   6.4566131  52.5100861  81.3232880   5.8197861  53.8831749  81.3152924
  73.2516251  36.8880577  66.5601196  72.5867691  36.9021454  67.2485886
  72.8983459  37.4547768  65.8743668  23.1498718  70.4468231   8.9387236
  23.2048092  71.1946564   8.3437767  23.5545864  69.7262878   8.4557486
  34.3839569  33.4449005  13.6063786  33.6077118  33.9220352  13.8996687
  34.3974266  32.6545258  14.1461554  60.1378860  57.2306099  47.2218819
  60.9447708  57.0510292  47.7045021  60.4329872  57.4783287  46.3456497
  56.9044991  20.0636978  29.8229122  57.6198730  20.5119724  30.2740479
  56.5682411  20.7118034  29.2039452  49.0709724  34.4296227  11.3149576
  48.9503746  35.0102348  10.5635738  48.5019531  34.7939873  11.9929590
  48.5829620  54.3384514  82.6908569  47.6334305  54.4298058  82.6116333
  48.9374962  54.9804001  82.0756836  14.1038256  33.4956017  85.4786148
  15.0578537  33.4809151  85.5550690  13.8009863  33.8294754  86.3230362
  47.8635025  20.6819344   0.9061934  47.6721268  19.7593136   1.0746574
  47.0094910  21.0745125   0.7251574  18.2201633  30.9471016  76.4177399
  17.3092079  30.7997131  76.1634293  18.2288876  31.8359470  76.7728500
  66.9517136  16.5562325  79.7290802  67.4813690  15.8469067  80.0931549
  66.5731812  16.9894505  80.4941101  69.8211288  28.1128044  82.3745041
  69.3385620  27.6605473  81.6825333  69.5298157  27.6925316  83.1836624
  21.2938576  65.0070267  83.8865738  21.6975689  65.8361816  83.6301422
  20.7109375  65.2380219  84.6098175  77.8701477  35.7423592  38.3697166
  77.7424774  36.6744080  38.1930313  77.0187454  35.3450623  38.1866608
  69.9487839  68.7136765  50.6136436  69.8297424  67.8635254  51.0370827
  70.7095413  69.0950775  51.0518417  21.3665771  11.3724308  12.6678419
  21.1686916  12.0236292  11.9947786  21.8007660  10.6628733  12.1943026
  39.9984818  64.7120743  42.7511330  40.2153130  63.8264122  42.4598846
  40.2482300  65.2734451  42.0171585  18.0203247   7.0589600  79.9041443
  18.5608711   7.5376048  79.2757034  17.5507355   7.7409000  80.3844376
  80.8653488  66.5540314  61.6748924  80.5296783  65.9793167  60.9869576
  81.3076477  65.9640427  62.2852325  54.4611015  22.9062290  82.3168716
  55.3039627  22.9687901  82.7662048  54.2374649  23.8113461  82.1001205
   1.9870701  42.1232681  41.1943588   2.6809473  41.8020592  40.6185188
   1.3286139  41.4285698  41.1865730   2.5109410  37.0444298  28.3605175
   3.0822546  36.5184860  27.8008614   2.1580024  36.4212151  28.9955502
   2.0521119  71.7700882  57.7519073   2.5573030  71.6109467  56.9546051
   2.1300762  70.9571152  58.2511253  76.4234390  50.9084282  70.3666763
  76.9245071  50.9030800  71.1822357  75.9163895  51.7195053  70.4024124
  13.4191132  37.6697617  14.5008707  13.2585793  36.8255157  14.9224281
  14.2912779  37.5833206  14.1160479  70.6896057  65.1778259  72.2469101
  71.3695908  65.5047913  72.8359375  69.9065399  65.1191101  72.7942581
  76.0333481  69.7135849  32.0924377  76.8946152  69.4886322  31.7405128
  76.0582809  70.6647415  32.1969070  72.5046616   8.1175804   4.7921753
  72.4004822   8.9091043   4.2640967  72.4606400   8.4259844   5.6972613
  59.0273972  68.2473526  29.7713528  58.2125816  68.5309372  29.3567524
  59.2308350  68.9409256  30.3988934  38.3945923  57.0940933   8.2932291
  38.8034325  57.4671860   9.0741777  39.1064224  57.0329628   7.6562104
  41.6807671  53.0968513  69.0007706  42.6378517  53.0852051  68.9915619
  41.4473724  53.9282684  68.5878525   7.6436224   7.2218337  24.8808002
   7.2004075   7.8995352  25.3912048   7.0961499   7.1109166  24.1034946
  81.6112823  39.6767159   9.7876558  81.9767380  38.9672585   9.2591228
  81.2861099  39.2441635  10.5772038  82.2614059  51.6231728  17.4070263
  81.7998276  51.3916550  16.6010609  82.6079712  50.7920990  17.7317371
   2.9402878  28.7432938  42.4700928   2.7722425  28.0172901  41.8693352
   3.6667159  28.4402161  43.0147743  23.3673477   3.7270586  63.7948570
  22.6396332   3.1199279  63.9292297  23.5060272   3.7288344  62.8477592
  50.8966980  21.8031712  73.5034637  51.7014236  22.2318325  73.2120895
  50.3825684  21.6901093  72.7040100  10.0455065  18.5698833  75.3832626
   9.6925249  17.7116547  75.6179504  10.8965254  18.3791237  74.9887848
  67.1786652  26.0610905  28.8269234  67.5577545  25.1865959  28.9151669
  67.6887817  26.6049480  29.4271183  71.8348160  15.6886883   8.3114738
  70.9333572  15.4000978   8.4539986  72.2009125  15.0417242   7.7084446
  76.5961838  35.9691963  55.9325447  76.7207565  35.1062813  55.5374527
  76.0078049  35.8118439  56.6709747  14.2396488  25.4716396  87.3687973
  14.3217564  24.6090698  86.9620285  13.3420906  25.4955482  87.7005386
   2.9681783  49.0625839  53.6254158   3.4637148  48.7373543  52.8738174
   2.0558360  48.8635635  53.4150543  33.0496635  42.0610504  81.3349915
  33.9947548  42.1925392  81.2592087  32.9599991  41.2547150  81.8429413
  80.2626266  25.8669682  35.4366074  80.7730408  25.5257969  34.7022247
  79.3895187  26.0148830  35.0732460   7.8374910   3.5996845  81.4573593
   8.6973047   3.7663884  81.8435745   7.8593621   4.0579338  80.6172638
  31.9789257  19.5784397   3.1001887  31.6602497  18.8242588   3.5960593
  31.5899544  19.4757156   2.2316372  48.2618523   3.0202384  61.9774818
  48.1265106   2.2611194  62.5446281  48.7046700   3.6599135  62.5351181
  81.0709000  11.2179375  85.2666931  81.3898010  11.8186951  85.9402084
  81.1714630  10.3484850  85.6542130  15.2247210  52.0062675  86.1748505
  16.0246353  52.4471016  86.4612656  15.4596910  51.6027260  85.3392868
  84.2846680  58.7263031  79.2283478  84.3044815  59.5572319  79.7031021
  85.0018768  58.7934456  78.5979919  15.9148750  51.3500214  61.2968407
  15.1620712  51.5820160  61.8406219  16.4656048  50.8131828  61.8666954
  59.5801849  60.7880325  42.0188026  60.1544876  60.7200050  41.2560616
  60.1298065  61.1782646  42.6984100  76.2402802  45.9663887  66.0530319
  75.3236542  45.7468758  66.2199097  76.2455750  46.3093338  65.1593933
  33.2703590  22.2038021  69.2763214  33.1167984  21.2616253  69.3466949
  32.8719101  22.5710125  70.0653839  74.7217636   8.0714302   9.2278767
  74.8983688   7.2464590   9.6800528  74.8941040   8.7461720   9.8845739
  52.6747627  18.6725273  56.6181183  52.6231422  19.6229076  56.5164070
  51.9154930  18.4476032  57.1558418   0.9749985  65.2813110  10.7645864
   0.6596581  66.1749268  10.6295252   1.9162173  65.3787155  10.9089832
  70.5770798  59.5124817  21.0095997  69.9291840  59.3900146  20.3157234
  70.7893677  60.4452820  20.9771500  78.7983704   0.2278206  72.7516556
  78.3920288   0.9806139  73.1810989  79.5487137   0.0123271  73.3055267
  80.0148315  20.5643940  19.9679604  80.7413712  20.7544537  19.3744507
  79.8986359  21.3708820  20.4702587  64.3173752  51.2823868  59.3347893
  64.1241913  52.0342484  58.7747726  63.4601707  50.9066467  59.5354195
  40.3897705  57.4341316  80.2725525  39.5354919  57.5689011  80.6827698
  40.5809174  58.2656097  79.8385773  49.2705307  37.2170181  46.5497513
  48.7094879  36.5119400  46.2267647  50.1597328  36.8724403  46.4671936
  69.2293320  55.0732155  48.6544685  69.9274673  54.9259491  49.2925491
  69.0800095  54.2138596  48.2602119  81.8800735  40.5166473  67.0715714
  81.1459656  41.1062927  66.8994141  82.5258255  40.7356682  66.3998108
  62.1968307  63.2537689  76.1019974  62.2650681  64.1333160  75.7305603
  62.5699387  62.6811485  75.4318314  25.3144932  10.1940279  74.7233582
  25.2195435  10.2067928  75.6757584  25.0565205  11.0728207  74.4451447
  65.3099136  60.1440620  58.5475159  65.8828888  59.4081078  58.3323288
  65.8950043  60.9008064  58.5826988  47.8804474  34.2834892  38.1352501
  47.4792595  35.1505165  38.1947708  47.4619675  33.8775444  37.3760948
  28.7782841  42.9534836  67.8695374  28.0381927  43.2365036  68.4065628
  28.5907154  43.3046608  66.9990616  49.9522018  16.8648224  63.8363152
  50.3654099  17.3822823  63.1451378  49.2794495  16.3554440  63.3844643
  16.9351768  28.5903111  84.2891922  17.5008373  29.3310890  84.0712280
  17.4008827  28.1308002  84.9879074  39.1917343   3.9244752  28.0072937
  40.1279449   3.7851412  27.8647175  39.1411819   4.7656431  28.4612904
  77.1112823  29.4175949  44.7639465  76.9678497  28.9528446  43.9395256
  77.2903519  28.7258358  45.4008408  54.1921921  54.8884964  80.6557541
  54.0837669  55.1207848  81.5779877  55.0582314  55.2241936  80.4244232
  63.0661087   6.8869991  57.3092957  62.3570938   7.5298481  57.2928047
  63.1099129   6.5556664  56.4123383  61.2399178  46.6344948  63.7619438
  62.1665688  46.4221497  63.6503258  60.7805672  45.8228111  63.5465431
  46.5301971  37.3654976  24.2224846  46.1171227  36.5333252  23.9920845
  46.8128128  37.2495537  25.1296329  79.4373093  33.9247284  36.8455582
  78.9413376  34.5444870  37.3804817  78.7722549  33.3509865  36.4650841
   3.4965243  60.6185684  66.7970581   4.2448936  61.2138329  66.8398972
   3.6287582  60.1254539  65.9873810   6.4358640  40.3546371  73.1684418
   6.2965617  39.4679909  72.8357544   5.5595160  40.7381668  73.2023544
  50.0420952  60.7619591  12.3850203  49.7643089  60.2637138  11.6163731
  49.2982521  61.3308067  12.5833740  32.7408104  48.8926659  12.9961004
  33.1654663  49.3326302  13.7325315  33.0198631  49.3895454  12.2270269
  45.3573608  50.0962906  78.7014236  46.1144295  50.6753922  78.6135712
  45.2667656  49.9619484  79.6448059  57.7140694  66.6954880  43.1874046
  58.4112701  67.1545410  43.6558266  56.9066391  67.1042709  43.4991493
  35.9908714  64.0768509  48.3054161  36.3798065  63.5123177  48.9734459
  35.7307053  64.8659973  48.7805901  36.3386459  56.1183167   1.0520710
  35.5610199  55.7824059   1.4978210  36.2028999  57.0650940   1.0144135
  85.1838455  67.6884460  46.2154160  84.4822159  67.4741058  46.8302460
  85.4466553  66.8444519  45.8482208  34.2888298  33.7437706  75.6642609
  34.6781197  33.3023605  74.9093857  35.0113831  33.8392258  76.2847748
  24.5586948  41.5054626  19.9352818  24.1718826  40.9965363  20.6477451
  24.0041523  41.3174019  19.1780853  68.2966919  23.7402897  29.7908363
  68.0332870  23.8229618  30.7073593  69.2014008  23.4299679  29.8286991
  45.7801056  41.0879974  81.2777328  46.4567986  41.6874657  80.9631500
  45.0933800  41.6603165  81.6199188  47.2713737  68.5970535  64.7051239
  47.0053978  67.7886505  64.2669678  47.2120018  68.3941803  65.6386948
  31.9340973  46.4964485  86.0332260  31.7136974  46.2008400  85.1498947
  32.7361221  46.0217476  86.2515106   6.1729593  57.6564102  47.7699738
   6.0692115  57.0090637  48.4674034   6.4797778  57.1506462  47.0174484
  43.4320374  30.9374866   6.9688096  43.4100037  31.3709183   6.1156483
  43.6915817  31.6262589   7.5807419   6.4200983  13.4233561  59.3556709
   5.9501247  14.0608521  59.8932152   5.9646788  12.5960951  59.5120850
  78.0290146  63.9517326  66.6542664  77.5778885  64.5149918  66.0254211
  78.9393616  64.2465363  66.6298294  59.2603951  11.6319485  59.8938751
  58.6580963  11.9996872  60.5405846  59.7545776  10.9692688  60.3764381
  66.0998306  21.0338268  84.7695618  65.2708664  20.5553608  84.7591095
  65.8439026  21.9560184  84.7867508  44.4219131  34.9744301  65.8939362
  43.8805771  35.7343483  66.1077499  45.2248573  35.3471718  65.5298233
  26.0110645  52.6746330  32.1967735  26.4879780  53.0398827  32.9420090
  25.5065250  53.4109764  31.8511276  57.5865250  45.7647362  57.0905952
  57.5058060  46.7181740  57.0645981  58.3322830  45.6031761  57.6685028
   5.3805175  25.5281792  33.8768501   5.5258551  24.6062164  34.0892029
   4.9955873  25.5143337  33.0005684  51.8126755  71.4758987  87.4114838
  51.3417549  71.4671173  86.5781860  52.6711807  71.1061554  87.2053452
  81.5943069  34.2562675  40.2581558  81.3489304  33.4993210  39.7261276
  82.4140244  33.9974594  40.6792336  59.1937180   9.3858662   1.6267256
  58.9870834  10.3202200   1.6494149  58.4540825   8.9880762   1.1674514
  80.7094421  57.1929169  44.3124313  81.2148743  57.7956200  44.8578835
  80.5494003  57.6788788  43.5034447  57.0283890  59.0435066  83.2544174
  57.8754158  58.8807869  82.8393250  56.3852730  58.7441063  82.6117706
  11.1602812  57.1982155  70.1398087  11.4306717  56.4688988  70.6976776
  10.2750673  56.9683266  69.8573608  82.4139023  71.5082932  85.9240112
  82.8756790  72.3021622  85.6542358  82.9891129  70.7928162  85.6529846
  62.3734818   6.6113706  26.0141430  63.0844002   7.0790744  26.4524097
  61.6498604   7.2377028  25.9964294   2.6874244  19.3642235  35.5725632
   2.1660328  19.2963657  36.3724251   2.1866679  18.8771152  34.9181938
  20.2119255  17.8841934  14.7728672  20.5355415  17.2188187  15.3801394
  20.9113922  17.9788685  14.1263266  27.8057041   1.0993987  88.8704071
  27.9460373   1.0171635  89.8136826  27.1274433   1.7696129  88.7866974
  21.7657356  66.5619888  43.2580414  21.5870876  65.8757248  42.6151161
  21.9776382  67.3333588  42.7323799  54.5518532  28.1664047  13.2921000
  53.7167931  28.5145931  12.9795790  54.7920837  28.7383842  14.0210428
  65.9166565  47.6691589  59.5263252  66.7522354  47.2037468  59.4885139
  65.7078705  47.8611908  58.6121216  70.9065247  18.0515537  49.7045403
  70.7252197  17.2762814  49.1732101  71.8498306  18.0177364  49.8634834
  68.6473846  58.9451981  19.0235519  68.2422638  59.8048325  18.9089298
  68.1659622  58.5484276  19.7495289  21.2754059   7.3453207  58.7167969
  21.7502956   8.1003866  58.3695412  20.9821358   7.6249642  59.5839920
  84.0623245  47.7005005  65.0703278  84.5545044  47.5016365  65.8668442
  83.6496201  46.8708458  64.8303757  15.5207577  70.0643082  32.4657135
  15.0221167  70.8316727  32.7463188  16.2726612  70.4257507  31.9964199
  17.8605862  22.5934353  29.3431664  16.9738369  22.4412346  29.6698799
  17.7979317  23.4134636  28.8534126  62.6460457  28.0388279   1.3819319
  61.8888474  27.6416931   1.8122458  63.3294373  28.0393429   2.0521584
  47.2098045  66.2420273   4.4975119  47.7875328  65.5285797   4.2264905
  47.3239098  66.9118729   3.8233292  19.0159760  26.5912476  67.9607315
  18.7326584  27.5016422  67.8762131  18.2963066  26.0809784  67.5893402
  79.3636627  47.7485428   4.1931105  78.7126389  47.8645668   4.8851624
  79.6123199  48.6393471   3.9464011  50.3543587  15.8597174   1.6440904
  50.4759064  16.8079453   1.6922685  51.1355820  15.5407591   1.1922183
  66.4068985  31.5942726  61.1296883  65.8716202  32.3509521  61.3687363
  67.2477341  31.9689789  60.8673553  71.9402466  70.0383759  32.9492798
  72.1776962  70.5268936  32.1611137  70.9864807  69.9680023  32.9092026
  83.1869888  54.7193794  70.3981094  82.6022339  54.2374916  70.9829788
  83.7103271  54.0413666  69.9707336  37.0575218  31.9252415  86.3342743
  36.2746124  31.5343666  85.9463272  37.6706657  32.0085068  85.6039658
  39.2175522   2.2805293  15.7473993  39.4906387   1.9742960  16.6121979
  38.2745667   2.1180658  15.7225437  31.9005680  40.3790779  14.9533014
  32.1126862  39.5052643  15.2814598  32.4007149  40.4577827  14.1409645
  73.9644928  34.1888466  10.9752331  74.0410538  34.2768555  10.0251675
  73.0219269  34.1473427  11.1367407  32.3661423   0.1285925  18.3568230
  31.4264393   0.0129498  18.2160511  32.7652588  -0.1156141  17.5217781
   0.4570410  39.7686996  40.9202766   0.9469521  39.5253410  40.1347885
  -0.3843967  39.3223190  40.8256378   1.0169678  44.3957253  69.4859467
   0.1321240  44.7404823  69.3658371   1.1065345  44.2906036  70.4331360
  84.4799576   4.7381220  18.8461037  85.0592346   4.0878983  18.4487572
  84.3204193   5.3745031  18.1491127  66.6957169  14.2813454   5.0211930
  66.1702194  14.4385729   5.8056464  66.2293091  14.7425451   4.3240614
   2.8215287  23.1877117  83.6241608   3.1797123  23.9589272  83.1846619
   3.3948779  23.0542927  84.3789444  46.5383797  31.0610771  87.3090668
  46.8414078  31.8193150  87.8085480  47.2914085  30.8102036  86.7740555
  47.4152222  10.7204199  64.0061340  47.3711472  11.3967304  63.3301964
  47.8000755  11.1627245  64.7627640  59.9437752  10.3222742  10.8704052
  59.9218407   9.3653259  10.8701487  60.7334442  10.5438814  10.3768988
  13.1080456  43.8878479  28.8530560  13.7242117  44.3112297  28.2552929
  12.4209929  43.5419312  28.2833767  35.1067657   4.1189885  25.9267635
  34.8855400   3.2470963  26.2540188  34.7782173   4.7172017  26.5979042
   2.6521959  51.5507011  39.3056641   2.3077207  51.2610664  38.4608688
   2.7010753  52.5036850  39.2303848  81.7855377  34.1487465  80.4675293
  81.8221283  33.5077324  81.1774521  80.8504333  34.2744865  80.3063202
  30.8490906  43.2388420   9.9188881  30.6201553  43.2546921  10.8481722
  31.6847610  42.7732201   9.8859949  23.6915951  13.6185780  63.1982460
  23.6401443  13.1175871  62.3842468  24.2533245  14.3638983  62.9856644
  30.2374287  14.1054983  75.7279358  30.5937672  14.8698559  76.1807175
  31.0020256  13.5621958  75.5370331  24.1097698  48.8545341  87.9633636
  23.8658237  47.9864197  87.6422653  24.4727879  48.6944122  88.8344574
  78.6230621   7.7604876  83.2965317  78.5248337   8.1222343  82.4157791
  78.8879395   6.8517671  83.1540527  66.1109924  48.8582573  30.6012974
  65.4239044  49.3491364  30.1505470  65.8115616  47.9494324  30.5766125
  79.1147232   3.8784261  10.3458481  79.1684189   2.9423928  10.1530008
  78.9798050   4.2913446   9.4928961  19.3620472   3.9810452  37.1408386
  19.0686321   4.6784067  37.7272072  19.0681190   3.1737535  37.5628815
  57.1060371  25.5115681  58.5613937  58.0207977  25.7773228  58.4674644
  57.0751343  24.6267090  58.1976624  66.7449570  46.5502930  22.9375038
  66.5042267  47.1372643  23.6542645  67.6965103  46.6304626  22.8715820
  35.6906090  34.7380180  71.1248169  35.0402374  35.4396744  71.1552124
  36.4744911  35.1534348  70.7653885  80.7648087   9.7668915  20.6570034
  80.2996826   9.8161097  21.4921494  81.5411835   9.2398376  20.8459396
  15.7470016  47.5675774  69.7562637  15.2689219  46.8822289  70.2231369
  15.6970053  48.3298645  70.3330231  40.1116753  66.2548828  37.1997681
  39.5516129  66.0386505  37.9452896  39.7608681  67.0815735  36.8684807
   4.1424160  34.0163994  85.8148499   4.1555419  33.5284386  84.9914703
   4.6852174  34.7864342  85.6455994  63.8237572  45.5001068  32.1858635
  63.1234207  46.0868225  31.9003391  63.4788971  44.6211548  32.0285454
   8.3202763   2.8184533  66.0861435   9.0067873   3.1428757  65.5033188
   8.1412840   1.9311842  65.7747803  30.7271881  53.3956299  56.1880608
  30.5926857  53.0501823  57.0705605  31.3391438  54.1221619  56.3059387
  24.2919769  58.8853149  17.0346775  24.7725563  59.7122879  16.9974155
  23.4676723  59.1066399  17.4680042  70.2655716  62.5572701  25.9915867
  70.6832275  62.6250420  26.8501892  70.2067413  61.6160774  25.8274803
  37.7472115  47.6052895  49.3392830  37.5504570  46.6937866  49.1232262
  38.6812935  47.6994324  49.1525726  53.5280495  11.3395815  44.9780502
  53.0471230  10.5310488  45.1547241  53.0213318  12.0210485  45.4197159
  74.7236862  20.6520691  70.8138275  74.6349792  21.5093155  71.2303543
  75.5836639  20.6774807  70.3942719   6.7411127  12.3947096  17.3277721
   7.2939687  11.6155815  17.2682533   6.6320996  12.6808882  16.4208832
  37.9348869  70.4941788  49.6945877  38.8163338  70.1209869  49.6915512
  37.5384979  70.1788788  48.8823700  12.6631784  56.2895393  48.1991463
  12.6050224  55.4806824  47.6906166  13.2885551  56.8308868  47.7173996
  21.1007195  59.0096016  84.7512131  21.7985458  58.4195862  85.0360947
  20.8250790  59.4581413  85.5506287  12.9543743   3.7314947  15.7137346
  13.1875629   2.9217186  16.1677361  12.0060968   3.6755123  15.5959692
  54.6332893  35.8891869  23.0433292  53.9731674  36.1863365  22.4170933
  54.8175621  36.6595650  23.5807228  60.1335945   5.4010906  34.6694336
  60.7190323   5.3727617  33.9126701  59.4257622   5.9877186  34.4028397
  43.7459450  44.8292160   3.9491596  43.4091873  45.5644760   4.4612336
  44.6497459  45.0716743   3.7476888  18.8039494  50.0439034  74.7725220
  17.8838387  49.8349762  74.9337006  18.7914181  50.9427910  74.4437637
  84.6117706  30.9438477  58.2316704  83.6933136  30.9339294  58.5010490
  84.9547882  30.0976543  58.5189552  43.4129868  18.3287697  72.8041000
  42.8080635  19.0513763  72.9718552  44.2320366  18.7555447  72.5526047
  66.6679459  69.0788422  56.0648689  65.8593140  69.3826523  56.4772415
  66.5818634  68.1257858  56.0422630  81.5611267  25.8614140  39.8599777
  80.9293213  26.3659306  39.3476181  82.3938675  26.3140774  39.7262878
  49.5637016  43.0672035  27.5909424  50.0372200  42.4170113  28.1098499
  50.0119934  43.8927765  27.7744942  28.7580795  39.9482841  16.4591236
  28.4588737  40.7040443  16.9646244  29.4957561  40.2795525  15.9469490
  86.0043106  17.1746635  44.5000153  85.7987900  16.8209438  43.6346397
  85.5782394  18.0316601  44.5158348  55.9166565  66.2176132  26.3843899
  55.5480843  65.6102219  27.0258446  55.5937309  65.9003372  25.5410099
   0.5257807  28.9204636  24.4927921  -0.3919828  28.6581993  24.4209633
   0.5248716  29.8547821  24.2847500  61.7522011  62.4662666   2.0848482
  61.3296967  62.8790779   2.8380466  62.6763878  62.4127007   2.3282447
  44.0313530  57.4073830   9.2395096  44.3960991  58.2899246   9.3051214
  43.7327042  57.3384514   8.3327074  25.2307854  43.7131042  18.2492199
  24.9593697  43.1415100  18.9674454  24.6145668  44.4449387  18.2795734
  34.8275871  17.4885502  70.6117020  35.1974716  17.1736259  69.7869415
  35.4194107  17.1509323  71.2840042   0.3826996  53.0847740  16.6545887
   0.3947331  52.1310501  16.5739784   0.8047675  53.2593842  17.4957809
  50.5290260   3.5518005  46.8846436  51.1541138   3.9520464  47.4890442
  50.8041687   3.8555412  46.0196190  17.4869690  68.6934509  66.5684967
  17.3258705  68.1393585  67.3322067  18.4376087  68.8035583  66.5487213
  33.1554337  46.1167717  13.2684717  34.0903893  46.0865364  13.4713831
  32.9952927  47.0249100  13.0118132  19.3998280  34.8706512  19.7978115
  20.0174732  34.5186539  20.4387817  19.0128517  35.6315346  20.2308750
  30.5275574  67.5595703  89.0529022  29.8198929  67.0542068  88.6528397
  30.1308193  67.9538651  89.8296661  30.6889229   6.9144325  64.1027832
  30.7145119   7.3800769  63.2668686  30.1791515   7.4841437  64.6787949
  68.2283096  23.8787994  62.7229691  68.4446335  23.8047848  63.6524658
  67.3156815  23.5957699  62.6661758  50.1953316  32.0549736  10.2883940
  49.6159096  32.6280518   9.7863188  50.1451569  32.3888855  11.1840601
  61.5372314   0.2113601  53.4375114  61.2972946   0.7658592  52.6950874
  62.2171707  -0.3680963  53.0937843  73.2375412  60.9668579  38.7621422
  73.9095001  61.6282272  38.5969315  72.6912155  61.3471184  39.4500160
  57.6497803   3.9477749  39.8560677  57.1086655   3.5571394  39.1698990
  58.5493355   3.8089972  39.5597992  57.2519455  45.0392799   2.1298378
  57.5852165  44.5903702   1.3528928  57.6077957  45.9255409   2.0654895
   1.5087750   8.7544775  19.1137390   1.1887063   8.0479822  18.5528011
   0.7155616   9.1827946  19.4355927  45.2259789  21.5210266   0.7147820
  45.2592583  21.4751682  -0.2407395  44.5191002  22.1391621   0.9004287
   2.3973246  64.2745743  55.2788010   2.6023984  64.6021347  54.4030838
   2.9423609  63.4937477  55.3761635  20.3292198  71.5946121  77.3784256
  20.7121620  71.7656326  78.2388611  19.8757915  70.7577820  77.4801102
  12.7618198  61.9397964  38.7023582  12.1586390  62.6816673  38.6573143
  13.3466082  62.0608063  37.9542885  39.6470566  54.8118477  11.9291544
  39.4553719  55.6738243  11.5597172  40.2453156  54.4091568  11.2997427
  82.1576004  25.8876495  46.3679543  81.9109039  26.6494007  45.8434486
  82.9850769  25.5928326  45.9876938  71.9590836  54.2697067  65.1762619
  71.3550110  54.0621300  65.8891678  71.7033463  55.1477432  64.8936310
  32.0502167  18.8414955  76.0608902  31.7424870  19.6968403  76.3607635
  32.9281578  18.7587986  76.4331970  44.7494888  16.3086700  66.5280991
  45.2854233  16.4141788  67.3141479  44.9019966  17.1086330  66.0250778
  15.3703413  42.6072159  30.0194111  15.5281191  43.1043510  30.8220291
  14.7312508  43.1302490  29.5354385  59.1592789   1.2011807  40.8556671
  59.1451187   1.8448151  40.1473122  60.0399513   1.2700831  41.2243195
  44.8184738  36.8165131  34.6173363  45.3280945  37.2047462  35.3285255
  44.2579613  37.5281677  34.3081360  72.7558441  67.3338013  33.3432083
  72.3322678  68.0450134  33.8238258  72.0685272  66.6768494  33.2326050
  54.7846642  64.1672821  75.6731110  54.1481361  64.8651581  75.8281403
  55.4329720  64.5599594  75.0885239   9.0455971  48.9093819  82.4839783
   9.5540695  48.0987434  82.4604721   9.6824217  49.5972595  82.2903061
  48.0843353  44.5748825  72.4361572  47.9485168  44.0190659  71.6687927
  48.6533508  44.0592842  73.0076675  86.0548859   0.6347276  58.1551819
  85.7406921   0.4021765  59.0289307  86.9868011   0.4166573  58.1698647
  82.0303650  64.6658249  14.2094717  81.8693695  65.3779068  13.5904007
  82.5277786  64.0200653  13.7076635  58.2952194  64.5371170  24.8644218
  58.7679634  65.3278809  25.1241074  58.9631958  63.8516159  24.8529644
   2.2769306  57.2630119  66.6434174   1.5210234  57.6358604  66.1897430
   3.0184629  57.7906761  66.3468781  81.7498093   2.6302578  79.3146286
  82.2819901   2.5274889  78.5256729  80.9094162   2.9590876  78.9954987
  55.1577339  47.4877357  88.8919601  54.4257851  47.9858704  89.2557526
  55.0561867  46.6098022  89.2595901  -0.1630592   0.3633227  77.4253464
   0.4961999   0.9811304  77.7414474   0.2715231  -0.4888623  77.4592667
  58.1109695  54.8111267  16.1869431  57.1954079  55.0899773  16.2018032
  58.6076202  55.6102638  16.3628578  78.4337082  70.7085114  -0.2309936
  78.8454208  71.5286102   0.0413448  78.3701019  70.1937332   0.5734888
  23.0346279  60.9656029  41.4600410  22.2065601  61.3707924  41.7176361
  23.6981449  61.6232719  41.6684914  64.4651413  25.0471344  49.1087189
  64.1430969  24.1664314  48.9166908  64.7876663  24.9933567  50.0083427
  66.8146362  29.1693439  84.7856750  66.7402115  28.4065266  85.3590851
  66.0771179  29.7273617  85.0324707  80.5831375  14.2716589  80.0348129
  80.8335953  14.0190849  80.9234695  79.7785416  13.7819405  79.8644104
  41.0262909  67.1494446  61.1838684  41.8996582  67.4111557  61.4753685
  41.1272049  66.9799347  60.2472191  78.0480347   5.7750707  79.8970413
  78.4876251   6.3621645  80.5121078  78.6240997   5.7537899  79.1328888
   5.6004796  64.4563141  56.8387413   6.5193977  64.1923752  56.8852081
   5.6170802  65.4049835  56.9651566  46.3622093  27.2056046  26.4395409
  46.1870728  26.3195286  26.1226387  46.5722313  27.0913429  27.3663979
  30.9243431  46.7613258   6.7904639  31.0514450  47.5372200   6.2445059
  30.0483971  46.4494095   6.5631819  49.4020729  58.9571381  14.4931793
  50.1397591  59.1176796  13.9047232  48.6275215  59.1447754  13.9629974
   9.7432194  23.6676426   5.5104084  10.3354101  23.4480724   6.2296653
  10.1527119  24.4206772   5.0843940  75.8706512  35.2030334  14.6364298
  76.3866501  35.3231010  13.8392086  75.2910538  34.4675331  14.4380894
  14.2458439  14.1832047  13.5421019  13.8238029  14.1988554  14.4010935
  15.1022158  13.7870817  13.7031775  37.5297318  60.1740570  47.8965492
  37.4047623  59.4766502  47.2529373  38.4486046  60.1002235  48.1543465
  20.0369473  33.1080055  15.5840168  20.5162315  32.7451363  14.8391371
  19.9305687  32.3692055  16.1832561  51.5873222  51.7997017  78.5672302
  52.1661720  51.7877235  79.3294754  52.1707993  51.6611328  77.8211823
  45.1554337  65.0554047  86.6336594  44.5910339  65.4906158  85.9946899
  45.7976761  64.5833511  86.1036377  85.9890594  64.0780869  48.9612885
  85.1222229  63.7014008  48.8098640  85.8207169  64.8669586  49.4766273
   0.4854078  56.7926521  37.3910141   0.9574682  57.6243057  37.4327126
   0.7190850  56.3436089  38.2034111  45.5663033  34.7362366   5.7350116
  44.7933617  35.1548500   6.1138945  46.1803780  34.6613121   6.4654436
  43.5937195  26.7281017  78.3005066  43.1746635  26.3114681  79.0535278
  43.7540932  27.6283703  78.5833969  37.3932533  70.6377869  24.8114777
  37.3136482  70.2579575  25.6864796  37.1339684  69.9317703  24.2194080
  31.6624489  58.9461899  53.1264191  30.9221745  59.4968643  52.8715057
  31.6002674  58.8876038  54.0797997  13.4645376   1.4535378   1.5913818
  12.9270000   1.7845138   2.3109236  12.8553286   1.3649156   0.8584135
  19.4577904  66.2438583  11.3721104  20.2292576  65.8878021  11.8129005
  18.7428951  65.6641235  11.6349163  13.6458521  58.5234222  16.9014206
  13.5007591  58.6325226  17.8412495  14.5879059  58.3745232  16.8202038
  34.1194801  45.5658150  59.1596947  33.5891037  45.9407234  58.4565735
  34.4136162  46.3222198  59.6672058  32.0092087  57.2557678  89.0638428
  31.6105042  57.6532784  89.8379517  31.3818951  57.4206734  88.3599091
  18.4680843  12.3819084  61.4833221  18.8768559  12.2454443  60.6286201
  19.1999359  12.3904400  62.1002121  76.3311920  32.3320160  32.6736450
  75.9532547  31.9728832  33.4764023  76.7813416  31.5908203  32.2683907
  26.0564194  56.8837509  84.1221008  25.7269669  56.0199661  83.8739624
  25.3101616  57.4698792  83.9964752   9.1324902  19.6578617  77.6175690
   8.5783520  20.4317703  77.5164413   9.4300718  19.4587040  76.7298660
  32.1343384  65.2685318  70.6138611  32.5485649  66.1233749  70.7317123
  32.8565254  64.6810989  70.3911438   0.5941715  48.4564209  16.1729546
   0.8387562  48.5911827  17.0885143   1.1183205  47.7060089  15.8929825
  39.2477074  71.0774612  78.5711746  38.3658409  71.1697159  78.2105865
  39.3488998  70.1371613  78.7189178  83.3629608  44.5010643  39.2349319
  84.2731247  44.2103157  39.2923546  83.3929749  45.2714996  38.6676903
  33.1814461  34.9804153   7.9329367  32.6220627  35.7570610   7.9446812
  33.9761696  35.2644577   7.4813137  47.2689438  38.9256935  45.5033798
  46.7622986  38.7550049  46.2973633  48.1506348  38.6160545  45.7106819
  19.2944183  49.2073936  77.2264099  20.2310677  49.3958588  77.2847214
  19.0494270  49.4819031  76.3427505  80.3548965  37.1527443  42.2315826
  79.9845200  36.4627838  41.6811180  80.5964355  37.8456917  41.6169968
  85.4213715  23.3951683  42.4684143  85.8548203  23.0029259  43.2263756
  85.5218430  22.7457561  41.7724228  60.1720085  22.4171753   0.1525110
  59.5074539  22.6417789  -0.4987579  59.7113152  22.4626846   0.9903192
  19.6133919   2.1828401  59.3521690  20.5687943   2.2149076  59.3030701
  19.3813953   2.8817532  59.9636650  20.4380722  54.4936676  47.5803986
  20.7386723  53.7586441  47.0459671  19.5666809  54.2325974  47.8783073
   9.7154016  40.6509094  60.0138397  10.3956299  40.1075783  60.4117241
   9.3208036  40.0898933  59.3461647  41.8778152  34.0635796  18.4830246
  41.2950554  34.2031975  19.2294350  41.6011009  34.7145004  17.8380737
  61.8679390  44.5578957  18.3083820  62.1302681  45.0995941  17.5640869
  62.6914978  44.2222328  18.6623783  47.7261086  65.6723404  60.0380859
  48.3606300  65.7973709  59.3324089  46.8737488  65.7742615  59.6146088
  68.6663895  22.3652821  26.0005512  68.3172150  21.6915722  25.4170914
  69.5701904  22.0956726  26.1639118  23.4580612  54.7237625   9.8318682
  23.2206974  55.4802628  10.3681459  22.8606110  54.7626762   9.0850286
   2.7552738  61.1410789  79.5614471   3.6130569  61.5543823  79.6595306
   2.3062446  61.6740227  78.9052658  73.0984650  64.5798798  69.3307953
  73.5755310  64.8950043  70.0984802  72.3807068  65.2037735  69.2220917
  59.8919907  30.7568893  66.8046036  59.7578506  30.6858196  67.7496948
  59.1565208  31.2869835  66.4974976  25.6244583   3.6367178  11.4617453
  26.1153698   2.8882113  11.8008261  26.1954021   4.3887229  11.6190443
  31.9232674  67.5537186  33.3551979  30.9827232  67.4304047  33.2271271
  32.1835098  66.8326416  33.9283943  70.4848404  46.7991943  16.6340389
  70.2660370  47.7297363  16.6835690  70.9311905  46.6137962  17.4602547
  56.4438362  49.1688728  44.5504608  56.2323036  49.7416992  45.2875862
  57.0573578  49.6774979  44.0202484  56.8949509  35.8574028  85.3863068
  57.6186371  35.6059341  85.9601288  56.3145332  35.0962563  85.3852158
  27.6284389  70.3384933  59.9787025  28.2644901  70.6008911  60.6441498
  27.0359383  71.0867004  59.9054756  38.0445290  19.3871822  81.5221405
  38.1956749  19.7720203  80.6588364  38.9167137  19.1422234  81.8312073
  58.5627289   3.3662870  81.1873093  57.9372368   2.8970098  81.7393723
  58.3855324   3.0491824  80.3017120  62.0220299   9.5086298  49.6432648
  62.8116570  10.0022249  49.4217148  62.1636734   8.6442747  49.2571831
  12.6339922   4.0622301  83.9090347  13.4582348   3.5810843  83.8358536
  12.3135595   3.8562300  84.7871704  56.0933571  16.3609543  47.1075516
  56.8531456  16.8555698  47.4146461  55.3447227  16.9224033  47.3089256
  78.1680832  18.8225517  42.8750801  77.4596024  18.4159069  42.3761444
  78.0771942  19.7592430  42.7002029  50.8201370   8.0868568  54.7406044
  49.9437332   7.7110348  54.6574745  51.0951996   8.2548084  53.8392906
  14.8083630  42.3079300  23.2336178  14.8051853  41.9022026  22.3666630
  15.3155727  43.1117134  23.1200371  28.9311047  35.8909340  71.6208572
  28.4823933  35.6746407  72.4382324  28.4225368  35.4454002  70.9432907
  43.2670250  54.7866936  48.4023094  42.4793739  55.3303185  48.3847351
  43.1418076  54.1604843  47.6892815  52.9917984  53.3888206  46.2423630
  52.2562943  53.9526863  46.4817657  53.6173973  53.4939232  46.9591675
  41.6642532  61.3907700  56.9635429  41.6531067  60.7585258  57.6821365
  40.7985344  61.3130035  56.5626488  51.4693642   8.2762756   5.0786657
  50.8663788   8.9608116   4.7887459  51.3314781   8.2203760   6.0242314
  66.1845474  40.5068207  51.2028427  65.2381363  40.4589310  51.3379631
  66.5594635  40.3009605  52.0591660   6.0635500  43.1260567  77.9068375
   5.1599698  43.1496010  77.5918427   6.4526100  42.3728828  77.4623184
   8.7686729  69.8104782  39.9951019   8.3499098  69.4699478  39.2045937
   8.3734093  70.6728210  40.1230278  57.3394508  39.8769341  84.5589066
  57.5313721  40.3255081  83.7353897  56.5794830  39.3293343  84.3619080
  72.5939865   3.2735133  84.7331161  72.9786148   2.4133346  84.5646286
  72.4566879   3.2931364  85.6802139  12.9130011  67.4652481  27.3467445
  13.2330132  66.8197632  26.7165279  12.9964123  68.3042374  26.8935642
  28.3829384  38.6885300  71.5567703  28.8253212  37.8675346  71.7723999
  27.4988670  38.4244843  71.3019562  61.6192131   3.9817636  36.9684906
  60.6867409   3.9118011  36.7639656  62.0584488   3.8685565  36.1255875
   4.4549589   7.5077291   4.1291552   4.8799119   6.7161708   3.7988799
   5.0248566   8.2221270   3.8444026  15.3863792  34.8321419  53.9594498
  14.6237946  34.8356094  53.3809319  15.0438194  34.5440826  54.8055649
  82.5844879  36.3268471  81.7762146  82.3402939  36.9378510  81.0810394
  82.1190338  35.5190048  81.5594788  25.5964413  48.6700706  76.8145828
  24.6947956  48.9755745  76.7149048  25.7259140  48.0638046  76.0852585
   3.3607001  58.2381897  18.9722557   2.4091964  58.3418121  18.9838867
   3.5754395  57.8999672  19.8415794  61.2941284  15.4485464  52.5844803
  60.4859352  15.0362711  52.8895760  61.9495049  15.2031794  53.2375565
  74.8852463   2.8783109  36.1641083  75.2019882   2.4169514  36.9406738
  74.4057312   2.2136638  35.6695976  81.4390182  46.7048187  17.6208248
  81.3662338  45.8205872  17.2615643  80.5431061  47.0416908  17.6113644
  52.7474556  29.7391567  33.7051353  51.8821564  29.5751667  34.0800934
  53.1987572  28.8972950  33.7669907  76.0621490  37.1973648  87.8810959
  76.4825592  36.5551910  88.4530182  75.4695892  37.6798439  88.4575577
  71.5128555  15.8626852  48.0461121  71.4437943  16.4547005  47.2971268
  70.9329224  15.1328335  47.8287888  49.6462288  52.6708527  16.4771919
  49.9285545  52.5835304  17.3876305  48.8560562  52.1337624  16.4188957
   9.5614595  16.5610657   5.9343801   9.9933882  17.1707706   5.3361092
   9.7459717  16.9100056   6.8064051  13.0058079   8.5144720  26.0926380
  13.9127016   8.6277199  25.8081226  12.6354609   7.8896160  25.4692345
  73.9103546   4.1656756  17.2121334  74.8604279   4.2323880  17.3077698
  73.6826935   3.3449993  17.6490440  51.9078751  43.3355026  37.1448174
  52.3669510  43.7990761  36.4444008  51.2373734  42.8228302  36.6933517
  21.3690529   3.0805271  82.3471756  20.8671322   3.0485549  81.5327530
  21.6458931   2.1760054  82.4935684  29.1392746  62.0182571  49.6111603
  29.6098938  61.1980247  49.4629250  28.2324867  61.7505074  49.7604218
  35.4394913  49.6798477  40.6179276  36.3817215  49.5643158  40.7407570
  35.0419197  49.1791916  41.3303261  55.1089363  39.7356529  66.0856323
  54.7276192  40.3391762  65.4479904  56.0001793  39.5857239  65.7702942
  28.0766315  60.7622910   7.6709609  28.4294739  61.2077179   6.9006839
  27.4095516  60.1715012   7.3213873  11.8431387  56.0867805  38.4686317
  10.9865370  55.6798210  38.5984383  11.9053974  56.7410507  39.1645393
  12.2044373  70.1078110  32.4088249  12.8067417  70.7987137  32.6847267
  12.7268438  69.5511703  31.8313560  16.1556015  46.7137794  64.7468643
  15.6426744  47.2807274  65.3228073  15.8343792  46.9123039  63.8672981
  34.9728355  63.2544403  52.0395584  34.9236908  63.8828659  51.3192139
  34.5484772  63.6981812  52.7738914  59.1531563  13.6853294  63.0844269
  58.7904778  12.8723545  62.7326241  59.3608627  13.4801912  63.9960213
  32.9310532  14.2831593   8.4632320  33.8418541  14.0096006   8.3544483
  32.9708672  15.0037346   9.0920544  76.3997421  65.6681900  70.9007950
  76.9936523  65.0044861  71.2515182  76.9700928  66.2737808  70.4273148
  55.8756714   8.9450655  25.6532917  55.6441498   8.0525236  25.9101925
  56.5103989   8.8335667  24.9455318  18.5465031   5.4421706  29.5470734
  17.8415394   4.7947097  29.5398331  19.3401623   4.9303703  29.7032700
  43.0982132  46.3633232  29.6510468  43.8022041  46.4657021  30.2914772
  43.2552605  47.0562859  29.0096607  62.9165802  18.7775574  13.5232553
  62.8937874  17.8915348  13.1617651  62.1145821  19.1885757  13.2006178
  57.5713844  56.8622704  38.2723732  57.6692085  57.7987823  38.1003036
  57.2071571  56.8179512  39.1564560  53.9355431  14.9251909  10.3585863
  53.9538269  14.3461571   9.5966034  54.5800400  14.5509968  10.9592781
  39.5273781  44.6111603  33.4649124  39.6625290  45.5086823  33.1609116
  38.5782776  44.5307198  33.5596237  19.7224770  37.1483421  14.9083614
  20.6265411  36.8349037  14.8826942  19.7326775  37.9517899  14.3881721
  29.8449402  37.7175980  14.2794266  29.7698860  38.4664459  13.6879654
  29.0377274  37.2218933  14.1418667  66.1416321  69.4137115  84.0726089
  66.7434998  68.6990204  83.8647766  65.6239243  69.0848083  84.8074799
  31.3414402  34.2666206  13.9616489  31.1070843  35.0782127  13.5115137
  31.0107040  33.5724564  13.3915768  80.6741104  48.2948265  51.3830185
  80.9156265  47.3689728  51.4093971  79.9118423  48.3599892  51.9582863
  72.0469437  37.3955307  77.7984238  71.1304245  37.6715240  77.7912903
  72.2264023  37.1844864  78.7146606  53.1757278  30.9114475  58.7868423
  53.7395287  30.1396332  58.8384628  52.3720055  30.5938511  58.3752670
  26.6371861  46.0617752  61.5290871  27.5762806  46.2091904  61.4168167
  26.4876328  46.1742287  62.4678230  46.6440239   8.9156246  28.6761055
  45.7418365   8.9676418  28.3605385  46.9207687   9.8279305  28.7617912
  55.0362892  15.1291018  53.4626770  54.5995064  15.1925211  52.6133041
  55.0506020  16.0276337  53.7923241  47.3240242  31.5623283  20.7996864
  47.0679169  32.4028816  21.1793022  48.0724564  31.2801533  21.3254795
  79.4051590  46.7033539  32.3895912  78.9392548  46.0625496  31.8524437
  78.7122040  47.2051163  32.8188629  65.7341537  71.2174530  72.1197586
  65.1942978  71.4869766  72.8628235  66.5922012  71.6040955  72.2943726
  48.9375648   4.5287089   7.8742361  48.5861397   5.3832998   7.6244206
  48.5084534   4.3270535   8.7057590  84.7624435   3.4051201  33.5767441
  84.0091553   3.7252307  34.0730476  85.1006546   4.1801662  33.1282463
  52.3032227  51.6973991  85.6019135  52.2098503  51.3948708  86.5052338
  51.4187088  51.6464081  85.2396088  60.4435387  44.5097847  28.0384121
  59.7120972  44.5292320  28.6555405  61.0386429  45.1913376  28.3507767
  55.9874878  69.4410019  61.3333893  56.3114624  68.9948654  60.5509338
  55.0964127  69.1100845  61.4461212  73.7494354   2.7799134  80.2157974
  74.4375610   3.3013976  79.8025436  73.0983734   3.4225810  80.4974365
  15.8816166  39.1780968  80.6660004  16.2701397  39.4011383  81.5118942
  15.3642197  39.9479408  80.4296265  49.4831276   8.7520275  28.5834255
  48.5261116   8.7481890  28.5649776  49.7394867   8.9204674  27.6767063
  10.6980648  32.7336884  60.6753807  11.2655993  33.0819740  59.9877510
  10.9697866  31.8208256  60.7706833  34.3487587  10.7173243  84.9278717
  34.9459229  10.8559685  84.1927490  33.9275780   9.8786774  84.7394333
  54.3039551  25.4417343   0.4996700  54.5140991  24.5495625   0.2238068
  54.5871315  25.4829712   1.4130929  79.2208405   0.1361220  57.5995598
  78.9815292  -0.0952884  56.7021141  79.8861694   0.8173317  57.5019493
  23.1866646   6.7363348   8.0649309  23.7261162   7.4354091   8.4344168
  22.3319149   7.1430769   7.9228196  85.2788010   9.0068064  58.1197281
  85.6317062   9.6898718  58.6899147  85.9842072   8.3633480  58.0518990
  84.3187790  48.6538467  47.1040382  84.1443634  48.0845985  47.8535500
  84.3690109  49.5335503  47.4779739  22.6865025  65.7090683  19.6742821
  23.3300419  65.0401688  19.9080830  22.4047966  65.4719620  18.7907352
  34.4856071  21.5957069  77.1827927  34.7345314  22.2961979  76.5798187
  34.4322929  22.0231647  78.0375824  59.6617012  41.0526390  86.9924698
  59.0620842  40.7593536  86.3064117  59.7400932  41.9966087  86.8545837
  42.5327454  28.1810474  87.8689423  42.3289337  28.9580193  87.3483582
  43.4149094  28.3417873  88.2038651   3.0159941  29.8121319  58.7267189
   2.6277215  29.4406662  59.5188599   3.5272071  30.5590649  59.0381393
   4.9775453   3.3816118  52.7327309   4.6308775   2.5015783  52.5857811
   4.7718053   3.8575289  51.9281158  67.2590103  57.7346878  31.6045418
  66.4307327  57.9174194  32.0481529  67.9285965  57.9100418  32.2657089
  31.4929790  17.1640625   4.0531988  31.4870491  16.5893688   4.8186545
  31.9599075  16.6652679   3.3828175  70.2891541  40.2663116  40.7794304
  70.5222397  39.5496788  40.1892281  70.8987732  40.9693298  40.5550117
  69.6772079  59.5005417  70.7602310  69.7753372  58.6833076  70.2716293
  69.1963577  60.0778885  70.1672058   7.1708269  61.4921379  87.5997925
   7.6947250  61.5754700  86.8030396   7.7337666  61.8355789  88.2936096
  69.8811951  41.8125572  83.5425873  70.6927261  41.7962341  83.0352478
  69.2735596  42.3216820  83.0061188  37.4771652  45.7339478  18.1565857
  37.7164879  45.2268639  17.3808136  38.2195435  45.6267052  18.7512321
  51.0873032  33.8612480  60.0841064  51.6818161  34.2686729  60.7140236
  50.8779106  34.5608482  59.4652824  20.0952072  53.8536797  19.5111237
  19.6131306  53.2292290  18.9689999  20.9449215  53.4379272  19.6573067
  50.4634132  46.9225693  17.4733601  50.1297722  47.7132263  17.8973598
  51.1675949  46.6217537  18.0477066  62.6147728  24.2893353  10.1825094
  61.7254219  24.3164577   9.8295956  62.6474762  23.4766979  10.6872683
  64.7393265   3.8503344  23.4535065  63.8814011   3.5977528  23.7946739
  64.7262115   4.8074379  23.4571171  47.1325569  45.0627060  13.9098158
  46.4563980  45.2735596  14.5536947  47.0006180  45.6988678  13.2068748
  83.7775650  66.9694366  33.7744141  83.4359207  66.1474228  33.4225388
  83.1200027  67.2489853  34.4113503  72.9305420  48.7276611  28.8138885
  73.0835266  47.8415909  29.1420746  72.5168228  49.1859016  29.5453815
  67.1675034  54.5080299  85.2879639  66.4847183  53.8377991  85.3167572
  67.6372147  54.4071465  86.1158676  33.4755402  51.7706337  17.1647873
  33.9643898  52.5897636  17.0855312  32.9260101  51.8935966  17.9388218
  86.8600540  22.3267879  12.4514618  86.9530487  21.4954910  12.9167881
  86.5704346  22.0787277  11.5735006  43.2441978  47.6166840  35.6686554
  42.4165306  47.6815529  35.1922150  43.7443008  46.9549065  35.1909752
  47.7190475  57.1910667  55.5732040  47.5495224  58.0907021  55.2936516
  47.1827965  57.0790901  56.3581429  78.3769760   7.9034386  24.0341949
  78.8235855   7.5976224  24.8236561  77.5139542   8.1824551  24.3400974
  38.2704926  19.1564217  15.5179224  38.5775185  18.2900124  15.7849483
  37.6709862  19.4233494  16.2147522  31.3514519  62.0009804  21.3493290
  31.5793839  62.0586014  22.2772064  31.9506016  62.6097298  20.9172649
  58.9797325  56.3323898  24.6401005  59.4548149  56.3983688  25.4684582
  58.7031250  55.4171448  24.5948753  67.0932388  18.2275085  18.5148754
  67.1909409  19.1597805  18.3210926  67.5413208  18.1087055  19.3523350
  70.0935135  46.4241562  20.3501339  70.6122437  45.6944885  20.6888638
  69.1955872  46.0929146  20.3348656   3.7030025  58.8633080  70.7353516
   3.2583201  58.0547142  70.4810562   3.3125899  59.0966721  71.5775757
  55.5075607  22.9720535  48.5088005  55.5280647  22.0786743  48.1657448
  56.3962440  23.1259594  48.8294029  41.7552490   9.5912523  12.8491182
  41.0037003   9.1284065  13.2195005  42.2648277   8.9091511  12.4117403
  72.1779251  36.3380661  61.3814621  72.2360687  36.4987717  62.3232803
  71.2514038  36.4602013  61.1743965  75.1527328  56.2560081  21.6776810
  75.0425034  56.8012962  22.4566174  74.3190613  55.7941589  21.5886974
  18.7826595  54.1449165   4.9734364  19.3276596  54.1031723   5.7592258
  19.0654888  53.3980026   4.4458389  31.6665459   3.2699585  71.7252960
  31.1427574   2.8392694  72.4008636  32.5479736   2.9159708  71.8436661
  43.3633194  53.4710922   7.2391357  43.5596428  53.1462364   8.1178617
  42.5919380  52.9740524   6.9668231   9.9113102  68.5862198  76.6399536
   9.7214766  67.6544800  76.7497559  10.1691284  68.6715775  75.7220840
  54.7075539  39.3773193  55.6111412  55.3384514  38.6670837  55.4938049
  55.0351830  40.0832176  55.0538292   4.5442147  42.2015457  39.8969078
   4.5814915  42.3826752  38.9577408   4.8534040  41.2994118  39.9793015
  86.3013229  63.1737289  75.2665787  85.8651047  63.1775665  76.1185989
  87.1167679  63.6531944  75.4128342  83.4256973  67.2410355  17.2780609
  83.6229935  66.7576141  18.0803127  82.6211243  66.8404541  16.9487686
  50.2241135  27.3462830  61.1197395  50.0002403  27.5954189  60.2230568
  51.1048317  27.6967545  61.2529068  11.0560503  13.6288128   5.2896323
  11.5575924  12.9709187   4.8081117  11.5894833  14.4219027   5.2377782
  24.7004585  66.1835022  67.0195847  24.9930935  65.6277084  67.7418671
  25.0044670  65.7324677  66.2319412  25.9204712  60.9826317  21.7805538
  25.1147957  61.4766197  21.9325199  25.6667690  60.2936974  21.1663589
  31.2604370  40.9030495   0.7519193  30.9508057  41.2729340  -0.0748484
  30.5182743  40.3953247   1.0800130   9.9702730   4.8665638  62.4627266
   9.6111879   3.9841123  62.3701591  10.1850443   4.9414363  63.3925095
  34.8735466  55.5348701  71.1022491  34.9340820  54.5800438  71.1319046
  35.4190331  55.8321762  71.8304520  24.9552612  38.4158134  66.7582703
  25.3933334  38.1570129  67.5690460  24.3982906  39.1519737  67.0114288
  38.8034172  32.6718559  14.9147053  38.5874672  31.9522591  14.3215990
  38.5089760  32.3704262  15.7741690  32.4562798  43.8171806  42.3293533
  32.4502220  44.7671814  42.2123146  32.9908981  43.4901314  41.6058502
  80.3284531  62.5580864  28.3496437  79.9885483  62.8809776  27.5151138
  81.2573853  62.7885284  28.3351669  11.3506718  58.8105583  44.6539383
  12.0854349  58.4134560  44.1863213  11.0752001  59.5368423  44.0946007
  63.0906677   5.4217052   2.8479095  62.3519058   5.8192191   2.3869870
  63.8480225   5.6097002   2.2935605  76.3157730  18.5180187  52.2928658
  76.6461639  19.3300762  51.9086266  76.9031296  17.8393421  51.9602432
   4.6397204  61.4467888  86.2362976   5.4973521  61.2613297  86.6187973
   4.3765988  62.2785645  86.6301880  81.8770905  61.5073776  48.7517166
  81.3706055  60.7069473  48.8896065  81.6793060  61.7637711  47.8509521
  82.2156219  28.7956848   3.9086649  82.8521271  29.4624729   3.6508012
  82.6928940  27.9689674   3.8380861  34.7887535   6.2158637  86.0162201
  35.4698677   5.8108668  85.4792862  34.1144447   5.5412731  86.0966568
  42.0018883   0.3438508  15.7730675  41.3071785  -0.0206881  16.3214493
  42.6332321   0.7053606  16.3951206  66.2434082  42.9497261   2.8556447
  65.7965088  43.3436775   2.1064320  66.7567368  43.6648865   3.2314999
  56.6578522  36.8400040  16.3466206  56.2987099  37.5524101  15.8177280
  56.2888756  36.9796448  17.2187386  29.3104477  44.4307671  64.2865295
  30.1563492  44.1546326  63.9337807  28.6801109  44.2031326  63.6030922
  63.6387024   8.0653868  27.7281361  63.2336121   8.6591873  28.3602238
  64.4114304   7.7258525  28.1796246  53.7167397  70.4665451  60.0275993
  53.6085548  69.7486267  60.6514015  54.3728600  71.0360718  60.4293175
  59.3943367  63.7362823  43.9957962  58.5095367  63.8296242  44.3488503
  59.6376839  64.6207581  43.7224579  16.7073898  54.6799316  64.6731873
  16.3951874  54.3191032  63.8433876  17.6005287  54.3463783  64.7584763
  36.1023445  58.3252487   7.3472872  36.0830841  59.2494507   7.5957155
  36.9466286  58.0084839   7.6683435  72.2239609   5.6710849  35.5510063
  71.9212570   5.3536859  36.4018097  71.7818069   6.5125074  35.4381371
  60.7788887  61.2778931  54.9036522  61.5167160  61.8513641  55.1109581
  60.4015465  61.6515007  54.1072464  19.0272102  65.9463196  56.2046394
  19.4223518  66.7244110  56.5979080  18.6867523  66.2498932  55.3631172
  13.6983271  69.0044327  16.8345623  13.4530554  69.5552444  16.0911388
  14.6507854  69.0835953  16.8873615  33.5523682  53.9928780  74.7390137
  32.6892853  53.6616020  74.9871597  33.8219414  53.4356880  74.0088806
  14.0363111  61.6577644  42.7777367  13.1923923  62.0282326  42.5193100
  14.6847744  62.2417450  42.3844261  45.7715302  48.1543236  66.2801590
  45.6298828  48.6722183  67.0725937  45.7299843  48.7914619  65.5670242
  16.5122681  10.3681793  61.5639305  17.3907566  10.7359552  61.4678574
  16.0796547  10.5608768  60.7321014  61.3412590  67.6313629  45.9421730
  61.8746071  67.3538971  45.1973381  60.4952278  67.8618317  45.5583115
  60.1617355  68.1185226  82.3372116  60.2932053  67.1708603  82.3074493
  60.7458496  68.4626999  81.6615067  63.2358093  66.6904526  24.7695637
  62.6177216  65.9789886  24.9369431  63.4427948  67.0370560  25.6374664
  39.3954124  60.2060432  26.7863846  39.5553246  59.2623100  26.7915859
  40.1110458  60.5673523  26.2633572  66.6447449  66.7965698  20.4921665
  66.4448395  67.3962784  19.7734032  67.4822693  67.1064682  20.8367691
  33.4458351  40.8284035  88.2010803  32.7622299  40.5806389  88.8235931
  33.1875534  41.6978760  87.8952255  50.6702271  19.0262680  27.2640495
  50.2414513  18.1778660  27.1518097  50.5168839  19.4833889  26.4371529
  13.8720284  69.0883865  54.3280640  14.1678162  69.8173752  54.8733406
  13.2695799  68.5992050  54.8884087  14.9506779  20.7966881   1.9964569
  15.6056414  20.1833439   1.6631950  14.6259022  21.2472496   1.2168756
  69.3574219  12.7231026  57.0916214  69.3048859  13.6032028  57.4643059
  68.4484253  12.4862738  56.9075890  37.3433228  48.3841667  29.8745117
  36.4520226  48.7132607  29.7582645  37.2348061  47.4438133  30.0166092
  39.7139702  50.5784149  84.2768173  40.6438026  50.7991028  84.2226410
  39.3309746  50.9592590  83.4865646  66.0268021  10.3748341  17.1842003
  66.9772491  10.3807440  17.2975769  65.6801147  10.5487375  18.0593014
  65.0329208  36.4874306  29.0221176  65.7266541  36.6068306  29.6707382
  65.4326782  35.9471664  28.3405476  81.3749390  60.4071732  36.8389473
  82.0785446  59.7678490  36.7274094  80.7082214  59.9436073  37.3457260
  51.1493225  27.1436443   4.8963981  50.3201523  27.5892982   4.7228990
  51.5413132  27.6386147   5.6158295   7.5855169  30.5738144   0.3671194
   8.0638781  29.8413391   0.7555556   8.2362299  31.0278416  -0.1682899
  64.7210693  58.6633110  18.7524910  64.0401154  58.0028496  18.8802414
  65.4163055  58.4111671  19.3601894   2.8847058  31.9885483  22.2393055
   3.0069888  32.9067307  21.9980125   3.6223729  31.7924023  22.8168907
  54.0894737  57.7654305  37.5230942  53.8959579  58.0617828  36.6337357
  53.2489243  57.8105354  37.9788017  75.4832001  16.2017822  76.7437439
  75.4322052  15.8645668  77.6381226  76.0180283  15.5603380  76.2760468
  24.0890083  17.0734806  65.6166763  24.9646626  16.6898689  65.5686798
  24.2215252  17.9991760  65.4123230  75.6196060  40.6575089  38.4056511
  76.3470917  41.1324997  38.8073769  75.6461639  40.9138260  37.4837914
   7.9191465  28.1597214  74.6828613   8.8138313  27.8196030  74.6923447
   7.4874992  27.6786423  73.9768372  18.6246643  68.9500122  24.3124218
  19.4044495  69.2287979  23.8323727  18.6239452  69.4902725  25.1025810
   6.0760231   2.7439296  33.0316963   6.2872334   3.5472219  33.5074501
   5.1206250   2.7444994  32.9729919   7.3845739  69.6766434   4.6082339
   7.0704160  69.0603256   3.9466572   8.2946415  69.4217758   4.7600522
  70.2572098   7.4102240  87.0493698  70.5899582   6.7746973  86.4156342
  69.3115387   7.4229498  86.9018326  30.5110111   2.2043381  78.2832489
  30.9047337   1.5799743  78.8926620  30.6554718   1.8190694  77.4189987
  46.3366928  45.8865128  24.4518681  46.4756622  45.1500092  25.0472507
  46.9224434  46.5705452  24.7762489  40.6818352  48.4891510  41.5997429
  41.3900490  47.8452377  41.5937080  40.7973061  48.9798241  40.7860222
  35.1369972  49.8941383  60.3356400  35.0950890  48.9618530  60.5485191
  35.7866859  50.2493553  60.9422379  53.3331947  48.7901611  86.3344498
  52.5723305  48.5305367  86.8539886  53.1407318  48.4721298  85.4523849
  16.7414532  23.7981453  16.1835861  16.3164349  23.0936813  15.6943808
  16.3406200  23.7623024  17.0520802  12.3476572   5.4027238  27.0874519
  12.9999924   5.1895747  26.4201736  11.9121742   4.5703592  27.2711792
  67.4028244  53.4331818  61.5265541  66.6963577  53.7178459  60.9468117
  67.1467285  52.5529251  61.8018608  82.6648331   6.5085864  86.9514542
  82.0455627   6.7557774  86.2647018  82.3032761   6.8934288  87.7498322
  76.3682556  71.2567596  45.8029099  76.9850693  71.0588989  46.5076256
  76.3689880  70.4709702  45.2563210   2.4667199  58.0399590  24.5503464
   1.8087887  57.7632332  25.1881390   2.7892404  57.2232704  24.1692467
   1.3416020  26.2539883  30.9148560   0.5729939  26.3413181  30.3510761
   1.2059991  26.9014740  31.6066685  41.1862679  41.8546448  77.1877365
  41.0895767  40.9081688  77.0825348  41.7255898  42.1243973  76.4443665
  81.6183777  35.1087952  47.8990784  82.5319977  35.3907089  47.9445038
  81.3156128  35.4145317  47.0440407  52.2971497  31.4541187  43.1191101
  53.1940727  31.7835121  43.1761856  51.8115501  32.1555862  42.6850929
  85.8006897   8.0775213  64.2293625  85.5324326   8.2568607  65.1305313
  85.4587784   8.8164902  63.7261200  23.2105598  24.9309959  69.1662521
  22.5702572  24.2579098  69.3969040  22.7279243  25.5387230  68.6059265
  60.2985458  15.2318220  87.0552750  59.9901009  14.4365921  87.4896774
  60.4166985  14.9747705  86.1408386  12.5862312   2.6321256  25.6759892
  12.8582745   2.1291447  24.9083729  11.7037239   2.3157640  25.8691902
  41.5178108  27.0814590  18.8862457  41.1023827  27.8366032  19.3026676
  42.3851509  27.0333080  19.2882919  84.8989563  32.4186211  89.2104721
  84.8871841  31.5619793  88.7835541  85.6642838  32.8595657  88.8415909
  12.1952343  52.7009926  59.8630295  12.0251102  51.7819099  59.6567001
  11.6945038  53.1897545  59.2098732  45.6226540  51.4940300  26.5912437
  45.4695702  52.2860794  27.1064682  46.4052277  51.6907654  26.0763550
  64.6775284  45.5342636  87.4463348  65.2862778  46.2729301  87.4515839
  63.8231201  45.9267502  87.6257248  75.9711151  52.5914612  50.1411705
  76.0572357  53.4681358  49.7666626  75.7813339  52.7440414  51.0668755
  46.3590317  67.4158173  29.2537708  46.3847923  66.5055008  29.5485630
  46.2314072  67.9235535  30.0551090  57.0845909  43.7337151  72.9583893
  56.1388817  43.8008423  72.8266296  57.3276024  42.9104767  72.5347595
  85.8415680  21.0723953  64.5116043  86.0626907  21.1649189  63.5849037
  86.1089401  21.9027176  64.9057007   4.1005869   2.6956267  63.1786461
   4.5118179   2.1443751  63.8444099   3.2083690   2.3568881  63.1049194
  18.9402771  58.9085464  49.0827560  18.0381432  58.5985184  49.1619186
  19.3428116  58.3148727  48.4489212  68.2054825  71.4852142  78.9331055
  69.0268250  71.1470718  79.2898865  68.0553818  70.9654465  78.1434555
   2.0217206  38.1805611  15.8768349   1.0764183  38.2056046  15.7284832
   2.3021145  39.0915794  15.7893229  53.4431839  65.2003098  62.2924232
  53.5727081  65.0132751  63.2221947  52.5261002  64.9799194  62.1292686
  61.8435783  54.0139923  50.5834618  61.8235168  53.8491249  49.6407814
  61.8064003  53.1434517  50.9797058  86.5112228  25.2302532  15.3650160
  87.0648956  25.0076466  14.6166039  86.5599136  24.4631920  15.9355221
  30.4191952  64.0205536  72.5020981  30.9231319  64.1557846  71.6996002
  31.0809155  63.9203720  73.1864319  54.5522270  44.7240105  45.8744278
  55.3688698  44.3544121  46.2101707  54.3054504  44.1443939  45.1537514
  45.3800888  10.8506966   2.1962981  45.8577652  10.5878143   1.4095633
  45.6796799  11.7427568   2.3715289  54.4268494  60.9466209  32.9250145
  54.2344093  60.0787582  32.5700302  55.0003166  60.7778397  33.6725998
  31.6954136  33.2598381   6.4020071  32.2292252  32.9628716   5.6650624
  32.2930069  33.7849007   6.9343877  59.7181129  70.3996201   2.8947380
  59.1602249  70.3028488   3.6665084  60.4831238  69.8558044   3.0824895
   3.5652912  60.1643906  42.2365303   3.1537838  60.8648529  41.7303238
   4.3090501  59.8873482  41.7014542  46.5294304  30.8904819  65.3821564
  46.8924942  30.1413231  65.8545685  46.3535881  31.5403595  66.0625763
   2.1991961  60.7316666  25.3639069   2.3450661  59.7878456  25.2993908
   2.5175829  60.9641571  26.2361507  70.9684296  70.8330612  22.0786877
  71.1999130  70.2608490  21.3470993  70.0655060  71.0961761  21.9005642
  73.8050079  65.6814194  14.3084316  73.6872101  66.6307983  14.3405247
  74.4860611  65.5025253  14.9568100  53.0796738   1.6430970  78.7298203
  53.3219109   1.9144083  79.6152267  53.8770370   1.2522362  78.3725128
  68.0564804   7.1049085  18.0516148  68.5139160   6.2848043  17.8661194
  67.6939468   6.9837537  18.9291840  50.9084778   8.7368393  11.4470844
  51.7557411   8.3801241  11.7137852  51.1173210   9.3462687  10.7391205
  63.5265427  56.4306908  19.8615646  64.1395874  56.2948265  20.5840244
  63.7191505  55.7220955  19.2475376  57.6446571  19.8717995  81.5686646
  57.9123535  20.3397655  82.3596039  58.2688332  19.1498833  81.4946747
  46.1753311  16.3375206  18.7392807  46.3724556  17.2364635  18.4760799
  45.7762947  16.4234886  19.6050816   3.8941507  18.3341827  71.9017639
   3.8274124  18.5521965  72.8314133   3.8019726  17.3819008  71.8718567
  48.4727898  63.9270058  81.1227188  48.6322632  64.5743256  80.4358597
  49.0065613  63.1735840  80.8703766  57.6802673  32.6826706  66.8505554
  57.6167755  33.4751701  66.3175049  56.8582039  32.6568832  67.3402252
  56.4157829  58.4790154  77.9775314  56.8950691  59.2080307  78.3713074
  57.0911980  57.9493103  77.5539017  23.3177662  50.3893700  25.2233124
  22.8257465  49.5683136  25.2270336  22.6610165  51.0629539  25.3999386
  85.1679840   2.1700122  28.7786121  85.6361237   2.2940550  27.9529667
  84.4833908   1.5335511  28.5725040   8.8260021  32.5559959  82.1093597
   8.6159925  32.8509827  81.2232971   9.7176962  32.8692169  82.2610321
  15.7883949  48.4729309  89.1268692  15.3029213  48.1637306  89.8916855
  15.1116257  48.7556725  88.5118332   9.1517382  18.2564449  69.6633453
   8.1971130  18.3265991  69.6635284   9.3505774  17.6922760  70.4106140
  73.5544968  43.2086792  42.7954407  73.0839081  44.0420074  42.8139381
  74.4742355  43.4551201  42.6975327  68.4330826  10.9716930  59.5345268
  67.9800491  10.8997078  58.6944008  69.3538055  11.0895405  59.3008308
  60.1481361  16.0530624  67.2814102  59.8517685  16.3560638  68.1396637
  59.8176804  15.1570616  67.2165070  27.1935368  31.6178303  72.2867126
  26.5831814  31.0924778  71.7693100  26.6850529  32.3844452  72.5512543
  45.8634682  35.8618279   3.0094395  45.8392982  35.6799889   3.9488983
  45.1365776  36.4673691   2.8639102  13.8723011  42.4520683  41.4334373
  14.3301325  42.6643562  40.6200790  13.0208645  42.1195984  41.1492691
  85.3262939  20.1646214  79.3046036  84.6285172  20.7645226  79.0410538
  84.9339981  19.2944851  79.2324982  30.6949253  43.4609756  23.5243511
  31.1005020  43.9307137  22.7955952  31.0933323  42.5909729  23.4998856
  30.4926414  21.8628998  14.8294840  30.2830906  21.1240788  14.2581129
  30.0697918  21.6497993  15.6613607  30.9270725  43.0280876  82.7130203
  31.5846481  42.6154366  82.1530685  30.8724403  42.4569283  83.4792023
  37.7501106  55.7081985  64.4182968  37.2206078  54.9107895  64.4186325
  37.1198502  56.4142761  64.5613251  71.4156036  36.8330765  22.8104153
  71.7008743  35.9255409  22.9163990  71.4542313  36.9876099  21.8665619
  39.3416214  18.3685760  11.9868240  39.6492424  18.8709259  12.7413101
  39.9760704  17.6573925  11.8978033  32.3460274   4.3621674  38.2047386
  31.7971153   5.1462603  38.1936264  33.0950851   4.6018958  38.7503357
  17.8559380  65.1073074  61.0014267  18.0605450  65.4953003  61.8522110
  17.3787136  64.3048935  61.2126579  81.1883621  37.6636391  12.5371008
  81.1890106  36.9439468  11.9060116  80.2625275  37.8138657  12.7281132
   9.0160799  58.8000526  59.0769920   8.4688072  58.1243095  59.4771118
   9.8943853  58.4197655  59.0630875  15.8710470  31.3838520  88.0373383
  16.0089684  32.3131256  87.8538818  14.9532509  31.3257847  88.3028793
  68.5689468  30.9761257  46.7901382  68.1983948  31.5784988  47.4351730
  68.0958862  30.1556854  46.9291306  28.6554985  58.3479118  52.4515610
  28.0824356  58.2225914  51.6951714  29.0285683  59.2206306  52.3274193
   7.5966959  12.3147316  65.1356430   8.2861214  11.8115768  65.5689545
   8.0627289  12.8727102  64.5129852  53.2262993  26.4969788  86.4589081
  53.9154854  26.9946518  86.8988800  52.4131203  26.8174095  86.8491516
  80.8991699  20.0367184  40.3600426  81.6251831  20.4315491  39.8770790
  80.2484131  20.7354107  40.4276886   6.1452870  13.4032173  24.8000050
   5.4642801  14.0068617  24.5032310   5.8888988  12.5555668  24.4367085
  27.0230198  41.8018761  37.9462128  26.4954872  42.1338196  37.2197456
  26.6513443  40.9409523  38.1383133  60.8127213  16.8809433  23.6054897
  60.6011734  16.6248531  22.7077713  60.0606613  17.4002991  23.8899384
  48.6204147  40.2372284  61.2025833  49.3503456  40.7832413  60.9105110
  48.0647240  40.8305550  61.7079620  83.5272903   2.7744265  26.1831532
  83.3167114   3.6055734  26.6086903  84.3171158   2.9589422  25.6748543
  43.8053131  52.3195152   9.9697361  43.6706657  51.3812447  10.1029654
  44.6674919  52.4937363  10.3472643  71.8716431  41.3572273  61.1192474
  72.6685867  41.1947365  60.6145592  72.0000000  42.2277985  61.4958916
  58.5897026   5.8809528   9.6421413  59.2071686   5.5500956   8.9898376
  57.8100166   5.3368115   9.5315533  23.1628666   5.0943604  10.5511284
  23.2260914   5.6109519   9.7477808  24.0174522   4.6707087  10.6313391
  47.2827187  71.3298187   0.0111571  46.9802170  71.2506104   0.9158405
  46.5127945  71.6271210  -0.4736707  45.8790932  45.3591919  80.4852676
  45.1823311  46.0145988  80.4505997  46.0482826  45.1407890  79.5688019
  22.2781887  33.2860985  26.6689472  22.5759068  32.4345360  26.9889965
  22.6165390  33.9136581  27.3076344  21.4700909  43.1011620  22.3255939
  22.1180019  43.5797882  21.8085251  21.2023411  42.3754768  21.7617435
  79.2278824  64.9071350  83.3106918  78.6193466  65.1326981  84.0142899
  78.6887436  64.4504089  82.6649780  28.6116714  56.5820808  69.0479660
  29.0432053  57.4314194  69.1409073  27.7003460  56.7969437  68.8490906
  30.7140942  38.0641098  74.1571884  31.5529690  38.2342949  73.7287521
  30.7428093  37.1333580  74.3787994   3.7216051  61.4609985  47.9028969
   3.3316429  62.0808029  48.5193443   3.8228872  61.9606094  47.0927353
  45.2207832  16.3771000  15.9592743  44.2901688  16.3051014  15.7471371
  45.2920227  16.0256443  16.8467617  84.0243912  13.5057535  23.6953087
  84.1397171  12.5565310  23.6516323  83.0755386  13.6315680  23.7045994
  25.6378040  61.4233246  17.4303761  26.4534588  60.9508896  17.5969448
  25.7243195  62.2345085  17.9311028  72.1290054  58.7223663  59.5469742
  71.7819595  59.2893448  60.2356911  72.8547897  58.2570724  59.9628639
  48.2205048  50.5525856  82.1332169  48.6553574  50.6338882  81.2843857
  47.9398956  51.4429283  82.3448334  59.3507805  27.0361805  20.4603157
  58.8031082  27.1998692  19.6925316  59.5728912  26.1069126  20.4023647
  50.7222214   2.8127222  85.3983154  51.1621780   3.3517172  86.0557022
  49.8111534   2.7758076  85.6895752  13.7585897   1.2360303  19.7302265
  13.3864803   0.3544408  19.7064323  13.9886942   1.4235213  18.8202095
  32.2729912  30.2958393   3.2496889  32.5232658  30.2120495   4.1697841
  32.2858849  29.3990250   2.9153414  64.0190964  19.7068958  37.6382446
  64.1846542  19.2333603  38.4534683  63.7231178  20.5725060  37.9199333
  42.6105270  36.7770576  76.2138596  43.4190674  37.0666122  76.6365204
  42.9029961  36.2089806  75.5011292  29.3953800   3.8424428  74.8345184
  29.2177963   4.7175837  74.4898148  29.8248806   3.9988890  75.6755219
  61.8968887  68.9344635  77.0240555  62.4059258  69.4628220  76.4092712
  60.9846916  69.1276398  76.8076935  15.2657576  42.3170776   0.7638743
  16.0641804  42.6287155   0.3376893  15.2664080  41.3720055   0.6119701
  58.5661583  27.9327335  78.9070511  57.8118401  27.3780575  78.7081146
  58.1961746  28.8080463  79.0218124   1.1249849  18.2757149  33.3402023
   0.5062768  18.9259758  33.0076485   1.5158576  17.8932762  32.5545883
  67.4106293  26.4811287  10.9321423  67.7113190  26.0501060  11.7321644
  67.6353073  25.8690395  10.2313566   7.1485119  25.8573036  81.9841995
   8.0169115  25.8378754  82.3863602   6.8026290  26.7226391  82.2028046
  65.2767029  67.9898148  35.8177834  65.7974243  67.7637100  36.5884705
  64.5837936  67.3298340  35.7948532  78.9142990  20.1612244  61.5700989
  78.6190186  20.7620201  62.2542686  78.3411713  20.3454247  60.8259048
  79.1888199  44.3949661  26.9733047  80.0559616  44.7986794  26.9370556
  78.8945770  44.3773308  26.0626240  58.0302925  43.0363846   0.4751363
  58.8793640  42.9472160   0.9079865  57.8290482  42.1556664   0.1588079
  39.6587410  65.1318207  71.7430344  39.7195129  65.5992203  70.9099197
  39.1169128  64.3668289  71.5495148  22.5621281   9.6468430  45.9262085
  22.9462490   9.3122168  46.7365837  21.7585068   9.1389580  45.8144989
  67.6450577  45.2809372  20.5045910  67.0149078  45.7362404  21.0630245
  67.8385315  44.4694748  20.9739799  37.8203545  42.7925148   3.8437979
  37.7423706  43.5835266   3.3104630  38.5530815  42.9721375   4.4329309
  38.3626747   3.1616962  88.2620697  38.5018463   3.6042528  87.4248123
  39.1494598   3.3582520  88.7705688   1.9504957  29.8760376  56.1839714
   2.5895691  29.7979679  56.8922958   2.1135962  30.7412910  55.8085175
  33.0170479   3.4284182  42.8995972  32.5881042   3.5336959  42.0503883
  32.2959747   3.3376603  43.5225372  33.0948944  63.8432198   8.8417759
  32.5631981  63.3013649   9.4248066  33.7366066  64.2574310   9.4187222
  66.3198166  71.6960754  88.3374939  66.4962387  70.8560867  87.9137955
  65.7238464  71.4818039  89.0552292  65.8010406  38.6166039  57.1778641
  66.2465897  39.3063202  56.6859207  65.8502808  37.8474884  56.6101761
  51.3744202  23.9385834   5.9657979  50.9436417  23.2087097   6.4107089
  51.2297287  24.6892319   6.5418391  86.6387863  50.6300430  30.3787785
  86.0064011  51.2017746  30.8140373  86.2229767  50.4021606  29.5472698
  56.1478119  68.1471863  -0.0109916  56.0816078  67.9858704   0.9301904
  55.5216484  67.5384903  -0.4029598  50.7813721  18.0075302  50.0991821
  50.9718513  17.2629433  49.5286255  49.9266472  18.3222866  49.8048935
  50.3083725  35.9747849  67.8550186  50.5143890  36.9094810  67.8435745
  49.9293404  35.8025017  66.9931107  70.1341476  19.9597340  71.3943024
  70.6011505  19.1314468  71.2843781  70.4018021  20.4872971  70.6417923
  78.9043961  32.9147530  86.7818222  79.7632904  32.7142944  87.1537704
  78.3142242  32.9278908  87.5353241  77.6587601  27.2942066  70.3678818
  76.9386063  27.8791561  70.1324234  77.3409729  26.8204212  71.1364975
  27.6761265  68.8167496  52.1499939  27.3101139  69.1554565  52.9670258
  28.5465603  69.2112579  52.0957794  17.4715710  69.2308655  28.6530380
  16.5637188  69.0404434  28.8892040  17.5339947  70.1852417  28.6917648
  86.4961090  47.4044113  70.3004990  86.4775162  47.6858139  69.3857880
  85.6081390  47.0912933  70.4728546  50.6400528  54.1685829   3.1948853
  50.6517105  53.5337181   3.9111552  50.6161156  53.6339149   2.4012945
  60.4327011  61.0404053  59.1683769  60.3444672  60.3195038  58.5448761
  60.3825493  60.6214600  60.0275650  22.4461212  53.7428932  33.0625229
  21.6608353  53.7453270  32.5152092  22.5310802  52.8355942  33.3554764
  32.6760788  21.3313065  73.8641434  31.9384403  20.7378578  74.0053482
  32.4293022  22.1337624  74.3239212  20.3125916   5.3095589  66.7076187
  21.1265297   5.4915209  67.1773300  19.7674484   6.0803366  66.8655853
  64.3125534   1.0226334   5.9776316  64.3793945   1.3673359   5.0871572
  63.4068336   1.1960332   6.2342253  51.4025917  41.2556267  54.5940247
  50.7939758  41.9570808  54.8259239  51.6834450  40.8945045  55.4348259
  38.7803917  65.4230957  39.6554527  39.7229309  65.4951248  39.8059845
  38.4336662  66.2834167  39.8918076  10.8746729  55.1120567  83.9889679
  10.5941086  54.6400490  83.2049255  11.5155029  54.5325317  84.4009399
  63.5228920  23.6889877   7.4079719  62.9941902  24.2308865   7.9936805
  62.9144936  23.4134636   6.7222824  79.7469635  65.9954529  21.7190285
  80.1019287  65.5993652  22.5148602  79.1480408  66.6720581  22.0348358
  81.3709335  67.7949066  58.1512184  82.2946396  67.9246826  58.3660660
  81.3082199  68.0138397  57.2215042  85.0081253  21.9447918  16.1260777
  85.8531494  22.2906952  16.4133492  85.2152023  21.0901737  15.7479496
  20.3917580   7.2975130   3.7784433  19.8033810   8.0169067   4.0076089
  19.8840466   6.5062594   3.9583819  53.4337654  28.0333500  58.4958839
  54.0777512  27.5801334  59.0400429  52.9505844  27.3306637  58.0611420
  66.8321152  53.4996567  10.3285208  66.6015930  54.3862686  10.0510035
  66.4930420  52.9354057   9.6336231  19.2512054  41.2071457  17.0893955
  19.8016090  41.6895638  16.4725018  18.5121422  40.9021301  16.5631027
  39.0542679  59.3657761  34.2709694  38.9501343  58.4283867  34.4343414
  38.2069359  59.7451134  34.5041313   6.7678885   2.4432669   5.1522031
   6.7284937   2.6542275   6.0850353   7.5201802   2.9374094   4.8264542
  81.5169373  22.6688747  85.3396378  81.8999176  22.3603668  86.1608429
  80.7717361  22.0871849  85.1894684  37.7790413  61.8851852  10.1160822
  37.2200279  62.6568871  10.2067051  37.6270599  61.3839226  10.9172506
  66.6446228   8.0304985   8.4662876  66.8204651   7.2464705   7.9460859
  66.8028793   7.7585907   9.3703079  72.4243011  13.0499020   7.1760993
  73.2359314  12.7372808   6.7764039  71.7309189  12.6913853   6.6221004
   1.2103789   5.3559637  28.9769039   0.3263271   5.0716691  29.2089825
   1.0974728   6.2500100  28.6541576  37.9528351  43.2921143  16.7288685
  38.6485558  42.6466751  16.6039143  37.5428085  43.3720779  15.8676376
  85.8441696   6.6173525  88.9521408  85.3819046   5.7797079  88.9222183
  86.7020721   6.4312363  88.5705795  43.0115204   0.9282809  51.9396744
  42.8371277   0.5630300  52.8070869  42.5869446   1.7860876  51.9512138
  75.1589966  22.2550869  66.1844788  74.8515701  21.4433441  66.5879593
  75.0107880  22.1278801  65.2474213  16.4255848  31.1346035  18.7436657
  15.6741953  31.5714378  19.1446915  16.9128227  31.8394833  18.3170815
  45.2293854  17.1270351  85.9118652  44.7645493  16.3211231  85.6867752
  44.7666092  17.4641895  86.6789322  28.5156212  14.7882271   9.4112329
  29.1236248  14.4384937  10.0625782  28.0463734  14.0203733   9.0849829
   6.2124553  70.2857437  66.3048859   5.2661090  70.2941513  66.1613922
   6.4667726  69.3725891  66.1718292   7.2699690  32.9573135  84.5084305
   7.8600225  32.6548462  83.8180847   6.6570258  32.2329102  84.6340179
  65.8451385  69.9389954  13.8631048  65.5821838  70.6223373  13.2465620
  65.0241852  69.5186920  14.1192493  46.2245674  26.2841549  58.6800690
  45.4493370  26.8392334  58.5955811  46.2046127  25.9814472  59.5879250
  40.0188446  35.7011414  11.6865568  39.6797485  36.2647476  10.9911451
  39.6962471  36.0983810  12.4954844  23.8358269  62.9201851  66.9602356
  24.2028332  63.3028831  66.1633148  23.3589725  63.6397400  67.3738632
  58.0320663  44.2482681  67.9254532  58.0052223  43.4233284  68.4102020
  58.3741570  44.8842392  68.5537415  75.4896088  68.5353622  11.2572451
  74.6527863  68.1020355  11.4251366  75.3114853  69.1243210  10.5240068
  69.4335251  26.8359470  57.6646042  68.7015076  27.3382244  57.3066902
  70.1122284  27.4893322  57.8339767  40.9680176  43.2783203  40.0847816
  40.1014404  42.8775978  40.0162659  41.5672340  42.6121941  39.7479553
  12.0952253  65.0326920  57.1315956  11.5713215  65.0734711  57.9316521
  12.9866753  64.8651352  57.4373283   1.0276569  44.1600494  77.6929550
   0.2713311  44.5286102  78.1494217   0.9967246  43.2248344  77.8945618
  12.6743393  53.9682770  46.3819389  13.2839861  53.2401810  46.2617722
  11.9355412  53.5863419  46.8557854   8.6538000  53.9611931  16.9420071
   9.4499197  54.4663315  16.7769032   8.2855396  54.3474503  17.7366276
  24.6662045  23.9636230   5.8950224  24.0820885  24.1327572   5.1558113
  25.0162182  23.0884418   5.7283435  19.6641884  21.7285633  31.2737331
  19.1681404  22.2479897  30.6409893  19.0439663  21.0662994  31.5786324
  10.5881844  65.8009491  76.8295212  10.2250347  65.0501785  76.3597336
  10.3508034  65.6487579  77.7442474  84.3493347  29.6080666  35.4173737
  84.7700043  29.5695839  34.5584259  83.4608002  29.2870483  35.2635040
  31.2834911  61.2521172  18.0496216  32.0460663  61.8303642  18.0679855
  31.5223827  60.5224419  18.6212330  14.0461617  66.4385757  17.0917053
  14.9260073  66.3564987  16.7237835  13.9096584  67.3820648  17.1779270
  41.8697853   7.4816160   9.4078941  41.5978813   6.9793253  10.1760111
  41.0637779   7.8887177   9.0903215   2.6195610  70.4321136  37.6553688
   3.5728176  70.5046997  37.6077728   2.3094254  70.8056870  36.8304482
  36.7228050  52.2557983  11.0894117  36.5941429  53.1762619  11.3183794
  36.1112328  52.1002769  10.3696747  29.5351753   6.7851958   1.6655571
  29.5035419   7.0500374   2.5848451  28.6597252   6.9786515   1.3303083
  76.8794098  35.4517632  51.8577881  76.9304199  35.9040413  51.0157242
  75.9471817  35.2691917  51.9755096   1.5667943  69.5608597  12.5499115
   1.6798377  70.2997131  13.1478672   0.8678187  69.8371887  11.9572010
  66.9173584  33.3453484  13.9491911  67.0845032  33.6087303  14.8541355
  66.6577911  34.1543579  13.5083294  40.7446632  46.3089180  56.4483604
  40.7551994  47.2660561  56.4515266  41.0753365  46.0628929  57.3122787
  26.2582531   2.2852592  19.0520878  25.6089420   1.7845504  18.5582104
  26.4794197   3.0203404  18.4802723  57.4954910  20.0983810  87.1134109
  58.4297867  20.0023041  87.2980652  57.2662048  20.9536476  87.4769745
  71.7372971  19.9985790  23.6793022  70.8351669  19.6803055  23.7123795
  71.9845963  20.1132908  24.5968609  55.6355667  36.8095055  72.1816330
  55.7075310  37.1763153  73.0628204  56.1605034  36.0096436  72.2115402
  42.6731949  62.7846298  59.1109047  42.0201912  62.5410271  58.4547958
  42.1593361  63.0374222  59.8778992  58.0214500  48.6834335  12.2816753
  57.4940224  47.8857956  12.2390003  58.3268852  48.7203979  13.1880836
  27.9321766  23.2049713  81.0033798  27.9080734  23.9721146  81.5753403
  27.6972980  22.4732628  81.5740585  61.7205887  46.3786964  87.5966873
  61.1464615  47.1340141  87.7236023  61.9798317  46.4268303  86.6765213
  26.7705669   1.0747274  15.4713211  25.8461018   1.2444693  15.6523800
  26.7948112   0.8476661  14.5417576  71.5049057  23.4378147   3.6536131
  72.2551727  22.8623447   3.8024859  71.8257904  24.3119316   3.8753903
   7.1261797  50.4918594  81.3594284   7.5875902  49.8208275  81.8624725
   6.2535615  50.1256790  81.2156143  11.8747711  62.0923042  70.3822708
  11.6678600  61.2125587  70.6976547  12.3057423  62.5173683  71.1237717
  40.4078407  34.0747757  79.7376480  41.3439751  34.0658722  79.9371567
  40.3599548  33.8691750  78.8040237   8.0215340  70.6421051   8.7339449
   7.1769218  70.3200989   8.4190302   7.8260841  71.5015030   9.1073961
  18.5844860   2.5829287   9.3689251  18.2445011   1.6991947   9.5091295
  19.2387619   2.6999235  10.0577412  68.7499542  15.5750370  19.5022717
  69.6264801  15.8396044  19.2230873  68.1719971  16.2521610  19.1505680
  39.4603157  29.5536118  83.5880051  39.3242760  29.5898514  84.5347977
  39.0549927  28.7291870  83.3191757  72.8632965  18.9597492  69.7588806
  73.4119263  19.4405212  70.3786392  73.0466995  18.0382023  69.9414902
  21.1991081  53.4258690  14.8268528  20.3918247  53.4085236  14.3128262
  21.6531487  54.2156868  14.5331383  61.2382851  10.8048658  84.8396072
  60.9307060  10.9109173  83.9393921  60.7972221  10.0148249  85.1519012
  41.4858170  14.1747723  16.4777031  40.6387177  13.7711630  16.6667919
  42.0955734  13.7435226  17.0764103   0.4655493  43.6581154  26.5780411
   0.4773041  44.5752907  26.8516827   0.5881832  43.1646271  27.3890057
  67.0996017   5.3150210  69.3010101  67.5359573   5.2628207  70.1513672
  67.1410065   6.2422709  69.0670776   3.5193915  63.9197006  87.0331497
   2.5846975  63.7436676  87.1408157   3.6842275  64.6842957  87.5849228
  82.7950287   4.5802536  62.4800797  81.8409576   4.5690303  62.4035454
  83.0911102   3.8907285  61.8858376  15.2155008  21.7548523  23.8313351
  16.0640125  21.9846935  23.4526119  15.2720299  22.0475082  24.7409439
  37.7183952  55.5859604  15.5445004  38.5779266  55.1647339  15.5416622
  37.5899849  55.8620872  16.4519672  34.5787582  69.4825516  47.1913223
  34.3678627  70.4126205  47.2733307  34.0748405  69.1887054  46.4324036
  20.6391830  61.8830528  52.2925301  20.9178524  61.4831924  51.4687080
  20.6727829  61.1687889  52.9288712  74.3288803  35.0448837  82.1456070
  75.0939941  34.4708900  82.1825562  74.5557327  35.7044830  81.4900894
  65.8397217  32.4122772  76.6328583  65.8906021  31.5361137  77.0149384
  66.5907211  32.4595604  76.0412521  46.1546669  22.2074680  61.0862427
  45.6803131  22.1374550  61.9146881  45.8969574  21.4267921  60.5959740
  37.3823967  45.4489326  10.8331404  36.6309128  44.8733253  10.9752016
  36.9967384  46.2915459  10.5933504  74.0684738   9.6749611  52.1727753
  74.5129929  10.3362589  52.7031631  74.2025833   9.9624586  51.2696724
  84.1564331  52.3273125  46.8973122  84.0889359  52.1063271  47.8262062
  83.2607193  52.2536774  46.5679016  49.5575256  59.8218460  52.7515907
  49.4044724  60.5520592  53.3512535  49.8922157  59.1198006  53.3095779
  59.4804802  37.5085945  33.2696762  59.0521774  36.6547241  33.3305016
  58.8174934  38.0822792  32.8855324  36.3730888  33.5698128  44.1206894
  36.6642227  33.4807816  43.2131958  36.6798248  34.4366417  44.3866806
  85.7601013  62.9414558  40.0855446  85.6665421  62.0053940  40.2623634
  85.4501877  63.3682365  40.8843193   9.8856773  59.4228630  78.0407867
   9.8064365  58.6053200  77.5492783  10.7773170  59.7229691  77.8643036
  26.2875786  61.2710724  29.4089642  25.7930756  60.5039101  29.1205883
  25.6384392  61.9734039  29.4486961  55.5283470  48.8564301  34.4650917
  55.4892845  49.6986732  34.0119553  56.4053421  48.8307915  34.8477821
  83.9975433  60.1786003  10.0173664  84.3974686  60.8003197   9.4092894
  83.2750320  60.6640511  10.4155445  53.7189407  49.8928757  37.3479919
  53.4132919  49.5354538  36.5142860  53.8514709  49.1248322  37.9036674
  86.6861191  69.8860321  30.7937069  86.5985718  70.5611496  30.1208153
  85.9892654  69.2599945  30.5969753  24.8125477  58.6534920  48.2991753
  24.5153179  57.8111572  47.9551430  24.1814499  59.2874718  47.9585609
  78.8352585  41.9848518  51.9389610  79.3436966  42.0208588  51.1287613
  78.6921310  42.9019318  52.1728630  62.7433128   7.2096415  41.7796326
  62.1590385   7.4140339  42.5097542  63.3747215   6.5896091  42.1444817
  56.1802330  13.2540722  20.8958855  56.3896446  13.0403996  19.9866428
  55.6412926  12.5221167  21.1959152  20.8190136   7.6989665  72.6797562
  20.8774471   6.7937288  72.3741989  21.6441574   7.8498564  73.1408386
  20.7065201  69.2022400  22.7036781  21.3825321  69.6279373  23.2309570
  21.1638355  68.4888535  22.2585125  23.7554169  31.9655876   2.0159760
  22.9938831  31.3922176   1.9291220  23.5129910  32.5828629   2.7062180
  72.3304672   8.2402821   7.4926395  72.9306870   8.6993933   8.0801630
  72.4588394   7.3136492   7.6953821  22.9314404   8.6769543  15.8968534
  23.7661114   9.1398125  15.9697819  22.3429012   9.1502953  16.4849033
  71.9307556  37.4060211  40.3234177  72.7023392  37.9430084  40.1430397
  71.4742432  37.3529892  39.4837685  41.2891579  59.9152222  65.7267227
  41.3690224  58.9960442  65.9815979  42.1214371  60.3093681  65.9878616
  22.9550304  46.2553024  10.7702007  23.5918713  45.5506554  10.8891048
  22.1062317  45.8128586  10.7661877   5.8926725  18.7598572   3.1791160
   5.8838429  18.9417057   4.1188421   5.7744455  17.8119907   3.1174634
  75.7767563  25.7351685  49.8295631  75.2978592  25.3722153  49.0844765
  75.2876740  25.4374542  50.5966339  11.3690033   3.6803191  11.4580660
  11.3478508   2.8568957  10.9704618  12.2571020   4.0129061  11.3280754
  59.3180199  33.7248001  24.3488655  59.3878403  33.4624939  23.4309597
  59.9425011  33.1622505  24.8068905  33.3373795   6.1931233   1.3795724
  33.9014511   5.4951873   1.0464959  32.5954437   6.2104759   0.7750384
  21.7745380  21.1461468  79.4942627  21.4926167  21.9973526  79.1593018
  22.6777000  21.2876034  79.7780304  17.5275021  65.7207413  34.7950668
  17.5559807  66.5533600  35.2664146  18.0937519  65.8561401  34.0352898
  33.3322067  33.2834816  63.9457817  34.2839737  33.3581429  64.0150528
  32.9959641  33.8725204  64.6212158  24.5461349  34.1805038  63.7484398
  25.0771751  33.5582199  64.2454224  25.1501465  34.8903961  63.5305977
  53.1030579  65.3821487   2.0149586  52.1574745  65.3984909   2.1627278
  53.3401184  64.4572449   2.0827498  10.5443163  41.6483269  32.2881012
  10.0651751  40.8221054  32.3514824  11.2188225  41.4840927  31.6290874
  50.8150177  10.2270079  51.6920738  50.1751213  10.2599115  50.9809570
  50.6256256  11.0021572  52.2207565   8.7701483  20.1985149   7.6435647
   8.1214209  20.4800415   8.2886438   9.4104328  20.9097023   7.6216917
  67.6594467  55.0934029  88.2632446  67.3301010  54.3164253  88.7149811
  67.7179108  55.7610359  88.9466782  37.0607262  43.6063156  25.4973507
  36.5916824  44.3036423  25.0391331  37.6350632  44.0661926  26.1096287
  30.3787003  60.1086540  34.1011505  29.4401989  60.1583443  33.9195595
  30.7861061  60.6110497  33.3955612   3.5783916  35.8059425  82.8970413
   3.6749322  36.5566444  82.3110733   3.3560147  36.1908493  83.7447662
  44.2210617  38.5547867  60.0359612  43.8956757  37.6741791  59.8491898
  45.1178703  38.5547295  59.7013397   2.7988760  18.3118229  86.9546585
   2.3980513  17.8290176  86.2318344   2.4376626  19.1952724  86.8820419
  81.4379196  56.2414246  56.3700485  82.3439026  56.2414436  56.0611267
  81.4683838  56.7146149  57.2015495  22.2737331  29.8228302  82.0448990
  22.1927376  30.6328030  81.5412979  22.2124672  30.1017056  82.9585190
  67.5458145  62.1453743  32.0325928  67.3520966  62.5878677  31.2062111
  68.4882202  62.2629623  32.1520653  22.1938305  67.0480042  25.5343914
  22.8536091  67.1158295  24.8442287  22.1833401  67.9141693  25.9416695
  20.3482780   6.2036757  76.0991058  19.8099575   6.9385600  75.8051834
  20.4308891   6.3302541  77.0442963  36.4915161  27.8545227  85.6608429
  37.0687332  27.6180859  84.9347916  36.3956985  28.8043594  85.5911179
  50.7982674  54.0685196   6.9323015  49.9034195  53.9237061   6.6248813
  51.0587196  53.2305489   7.3146644  57.1576843  51.5069580   3.7189834
  57.2485809  51.7872963   4.6296859  56.2433472  51.6894035   3.5023389
  32.5184212  46.4410248  89.3207779  32.9098740  47.2597466  89.6252289
  32.8946342  46.3044586  88.4512711  79.0923691  18.4789810  36.6058769
  78.6685257  18.9479866  35.8871117  80.0227509  18.6818790  36.5086060
  46.9711113  31.6530075  26.1233978  47.7444077  31.1006527  26.2380486
  46.8226242  32.0393372  26.9864922  26.0932808  16.8743992  82.7255630
  26.9476910  17.0586872  82.3353653  26.1943665  16.0112514  83.1267929
  60.8967018  56.5687294  33.9167557  60.7262611  56.8693848  34.8093872
  61.8277359  56.3464813  33.9125519  46.7422829  20.4864063  25.2544632
  47.1967659  19.8279190  24.7290382  46.9512978  20.2564278  26.1598110
  42.1747437  51.0422249   5.2444649  43.1183739  50.9177017   5.1430502
  42.0617332  51.9917488   5.2876801  62.0864258  39.1972580  41.1241226
  61.8519478  39.9615974  41.6504631  62.0073433  39.4967384  40.2184219
  51.6637421  35.9065666   2.0546618  51.4950790  35.7017784   1.1349628
  52.1877060  36.7072296   2.0295670  16.3770275  53.5409813   8.2120905
  16.1615963  52.8851929   7.5489435  16.1060200  54.3726654   7.8233905
  38.7939034  45.9370232  86.4754791  39.0557175  45.2076492  87.0373459
  38.0577774  45.5958557  85.9675751  60.1128693  16.2233143  21.2033463
  59.6862907  16.8999519  20.6775875  60.2882576  15.5143185  20.5846405
  36.7837944  51.3142128   7.2316628  36.7290192  50.7845764   6.4362297
  36.3894882  52.1520386   6.9891720  47.5405312  37.8947105  41.0637054
  47.7305260  37.2307014  41.7264481  47.3690567  37.3945312  40.2658043
  19.4497662  11.7729006  89.2885666  19.5826550  12.5699749  89.8016434
  19.5292072  12.0579872  88.3782654   7.3540888  60.9375229  83.5504303
   7.5241208  61.8759766  83.6318054   6.5633988  60.8830223  83.0137100
  24.1547356  21.7138233   2.8613863  24.6268768  21.5465736   3.6770711
  23.2970161  21.3101463   2.9940231   5.9970546  35.9946251  69.7968369
   6.6888494  35.6861267  70.3820572   6.3005362  36.8519402  69.4982681
  10.3805304   1.0670953  23.7007294  11.3366251   1.1110033  23.7143936
  10.1101227   1.8715750  23.2580967  69.9483414  62.2301140  85.3011780
  69.8593750  61.5252953  84.6596603  70.1531830  61.7823944  86.1220474
  76.5816498  53.1974792  13.2835083  77.3489914  52.6273270  13.3319330
  76.7888641  53.8192177  12.5858479   6.2427177  19.3259563   0.4861105
   6.4493122  19.1405201   1.4021695   7.0959039  19.4189663   0.0622550
  70.2122955  53.6820679  83.8464661  71.1386871  53.6695633  84.0870590
  69.9495697  52.7616959  83.8573685  43.7171326   8.2596779   7.0073566
  43.8196030   9.1373577   6.6393747  43.2171707   8.3943729   7.8124194
  45.8478889  21.0733089  10.8476267  45.0382423  20.6143990  10.6237841
  46.5349503  20.5784798  10.4011755  44.7382965   6.1775103  80.6625061
  43.9462929   6.1319442  80.1268845  44.6063957   5.5161943  81.3418350
  27.3111019  54.0621605  77.2398682  27.5192223  53.1384888  77.0993423
  28.0210018  54.5362053  76.8067856  84.4027939  22.1998348  72.0821838
  85.0521393  21.7186966  71.5692596  84.1990128  22.9688129  71.5498505
  12.7139750  30.1148567  70.0401306  12.5947342  30.9927292  70.4025574
  12.1823587  29.5499630  70.6009445  66.4937744  28.9865990  45.2647247
  65.6119537  29.1848068  45.5799179  66.3840637  28.8344765  44.3260803
  28.7718830  41.8443756  40.8675461  29.5681019  41.8641930  40.3366280
  28.1353855  42.3516083  40.3637466  74.0939331   1.9838179  77.1413574
  75.0301666   2.1793370  77.1029434  74.0284653   1.2431659  77.7441635
   6.3766370  37.4007950  60.6410751   7.0226116  37.0592651  61.2593842
   5.5527492  36.9909668  60.9046669  45.4800987  59.3934059  65.7720871
  46.2105408  59.0683517  66.2984161  45.8331985  59.4550400  64.8845291
  11.4982834  52.6852455  68.3938751  11.3584280  53.5490646  68.0059509
  12.4352608  52.5226326  68.2849655  83.4179306  19.0338993  73.4344559
  84.3047180  19.2443027  73.7269592  83.5414581  18.3795528  72.7468491
   5.7431979  23.9339275  68.2405319   6.6100712  24.2186623  67.9512482
   5.5801191  23.1277714  67.7508926  50.2495918  58.9514732  86.6966782
  50.8491211  58.3434944  87.1292953  50.5868225  59.8192825  86.9189758
  68.3255539  58.8599472  35.6511497  68.9091492  59.0816803  36.3767433
  68.6016159  57.9842148  35.3807640  35.5446930  55.0575981  11.4097605
  35.2134819  55.2357635  12.2899799  35.0264931  55.6253777  10.8393860
  76.0708771  28.4976807  48.2508087  75.7050629  27.6551933  47.9813194
  75.3458786  28.9449902  48.6872940  19.8551502  69.5070496  69.2490768
  20.7763824  69.7594833  69.3110199  19.5541611  69.4744644  70.1571350
  49.2101326  28.4049606  21.1410999  49.4458542  27.5461693  20.7901783
  48.7582016  28.2121964  21.9625816  73.7398148  53.1978607  33.4959564
  73.6067352  54.0502396  33.9106560  74.1926193  53.3981438  32.6767616
  14.4365549   5.6611462  68.7451019  15.1467676   5.6731267  68.1034698
  14.3970470   4.7519169  69.0417023  82.0541458   2.5445435  23.7233257
  82.6502075   2.3375323  23.0035362  82.6268768   2.8396156  24.4312458
  30.3754616  55.1708374  62.6315727  30.0289688  54.7685585  61.8351173
  30.2148399  56.1073952  62.5162621  74.9195709  19.8243656  79.4901810
  75.7696762  19.8123722  79.9299622  75.0947037  19.4647808  78.6205444
  12.7354193  60.1753998  35.2306404  12.6235476  59.4764099  35.8749466
  12.8137188  59.7187729  34.3930283  77.3939362  30.0553246  62.2010345
  76.8393631  29.3544769  62.5438080  77.8721466  30.3776817  62.9649925
  67.3674622   7.6226230  22.6801167  68.0501251   7.8973293  22.0679607
  67.3817062   8.2872801  23.3687820  59.1563835  17.3293991  59.1661453
  59.5040817  17.8629532  59.8807487  59.0091553  17.9507294  58.4530487
   0.3391002  21.7898388   7.6885567   1.1838502  22.2314167   7.6011591
  -0.2862528  22.3851948   7.2753754  19.7051849  10.5344162  75.5434875
  19.4634552   9.6141005  75.4394760  19.2271767  10.8211355  76.3216476
  19.1604939  40.6142235  80.0782471  19.4443169  41.1101456  79.3103027
  18.3063316  40.2593193  79.8319092  81.4536819  31.8970032  88.0585022
  81.4301071  31.2466335  87.3565826  81.7910767  31.4193954  88.8163223
  79.4587860  38.8211174   3.5327652  80.1534195  38.8889961   2.8776994
  79.8312378  39.2201958   4.3190508  69.8932495  39.8686409  67.8066940
  70.2834549  40.6080322  68.2728119  70.4718094  39.1311035  68.0004425
  17.8430634  49.2106056  35.2494316  18.5876045  48.8874130  34.7420502
  17.0870285  49.0749969  34.6782455  11.4023399  41.9197006  19.2176361
  11.2105417  41.0109253  18.9861794  12.3151073  42.0454025  18.9582367
  42.7613144  41.3497696  82.1108246  42.9151611  41.5077438  83.0422821
  42.8023758  42.2183151  81.7106094   1.2700547  27.3928223   9.2899342
   0.7122748  28.1518707   9.1197577   1.5052711  27.0687160   8.4205322
  52.6400528  63.6777344   8.7386599  52.4833145  62.9111023   9.2899685
  52.2212753  63.4629974   7.9051461  49.8744125  20.9591179  34.6570778
  50.1764183  21.8472481  34.8474731  49.0905151  21.0822964  34.1217651
  11.3927288  37.0322151   2.8611922  11.3122187  37.5142212   3.6842487
  12.0559645  36.3651161   3.0381930  79.9992294  15.0474720  40.0073662
  80.2319946  14.2139292  39.5983963  79.5142746  15.5192957  39.3302879
  72.9845200   8.5497999  23.8783989  73.2181320   7.6571064  23.6239243
  73.2374496   9.0868578  23.1275139   9.4437265  70.6223602  72.1401291
   8.9787102  71.2067947  72.7388153   9.1749487  70.9100037  71.2676315
  10.0283203  35.7901840   8.2138672  10.3109121  36.0389290   9.0939236
   9.0725775  35.7752075   8.2644873  58.3027573  36.8801880   2.4329543
  57.7294083  36.1956367   2.7777638  59.0818787  36.8419609   2.9876974
  15.5138741  40.8714561  51.5950928  15.5378704  41.4633904  50.8432465
  16.4303036  40.6412392  51.7480202  55.8641853  61.9136658  12.9362745
  55.4685669  62.2497559  13.7404900  55.8312378  62.6510468  12.3268347
   5.5394478  69.4970779   8.4107542   4.9319897  69.2477341   7.7142954
   5.5959363  68.7211838   8.9684486  67.4157639   0.4943352  55.6182365
  68.0531158   0.8313826  54.9886246  66.6263657   1.0122190  55.4605026
  54.0783195  13.0526199  42.7434464  54.4867630  12.3700228  43.2758598
  53.1442604  12.8442688  42.7622871  79.5631027  31.5941067  23.7465763
  78.9662933  31.8746319  23.0527763  80.3886261  32.0347099  23.5450516
  43.7945366  54.6256828  12.3338051  43.9517441  54.0908737  11.5556698
  43.2190247  55.3275299  12.0297852  83.0983429  68.4278870  20.3587780
  82.3577652  67.8478088  20.1819191  83.0915375  69.0528336  19.6337795
  26.3380642  37.6603394  18.7381840  25.8328133  37.3737030  17.9773998
  27.2464771  37.6596642  18.4364929  11.8038960  26.6608810   1.1508934
  12.5499020  26.8167210   1.7300475  11.1680679  27.3342361   1.3928579
  13.3326063  52.1367912  13.0983639  12.8822155  52.9730682  12.9799776
  12.6411552  51.4793625  13.0214291  11.5558691  38.2940216  26.0248299
  11.4169111  38.6754532  26.8916817  10.8250198  38.6201172  25.4997082
  52.8199959  12.3126421  85.6182938  52.2712860  13.0474958  85.3441696
  53.2873573  12.0534163  84.8241806  32.7578850   3.9836831  10.2958183
  33.4974365   3.3780019  10.3452635  32.6466293   4.1499343   9.3597546
  44.3583145  36.1585617  80.7238312  44.4968033  37.0735283  80.9685593
  43.5089760  35.9347801  81.1043243  26.7217159  49.6598320   2.6909468
  27.5061569  50.1008873   2.3648255  27.0402775  49.0926514   3.3931274
  51.1249695  11.2058420  81.8778152  50.9529572  10.8436775  82.7470016
  50.8036461  10.5379000  81.2721481  52.9373627  31.9851837  12.8391943
  52.1919365  31.4201698  12.6359062  53.6954117  31.4014683  12.8096771
  55.1465454  48.7300835  16.5094032  55.9345818  48.9233551  16.0015850
  55.2657013  49.2105827  17.3286438  32.4828720  65.5731964  48.1948204
  32.8564072  65.8023148  47.3438187  33.2370415  65.5251617  48.7823219
  14.6808090  53.2551003  24.8192158  13.8146515  52.8817520  24.6560802
  14.5548573  54.1998787  24.7310886  62.2331543   3.1186442   9.2668381
  62.3135147   2.2293437   8.9219923  62.4823265   3.0418210  10.1878395
  81.8939896  59.2487259  45.6458206  82.3663483  59.1646996  44.8175354
  81.9004745  60.1878128  45.8310394  48.2969437  42.5750694  23.9453297
  49.2347641  42.6534004  24.1202316  48.2085037  41.7423134  23.4817257
  41.9115143  58.9857788  31.8448029  42.5848656  58.4757462  32.2950249
  41.7827454  59.7550583  32.3996506  74.3471756  40.7655258  72.3931732
  74.2320328  41.6988029  72.5719757  73.4983902  40.4799004  72.0552216
  57.0163994   1.8181598  18.9930267  56.3822937   1.6130651  19.6801052
  57.1285439   2.7672813  19.0461655  15.7235155  53.4977379  54.6214142
  15.3429661  53.8971710  53.8391953  16.3125553  54.1670303  54.9697075
  49.3258209  14.8993092  36.3954506  49.9231682  14.7008924  35.6743126
  49.5910263  14.3042812  37.0967636   4.9074669  34.3277779  38.5732727
   4.4641256  35.1493340  38.3617859   5.7369905  34.5977821  38.9672546
  11.9117565  24.2420197  63.7351570  11.3810825  23.4504128  63.6458626
  11.2755127  24.9570999  63.7445145  29.6946640  64.0056992  39.5470123
  29.9484901  63.5845947  38.7257462  29.2508183  63.3171043  40.0420609
  78.0143585   4.1327019  44.5190239  77.6803436   3.2417467  44.4147720
  78.1385956   4.4481864  43.6238861  44.6877022  45.8391838  40.1678658
  45.4626122  46.3878937  40.0467567  45.0325089  45.0043488  40.4847145
  66.7468109  37.8078384  80.6243820  66.7087784  36.9166260  80.9715500
  66.2065506  38.3218994  81.2244644  61.8460732   1.2257633  87.0418472
  62.4845161   0.6899430  86.5711899  61.9560242   0.9782118  87.9599228
  38.8630371  47.8438835  45.4957581  39.0045662  47.2904739  44.7276840
  38.0590935  47.5054665  45.8899422  80.2420044  40.5247231  32.1545143
  80.9988632  40.6310196  31.5782337  79.6207886  40.0081749  31.6411934
  12.2748909  70.3872223  80.9721680  11.4783678  70.4703445  80.4478836
  12.8949041  69.9395218  80.3965149  68.7523041   0.7155250  60.3456230
  68.7916641   0.0099594  60.9912720  68.2790451   0.3363566  59.6050301
  55.9198875  30.5421753  39.3012581  56.2844467  30.8558311  40.1288757
  55.5053940  31.3134499  38.9145241  61.9692230   1.9396259  55.6909447
  62.0135689   1.2917702  54.9877014  61.5529022   2.7018352  55.2885170
  80.7829590   7.2634716  46.8100052  80.1428375   6.5576472  46.7189598
  81.3459854   6.9845266  47.5321045  26.6888866   3.6551678  88.7131729
  26.7260056   3.8026423  87.7681274  25.8347378   3.9982564  88.9757538
  83.6647415  46.3164215  30.5567493  82.9820633  46.7287788  30.0274582
  84.4388428  46.8616219  30.4162083  82.6081772  27.4676323  79.0677872
  82.8753052  28.0619049  78.3665695  81.6636429  27.3669815  78.9496155
  13.1480589  40.6524086  33.8349876  12.5276432  40.8339844  33.1290512
  12.7578287  41.0608101  34.6077499  52.2117462  34.4697990  88.0344315
  51.3510666  34.3755188  88.4425659  52.3280907  35.4148254  87.9363480
  77.9838257  26.6785069  55.2151718  77.6327591  26.3015003  56.0219231
  78.7128677  26.1045399  54.9800186  85.1991272  10.6454792  23.0799599
  85.1778793   9.7105970  23.2843533  86.1206589  10.8300877  22.8984871
  35.2127457  30.5569153  84.7769470  35.1073074  30.4657364  83.8299484
  34.3220062  30.6752281  85.1068192  46.5172958  25.7483311   1.5531188
  45.7286873  25.4471016   1.1019135  46.4071083  26.6967678   1.6206253
  62.5757523  40.6992607  77.3090591  62.6322365  39.7461777  77.2406921
  61.8404350  40.8536911  77.9020920  35.4109230  14.9932518  10.9243240
  35.3671913  14.9312801  11.8785143  36.3436432  14.9200859  10.7220535
  60.2267113   1.7621838  70.8124008  60.7053108   1.5139799  71.6033325
  60.8698463   2.2308187  70.2804337  69.1626358   9.9187908  44.5268707
  69.4580612  10.5995092  43.9222412  69.4142761  10.2414122  45.3922157
  33.9603348  57.6638908  52.0421143  33.2408752  58.2927551  52.0981979
  34.1409569  57.4248924  52.9512253  62.1227341  48.5278358  65.6796112
  61.7801361  48.0736427  64.9098282  62.2089462  47.8432198  66.3430099
  10.6062250  64.9454956  59.4445381   9.7079620  64.6155548  59.4667892
  11.0985146  64.3372726  59.9958534  45.3813133  60.7966576  29.4230099
  45.9785995  61.5446014  29.4309101  45.3699074  60.4896698  30.3295746
  85.6743088   6.0410156  33.3478889  86.5953598   6.1322351  33.5919724
  85.2844925   6.8883891  33.5629120  79.4888687  69.2269363   5.9987960
  78.8173676  68.5882034   5.7593479  80.2775269  68.9259186   5.5475273
  72.6232910  16.9952641  30.0738220  73.0007553  17.4193802  30.8444576
  72.5317154  16.0766373  30.3267441   9.9366760  31.0918388  68.5815506
  10.6392145  30.5510845  68.2206421  10.0017452  30.9683189  69.5285110
  46.2228088  43.4425049  18.3709774  47.1197472  43.6632195  18.6220188
  45.9032326  42.8906021  19.0847721  49.1051331   8.2043152  32.7993469
  48.7841873   7.5251775  33.3926392  48.4176178   8.8702984  32.8033524
  77.4040298  37.8576469   2.1947401  78.2544174  38.1184006   2.5483909
  77.6161194  37.2671013   1.4718969  46.5985184  63.7418823  69.6205444
  47.0363426  63.4840469  70.4317551  46.6876030  62.9801750  69.0477448
  15.4760962  33.7824821  56.5332680  15.4105091  33.2748833  57.3421364
  16.1368713  34.4489136  56.7216263  40.2444725   0.7982492  73.8385086
  39.6296005   1.4775453  73.5615158  40.9627914   0.8539773  73.2083054
  51.9672661  61.8892365  47.0922203  51.3573112  61.1517677  47.1102638
  51.4062386  62.6627617  47.0362167   3.9100096  46.8675613  10.5141459
   4.3299122  47.6234932  10.9246111   3.7814732  47.1305313   9.6027975
   9.1327333  47.7085114   2.9344547  10.0339718  47.5059547   3.1853964
   8.8256540  46.9199257   2.4871683  35.3846703  10.4804840   5.6765418
  35.2195854  11.0419855   4.9191155  35.1231613   9.6060762   5.3880000
  74.4623337  18.2657738   7.4837375  74.6110840  17.9957924   8.3899469
  73.6268463  17.8626385   7.2477832  42.4789810  18.0963383   9.6151352
  41.9535980  17.4618206  10.1025667  43.3849411  17.8638630   9.8186626
  39.6118660  15.2483282  14.3021469  38.8826485  14.8702765  13.8106689
  40.3909073  14.8330793  13.9321537   8.1026106  71.9574280  65.3692093
   7.5464253  71.2996750  65.7866440   8.9820004  71.5804825  65.3977203
  49.0215034  63.0452042  32.8543549  49.5069427  63.8480721  32.6646652
  48.8506737  62.6598930  31.9949474  49.2978363  60.7412148  74.0325317
  48.8459244  61.1945839  74.7441940  48.7181740  60.0141182  73.8054962
  19.4504375  66.6546173  26.4462166  20.3729076  66.8622665  26.2973461
  18.9917984  67.0607071  25.7107086  19.4135933  28.4205799  72.4904404
  19.3295441  28.0006561  73.3464966  20.3488941  28.3748951  72.2920532
  22.9289627  14.6982517  77.3496399  22.5128689  15.5568161  77.4268723
  22.4323483  14.1369801  77.9451065  85.2027283  65.4500427  68.8122253
  85.4505768  64.6977158  68.2748184  84.3268356  65.2364883  69.1338425
  64.5993347  24.7623329  34.7371140  65.4188995  24.5359879  34.2974434
  64.3568420  25.6120358  34.3690987  82.7734222  50.3443794  22.3622837
  82.3269043  51.1907501  22.3850632  82.0846176  49.7052078  22.5446053
  19.0042953  32.2418327   5.4425049  18.1599026  32.5612564   5.7606282
  19.5868263  32.9985123   5.5082731  33.5360298   3.2937834   7.5842829
  33.3145752   3.5917447   6.7020082  34.3092575   3.8051407   7.8227453
   9.8866529   4.6830730  82.8264008   9.6844702   5.5812216  83.0884781
  10.8158865   4.5774751  83.0303726  75.4470520  39.1188049  67.2281494
  75.6493378  38.1834030  67.2097549  74.6070709  39.1911583  66.7749023
  76.2218933   5.6019363  50.7975044  76.4064789   4.9909892  50.0841293
  75.3280563   5.9013224  50.6312027  47.7169724   6.2181654  27.2795143
  47.5674400   7.0771022  26.8844204  46.8791618   5.9909201  27.6828346
  41.7658043  52.8066826  64.7481461  41.0152664  52.8648262  65.3393707
  41.8205223  53.6729546  64.3446503  56.9761047  18.0777893  76.5814362
  56.4060440  18.8209457  76.7788620  56.6727600  17.7628078  75.7299652
  48.5414200  39.4095039  27.9141655  49.0906868  39.6185265  28.6697121
  47.9760780  40.1748581  27.8099861  72.8665848  13.7091637  66.9638901
  73.6841354  13.9593477  66.5334930  72.2726974  13.4954815  66.2442627
  49.9229660  68.1797714  12.6152906  50.6618919  68.6486664  12.2275343
  50.3074989  67.3781815  12.9700041  10.9764109  43.1011620  27.3440647
  10.9175129  43.4687920  26.4622421  10.3639669  43.6230278  27.8625221
  23.8537827  68.6890106  19.4461842  24.6037407  68.8922806  18.8871899
  23.6205502  67.7895660  19.2163315  63.4723625  33.3546333  23.2367897
  62.7282143  33.2682610  22.6409588  63.9899406  32.5629425  23.0899124
  49.8731384  29.5859966   9.1860065  50.1877937  30.4312019   9.5067110
  49.6061287  29.7568550   8.2828207  67.3773727  52.8823891  51.0114059
  67.9290237  52.8726349  51.7935944  67.5951385  53.7060089  50.5749893
  47.9166374  24.9833202  10.9681883  47.6087189  24.4084568  10.2675104
  47.8434982  25.8654289  10.6038151  34.0220451  62.3212814  30.6971149
  34.1837082  62.2927704  29.7540970  33.1630630  62.7353287  30.7804527
   9.7881365  21.3719444  67.2580185   9.8290291  20.4156265  67.2543564
  10.4134722  21.6358356  67.9329605  35.0107574  32.2568359  73.2782288
  34.2028923  31.9865723  72.8417206  35.5644455  32.5903397  72.5722275
  46.2214165   2.6631010  55.7640228  46.8759956   2.0152173  55.5032425
  45.9917870   2.4235692  56.6618690  60.1302567  27.2504559  84.4885712
  60.3677979  27.0720978  85.3985138  60.8558655  27.7749538  84.1500015
  55.1603546  42.4910622  76.1554565  54.3158646  42.9255486  76.2749939
  54.9862518  41.8011703  75.5151672  62.0912514  68.4493027  59.2862740
  62.6142426  67.8167877  58.7936935  62.0978432  69.2387390  58.7449989
  15.1124611  58.3388596  24.0224209  15.6380262  57.5992622  23.7174454
  14.3635082  57.9356155  24.4613914  26.1695900  31.9911690  79.2745743
  25.9810467  32.4438515  80.0966187  27.1181393  31.8631020  79.2837677
  75.1923218  65.4441605  30.6585217  76.0234070  64.9995346  30.4916687
  75.3701401  66.0103073  31.4095821  72.8034821  71.0231171   0.2753986
  72.9415817  70.5370026  -0.5375281  73.5707703  71.5907288   0.3483504
  12.4126406  10.2474871   8.5543575  11.7953444  10.7730331   9.0632572
  12.0212517  10.1959181   7.6823559  63.7663841  31.6156178  28.3192196
  63.7687569  32.3932571  28.8773441  63.9257202  31.9529781  27.4377251
  71.6149750  53.6995926  37.0318222  70.9132767  54.0540924  37.5778809
  71.9678345  54.4608650  36.5711937  60.7063828  63.7737846  58.3407364
  60.7989197  62.8271828  58.4485092  60.1558838  63.8737373  57.5640831
  83.8484268  61.0171242  54.1205940  84.2377396  60.4878159  53.4245338
  83.4876480  61.7796860  53.6682930  54.5903511  14.8528824  67.7043839
  54.5385818  14.9012051  68.6589584  54.5782623  13.9154959  67.5110092
  58.3624687  62.6309624  76.6603317  58.1640816  62.6149139  77.5966110
  58.6772652  63.5201149  76.4974060  75.4339905  36.4917603   6.6717868
  75.0566483  35.7427444   6.2104597  75.7515640  37.0667076   5.9754996
  47.0019493  22.8649597  58.3232040  47.8873291  22.5746784  58.5424500
  46.5808525  23.0102673  59.1704330  75.7045212  56.1119728  66.9321671
  75.4306946  56.7373009  67.6031494  76.5563049  55.7954826  67.2330627
  49.8180847  20.9292316  66.0729904  49.4188690  20.0598526  66.0407410
  49.2834740  21.4603214  65.4827652  63.6874580  30.7981281  35.4070740
  63.0934753  30.0476685  35.4222107  63.3780365  31.3337955  34.6766319
  86.4282837  19.3214474  37.9303856  86.1868515  18.6648598  38.5837135
  86.0316925  19.0077419  37.1176491  67.5115433  10.3800163  62.1676216
  68.1402740  10.9664192  62.5884132  67.7961121  10.3391104  61.2546158
  10.8360023  16.0066853   0.4588708  10.2834682  16.1929245  -0.3002427
  10.3901405  15.2894535   0.9094455  76.2540054  20.1754799   2.6890256
  76.0098877  20.1338177   1.7644166  76.9625397  19.5381527   2.7786283
  70.2617264  62.4577789  77.8773117  70.1894608  63.3827896  77.6420059
  69.3579102  62.1428871  77.8913193  84.5815506  58.2580833  58.0055771
  84.8094330  57.3287315  58.0301170  83.7017746  58.2791061  57.6290512
  23.3570023  69.5820694  47.0682297  22.4598560  69.3312454  47.2883415
  23.2591419  70.3376770  46.4888306   2.1789899  27.9033279  84.6275864
   3.0823138  27.6043224  84.7316666   1.9602997  28.3025036  85.4696426
  26.2093754  24.3913174  42.8339577  26.8261909  24.0543861  42.1841507
  25.4163818  24.5844822  42.3338776  86.6473083  44.7223701  39.0494690
  86.5496140  45.6210938  38.7348518  87.2835083  44.7858086  39.7618256
  31.7914734  21.9456558  83.9778595  31.0004978  22.2389736  84.4301376
  32.1730576  22.7467136  83.6187820  31.9938240  45.0954857  21.4676495
  32.4740868  45.6819992  20.8832016  31.1704369  44.9235802  21.0107956
  60.6326637  46.7942162  40.8133621  60.1811142  46.3606491  40.0892372
  60.8256989  46.0894051  41.4315948  68.4943619  44.0011559   4.0605016
  69.1986008  44.6487045   4.0294971  67.9692841  44.2545052   4.8196678
  62.0704041  25.4640045   2.5425067  62.8398514  25.2800217   3.0813303
  61.5165825  24.6898594   2.6435561  25.0958385   7.0136013  17.2252312
  24.5429325   7.5146475  17.8247967  25.9887810   7.2811604  17.4427128
  45.9697533  53.4065742  48.1366615  46.3957710  52.7983665  48.7406693
  45.5774803  54.0711479  48.7029648  70.1511230  30.3494530  43.1272202
  70.9621048  30.7115421  43.4842072  70.3671341  29.4413166  42.9154129
   8.9005022   9.7618876  62.6798630   8.7487297   8.8236599  62.5661697
   8.0840578  10.0929689  63.0540771  60.0369148   9.5626011  20.6956234
  60.0310364  10.4862156  20.9468861  60.8563957   9.2220097  21.0543442
  19.2939835  37.0458412   7.7888083  19.9765434  37.2231102   7.1415691
  18.8950157  37.8996887   7.9561424  75.5694504  42.0000191  49.6599846
  75.2629395  41.8757782  48.7617378  75.9408798  41.1527214  49.9056625
  30.9363041  36.7235489   8.2515860  30.5320396  37.1992798   7.5259943
  31.3431244  37.4044914   8.7873487   7.8188391  60.9585381  18.1358376
   8.3583670  61.3973732  17.4781399   6.9791255  60.8145561  17.6995087
  51.4241905  31.8155499  71.2827072  52.3453560  31.6297379  71.4647903
  51.2997742  32.7186317  71.5745926  80.8346634   4.7884145  24.2542629
  81.2289658   3.9557822  23.9944916  80.5089493   4.6329203  25.1408081
  79.9084549  49.5125542  23.3557720  79.6570587  50.4347305  23.3045406
  79.2414017  49.0537338  22.8451271  85.7521896  28.4302139  72.6081619
  86.5739136  27.9497604  72.5073471  85.8611145  29.2083874  72.0615234
  80.3279266  60.7920876  69.8964157  80.9087448  61.5399094  69.7562637
  79.4724045  61.0925026  69.5897064  54.6743507  69.7718124   3.9008534
  54.4540100  70.6717682   3.6605089  54.5914574  69.7513809   4.8542385
  44.1733856  10.6504135  80.4910278  43.8260498  10.9270878  81.3389893
  44.1469536  11.4409103  79.9519119  32.7291679  29.4970894   8.4566402
  33.4068832  30.1667194   8.5489836  31.9439106  29.9839535   8.2065048
  73.0711670  16.6977005  75.0543594  73.7523956  16.3573704  75.6342926
  73.5364838  17.2808723  74.4546738   1.0036933  54.1717873  68.3456573
   1.7902792  54.1105614  67.8036499   0.5192564  54.9128838  67.9818802
  75.5408630  33.9632912  18.5960598  75.0494232  34.7827721  18.5396976
  75.1875916  33.5249214  19.3701820  80.5285873  42.5350723   2.0031683
  79.9164200  42.6653976   2.7273943  80.3791199  41.6321564   1.7227508
  71.1392975  43.7018585  38.6352539  72.0527191  43.4523544  38.4951248
  71.0047531  43.5990601  39.5773621  11.8948154  11.4894009  28.3197651
  11.8009405  10.5395908  28.2470913  11.1087112  11.7727470  28.7866554
  31.0883884  65.8132782   5.7627726  30.6821556  65.3930130   5.0047588
  31.9802895  66.0114746   5.4773536  69.9996719  50.2696037  34.6137772
  70.6460037  49.5897560  34.4232864  69.3300323  50.1593399  33.9387512
  41.0211716  53.5236702  46.2744408  40.1778069  53.7369156  46.6738091
  40.8821716  53.6552811  45.3365746  69.0663986  68.2310486  69.8280487
  68.8596802  68.8459854  69.1242371  68.3407135  67.6068954  69.8216019
  74.5094528  32.8438911  88.8026123  73.8125229  33.4848022  88.9431763
  74.8363190  33.0344620  87.9233704  34.8588715  62.9050102   1.9566461
  34.0030136  62.7050171   2.3357792  35.3618774  62.0973969   2.0614138
  62.2030487  47.7156677  38.1528664  62.3964767  47.0366173  38.7991714
  61.8749428  48.4516029  38.6695595  46.6494675  48.1521912  62.6377869
  46.1304588  48.2327271  61.8375511  46.1734657  47.5136452  63.1687355
  10.0101242  60.2040939   8.8081217  10.5852184  60.5301476   8.1158886
  10.4942322  60.3661308   9.6178226  80.8315201  45.4849167  34.6817284
  80.3791351  45.9270859  33.9633522  81.7614288  45.6012878  34.4868965
  16.4358292  12.7540169  14.2640085  17.3064060  13.1509018  14.2924652
  16.5676498  11.9194708  13.8141327  32.6957970  56.3889198  33.4277534
  32.3649330  56.8090401  32.6338615  32.0589676  56.6197205  34.1040764
  69.9392166  26.9424610   5.8630939  70.0582047  27.4267502   5.0460639
  69.1294708  26.4488392   5.7331758  82.3895874  50.4947472  51.1846924
  81.7446823  49.8239403  51.4090729  82.9016495  50.6118851  51.9848785
  68.0029602  65.9475021  45.6972046  67.4498138  66.7265091  45.7555771
  67.7572708  65.5410156  44.8661613  15.1876421  11.4445171  20.1826897
  14.5186090  12.1174440  20.0570145  16.0125103  11.9292850  20.2114258
  43.5014954  37.7290916  65.7783356  43.5220795  37.7627983  64.8219528
  43.4633560  38.6462708  66.0495605  58.7796135  46.2598648  26.4892635
  58.4337807  46.7507477  27.2346916  59.1713905  45.4779778  26.8783588
   5.6197624  42.4703827  42.3874702   5.0135765  42.4575043  41.6467896
   5.3116679  43.1913185  42.9366112  75.0868149   5.2454038  69.1101379
  74.1893082   5.2433691  69.4428558  75.0640945   5.8438959  68.3634567
  68.9126740  53.4962730  53.2396240  69.1904297  53.2538528  54.1229820
  69.3516464  54.3299713  53.0708580  43.5163345  57.1349258  36.7332153
  42.8942528  57.1912041  36.0079041  44.3181686  56.7958984  36.3352814
  75.0603714  47.3459549  48.9013863  74.8503418  46.4648933  49.2109795
  74.5790863  47.9276505  49.4897881   9.8172951  51.9190788  51.9780273
   9.6130762  51.8232231  52.9082603   9.1588430  52.5315781  51.6501312
   6.8013277  71.0625229  55.7745628   6.4042683  70.3794556  55.2341995
   7.6044750  70.6650925  56.1110687  68.4357605  13.6354733  51.5110283
  67.9833984  14.3115664  51.0065498  67.8500824  13.4527273  52.2457466
  26.6877918  44.6779060  52.7590027  26.2737827  43.8183022  52.8359146
  26.8447819  44.7850609  51.8208656  33.9790955  51.8116379  86.0195618
  34.3298454  51.1718903  85.3999405  34.2428780  52.6599045  85.6630630
  70.7764130  22.7279148  29.9982147  71.0928726  22.0017986  29.4607773
  71.5602646  23.2420864  30.1916771  47.9261131  11.4224958  33.2434235
  48.2508163  11.9535198  32.5162315  47.0790291  11.8101110  33.4635086
  61.9471512  66.8912048  27.2501793  62.2362785  67.3286057  28.0510025
  61.7443542  65.9971542  27.5254383  50.3450851  51.7318077   5.0348010
  50.5179443  51.3506660   5.8956623  50.9976540  51.3315048   4.4602184
  61.3488235  30.5857410  28.5567646  62.1066589  31.1616650  28.4556332
  61.5553665  29.8214226  28.0188160  82.3548508  10.1227932  38.1916809
  83.0600433  10.7662344  38.1214905  82.0388794  10.2108803  39.0909195
   2.4917614  23.1901932  26.0274658   2.9047370  23.0665627  25.1728306
   2.4577315  22.3118267  26.4063396  69.4038620  68.8963242  13.2967730
  68.6336365  68.5086670  13.7123623  69.0652313  69.3084564  12.5019741
  45.1589165  43.2890434  41.1690941  46.0592308  42.9722748  41.0960999
  44.7211914  42.6413918  41.7215195   8.7379274  41.5828667  42.5556946
   8.8700724  40.8391800  41.9677353   7.8232994  41.8326302  42.4241409
  80.4514999  39.9255447   5.6657286  80.3056641  40.1813240   6.5765195
  81.4017639  39.8383369   5.5906582  47.3437004  46.0022354  31.2423878
  47.7539597  46.3803215  30.4645882  47.0561142  46.7588959  31.7532635
   9.5870323   4.4856825  75.2246780   9.3827915   3.9477086  75.9895935
   9.1010571   5.2980461  75.3665390  48.8365479   9.1342249  17.9559269
  49.6975555   8.9604654  17.5755177  48.3386269   9.5400248  17.2462578
  35.4169960  45.4409790  15.2614813  36.0250473  46.1107750  14.9486275
  35.8529282  44.6115685  15.0658464  20.0503502  66.7915268  19.4576607
  20.7734489  66.2485352  19.1437874  20.3437595  67.1113129  20.3108196
  70.7233047  42.8488731  33.8107414  71.4867401  42.6299896  34.3450470
  70.1654968  43.3670044  34.3909302  62.7615585  71.5550461  47.1810074
  63.3507652  72.1737900  46.7494698  63.3094559  70.7925339  47.3670502
  35.5957375  35.7057419   9.9574146  35.9698601  36.1404228   9.1910486
  36.0506363  36.0994263  10.7019358  52.0464592  43.5504494  22.2686386
  52.3531952  42.6505051  22.3792934  52.6221619  43.9190331  21.5986061
  84.4390488  54.6991768  27.6133366  84.1777878  55.0269775  26.7528000
  83.6250992  54.6713715  28.1162739  68.9740829  31.1725101  22.3423862
  68.9506378  32.1041565  22.5608215  69.9033051  30.9787731  22.2188797
  16.5012302  15.8388119  30.3234005  17.4213638  16.0842972  30.2268486
  16.0872726  16.6093864  30.7120991  59.7065430  22.8820953  59.0039635
  59.0662842  23.3477287  58.4659233  59.1907310  22.2325726  59.4817619
  42.2218971  15.6773624  66.0559998  41.8989143  14.9056654  66.5211868
  43.1339035  15.7606058  66.3344650   8.1239614   7.1513929  62.6059723
   8.6562014   6.4097610  62.3179893   7.3345385   7.1033611  62.0667725
   2.0206816  38.3687820  12.4216270   2.1702979  37.5116501  12.0226612
   1.3613305  38.2070694  13.0964146  76.1909790  24.6873741  17.0693741
  75.7416458  25.3198586  17.6299992  77.1215134  24.8680038  17.2024555
  17.9768391   5.2975855  73.4937134  17.2864876   5.5480633  74.1076355
  17.6555710   5.5885944  72.6402893  47.9583588  63.4069901  38.9428864
  47.2147026  63.9030647  38.6006584  48.6838303  63.6300087  38.3596306
  84.0265579  65.9374619  77.6690445  84.8287659  65.5945282  77.2752228
  83.7681732  65.2707596  78.3054199  74.7919769   7.5327830  44.3445053
  74.7555618   7.4295764  45.2954254  74.6267319   6.6544614  44.0017586
  54.6675110  24.2107029  70.7863007  55.4683952  24.2151470  70.2620926
  54.1131935  23.5499268  70.3711624   0.4190130  46.5165634  55.5874443
   0.4670079  45.8302345  56.2529373   1.2474349  46.4482994  55.1127968
  18.9005928  37.6358528  11.4270563  19.1929932  36.7276459  11.3502808
  17.9474049  37.5875778  11.3540182  42.9534416  37.4883118  19.5349674
  42.4969063  38.2339668  19.9245853  43.8335228  37.8162460  19.3501778
  19.7522736  63.7934227   0.9784596  19.2654762  63.6465874   1.7894456
  19.6055412  64.7171555   0.7749406  77.4218292  25.4716434  41.7851562
  78.3527756  25.5096512  42.0045242  77.0760880  24.7645149  42.3298264
   2.2674520  11.7302961  71.1406326   1.9348967  11.8801422  72.0256119
   1.7522737  12.3183994  70.5884094  58.8481865  70.2872391  79.0212402
  58.5784912  70.0278244  79.9022598  59.2622223  71.1421204  79.1394730
  31.6070938  34.4111137  65.7993546  30.9411297  33.8355904  65.4232025
  31.5430870  34.2665138  66.7434082  27.6590214  70.7117615  40.2796478
  28.5169315  70.2934494  40.2072792  27.5664749  70.9087601  41.2117767
  19.4051723  42.6965408  86.4143829  19.9643955  42.1376190  86.9539261
  19.9669209  42.9680099  85.6884460  79.1319122  28.5580006  66.0244904
  78.5716400  29.0168629  66.6504135  79.5148773  29.2541389  65.4906769
  80.4542160  69.9064636  49.6326523  79.7401123  69.2749557  49.7191544
  80.0968018  70.5972443  49.0747032  68.9712296  51.2648582  46.5294304
  68.6485214  50.3637428  46.5203857  68.3231583  51.7462006  47.0437660
  70.3226242  18.8826065  68.3194962  71.1104813  19.0396290  68.8399353
  70.2014542  17.9335575  68.3487473  85.1056061  33.1862068  85.2234039
  85.9762039  33.4999161  84.9787292  85.2377014  32.2656937  85.4502106
  57.9973297  25.0103760   3.3768871  57.9777718  25.2559376   4.3018460
  57.2089882  25.4076767   3.0068836  85.5088730  23.5965557   6.1238236
  85.0573044  24.3838882   6.4278407  85.2558594  23.5153370   5.2042475
  84.9818268  31.7201424  80.9805679  85.7602692  32.0232697  81.4478683
  84.5465317  31.1313190  81.5970383   5.7370491  66.9146652  20.8519917
   6.3260384  66.2045593  20.5969028   4.9058018  66.4797745  21.0420647
  76.3875580  17.8741550  59.0824814  77.0116730  17.2365665  58.7357979
  75.5288391  17.4951725  58.8948517  25.4152927  20.3433609   0.8315244
  26.2176247  19.8244572   0.7746494  25.4668751  20.7712555   1.6862041
  45.5014687   1.6023351  19.6403522  45.9692078   2.3110056  20.0822086
  45.1926346   1.0398302  20.3505917  56.1917915   0.3132640  35.7711868
  56.0647049   0.3175441  36.7199020  55.5880089   0.9808688  35.4456406
  13.5347576  27.5902786   3.0272818  12.8260393  28.1107635   3.4054968
  14.3346529  28.0334282   3.3101554  39.2131424  60.9201851  55.2364731
  38.4992790  60.3803787  55.5759392  39.2341957  60.7275658  54.2990875
  74.4494400  52.5040321  57.5418320  73.6714249  52.0758018  57.1846962
  74.8003922  51.8755836  58.1727982  45.9512825  39.8503647  66.6590652
  45.6613007  39.6210098  65.7761536  46.8754425  39.6019020  66.6797409
  19.2989082  51.3576508  56.2382584  19.6804962  50.7015724  56.8215103
  19.6462460  51.1401100  55.3732376  59.6763954  24.2146492  75.2766800
  59.0469322  23.5301361  75.5035019  59.6467056  24.8218689  76.0160294
  58.5679131  58.2626419  88.2269745  58.7520714  58.6284409  87.3618164
  59.4161263  58.2579422  88.6705322  72.2369232  44.1686707  81.6794281
  72.2083969  43.2578163  81.9722748  73.1590500  44.3263512  81.4768219
  86.3883820  52.6639023  19.7033234  85.8331223  51.9001694  19.5463753
  85.7798538  53.3503075  19.9767742  80.0893173  39.7989731  45.2048836
  79.7000122  39.3018570  44.4854698  80.9236069  39.3614349  45.3744354
  72.3991318  31.3697662  28.6561298  72.0143204  30.6820793  29.1994915
  71.7034531  32.0209846  28.5657063  65.9424286  62.0201035  55.6489220
  66.1596146  62.4701424  56.4653358  66.2587662  62.6058121  54.9610939
  82.0564575  36.4544373  33.9072571  81.8952713  37.0039673  34.6742401
  82.2989883  35.6023903  34.2697868   3.3672709  36.1870880  69.9685745
   4.2554035  35.8663483  70.1253433   3.1344972  36.6505508  70.7730942
  24.2157211  56.3101196  30.5839386  23.8057652  56.5251236  31.4217587
  23.8361130  56.9334450  29.9645901  21.7678146  22.4136658  69.2686768
  22.2086926  21.5969906  69.0343628  21.0869675  22.1493225  69.8873825
  31.9796925  11.2430811   6.1719551  32.0731239  11.8509912   5.4385061
  31.8367939  10.3909416   5.7600446  79.9753876   4.6581454  62.8543968
  80.2223053   4.1711097  63.6405640  79.4194336   4.0535598  62.3628464
  48.7311287   2.8150907  77.0715942  49.2614861   2.5576463  77.8256989
  48.9117737   3.7483385  76.9591293  34.1453896   8.9818220  71.4141312
  33.3013573   8.6545916  71.1030655  34.5266571   9.4214640  70.6541367
   6.0767593  58.0740242  80.3470840   5.2979717  58.3212051  80.8457108
   6.8058295  58.4527130  80.8382950  12.2091093  21.0313683  85.7079010
  12.4589596  20.5125103  86.4724884  13.0304089  21.4142151  85.3994675
   8.8433990  63.4058113  55.2587395   8.7180386  64.3537598  55.3024025
   8.1556683  63.1002579  54.6672173  11.8422356   6.7301621  86.3886032
  12.7229338   6.3989620  86.2127914  11.9754381   7.6451354  86.6362152
  27.4908924  59.6610985  46.3698425  26.9242649  60.4255753  46.2661934
  26.9484062  59.0217056  46.8314896  21.9673576  24.8052826  87.3600540
  22.8772583  24.5627136  87.5317230  22.0062904  25.3310432  86.5611191
  62.5730667  30.9548225   2.7629807  62.0679855  30.4102383   3.3667650
  63.2723656  31.3247013   3.3018684  15.9373713  43.3276787  39.4927597
  16.1997223  43.9616432  40.1602135  15.7707701  43.8564835  38.7124786
   9.5590630  14.5803022  17.5997181   8.9360113  13.9480066  17.9578247
  10.4144812  14.2654343  17.8918648  55.6602974  30.7084751  88.5219955
  56.3805962  30.1348095  88.2606277  54.9170685  30.1182442  88.6463776
  47.2891769  32.7478027  73.4571533  47.6282539  32.7376556  74.3522263
  47.7632523  33.4609718  73.0295105  35.4341011  54.0007629   7.1653061
  36.3102798  54.3722649   7.2679205  34.8447456  54.7502518   7.2498889
  65.3398743  48.2685051  25.2418671  64.4461517  47.9515724  25.1113033
  65.6916351  47.7132797  25.9377289  66.4017258  21.3988800  54.8025360
  67.2741089  21.4222889  54.4093170  65.9888382  22.2142620  54.5180931
   5.4720526  56.7389030  63.7490540   4.7456379  56.2956848  63.3107491
   5.8686295  56.0628395  64.2985001  79.7870865  33.5713730  68.7736740
  79.9629288  34.3882141  69.2406616  78.9477539  33.2717285  69.1229019
  62.6420898  49.0562668  50.7194748  62.5535698  49.2880783  49.7949982
  63.5564423  48.7889290  50.8128777  45.5921478  51.5053825  84.8401337
  46.4170761  51.9423065  85.0518494  45.1658173  51.3751411  85.6872025
  62.7125053  52.2576866  86.2596207  62.1805115  52.2873878  87.0548096
  62.6049156  51.3645020  85.9326935   7.1788721  53.7020073  35.4631653
   7.7802086  53.3153877  36.0996819   6.3074994  53.5119286  35.8107452
   5.8510633  27.3177338  30.8731575   5.4938064  27.6635876  30.0552444
   5.3100362  26.5520058  31.0659847  29.5639725  45.1928749  20.4744244
  28.9035683  44.9791489  19.8153191  29.7051773  46.1344147  20.3754673
   3.1999292  53.7333946  83.5794983   2.8506107  54.4616127  83.0657730
   3.8557541  54.1351585  84.1493378  63.6185913  69.6650467  87.1823044
  64.1150818  68.8933792  86.9098053  63.9828682  69.8946304  88.0371857
  79.4085693  18.3678474  83.5170059  80.1668320  18.0460358  84.0045624
  79.7640228  18.6322346  82.6684875  34.6172562  10.5320921  67.4246216
  35.0792503  10.3183031  68.2352295  34.2449379  11.3996134  67.5827942
  78.6017227   6.0020704   5.4910612  79.0861282   6.8276501   5.4902177
  77.9055786   6.1334896   6.1347623  56.4704170  24.7098713  63.7996330
  56.1142197  23.8214149  63.8003159  55.7055435  25.2746544  63.9101601
  39.8774071  53.6466370  30.5831051  39.5742950  53.9494743  31.4390507
  39.3615875  54.1511307  29.9541016  34.6901398  22.6317596   9.0424442
  33.9758415  22.0067043   8.9186935  34.2649651  23.4154930   9.3906107
  54.1521912  71.0552063  15.9793243  55.0796013  71.2868576  15.9295292
  54.1354179  70.2406693  16.4817905  80.8107452  26.0163269  69.1197205
  81.3785019  26.0397892  68.3494415  79.9385300  26.2175083  68.7805862
  42.8783531  34.8464165  68.9693527  43.0813866  34.1207924  69.5596695
  41.9529648  35.0326233  69.1281433  12.7052841  18.5260944  71.8430939
  12.5613565  17.5940609  71.6792984  13.1158848  18.8495903  71.0412292
  55.6064949   8.9571638  58.6844444  55.1396675   8.5936546  57.9320068
  55.4429359   8.3334866  59.3919144  70.9306030  41.1391792   6.0077558
  70.9080276  41.7848778   5.3014998  70.3114777  41.4727325   6.6571088
  80.0548172   2.7340221  64.6703796  80.5419464   1.9152899  64.7632065
  79.1353531   2.4681044  64.6803055  52.9097214  40.4880486  21.6190205
  53.0368309  40.2849388  22.5457478  52.1128311  40.0159798  21.3774719
  84.0497360  67.6230469   2.4743793  84.3458023  67.2168961   1.6597521
  84.7467270  67.4349365   3.1029105  82.4183044  68.8149033  37.5614243
  83.0511246  68.1654434  37.8679733  82.9410782  69.4406204  37.0600204
  23.4190998  69.3180313  80.4029617  23.3920212  68.8597107  79.5630569
  24.3170776  69.6426849  80.4698181  69.2386322  22.2081242  33.8488274
  69.4309540  22.3551178  34.7749138  69.8748398  21.5478897  33.5739403
   0.7467470  36.5878716  59.1905594   0.4179151  36.6896553  58.2973976
  -0.0405278  36.5656776  59.7345619   2.2827313  66.9359970  76.4912415
   2.8387923  67.2552567  75.7805405   2.8977320  66.6162720  77.1513824
  47.0793953  59.5789986  17.4108410  47.3682137  59.8597832  18.2791576
  47.7766800  59.8670578  16.8217335  79.5261765  10.3335724  28.2462578
  78.9569702  10.2291880  29.0087147  80.3800278  10.0154400  28.5394516
   4.4058723  61.6439171  83.0977936   4.5925446  61.6236458  84.0363922
   4.1841745  62.5574417  82.9173584  53.7842789  29.0099964  52.7847404
  52.9523888  29.2968292  53.1614647  53.7544365  29.3151093  51.8779602
  47.5810966   6.8079205  61.3417282  46.8849068   6.1698251  61.1855736
  48.0164642   6.8996081  60.4942131  59.8575821   2.7532673  67.6445770
  60.7885857   2.5309696  67.6513519  59.4339638   1.9980198  67.2366791
  38.9992523  26.8854561   3.4207242  38.7898178  27.7863407   3.6672549
  39.8897591  26.7494335   3.7443416  46.0060501  55.2443962   9.6634970
  46.2067451  55.1623154   8.7311802  45.7354469  56.1562500   9.7708702
  20.1787357  14.2448664  65.5281677  19.2223415  14.2300549  65.5645218
  20.4553242  13.7384977  66.2919159  49.7104492  18.5329075  57.7622452
  48.8980865  18.8887215  58.1223831  50.3595467  19.2206345  57.9103508
   8.0316315  69.0679245  13.8191948   8.8668222  69.4967957  13.6327724
   8.1315193  68.7248306  14.7071943  67.1394577   6.9660478  10.9899702
  67.8041229   6.6361327  10.3853111  67.6388016   7.3065591  11.7322264
  54.2037697  10.6041546  76.1920853  53.4774208  10.0426292  75.9212799
  54.9634438  10.2542982  75.7265472  73.4243546  16.9446068  21.6673012
  73.0731964  16.7799530  22.5424061  72.8163910  17.5742779  21.2798347
  69.9233856  26.6969433  77.7908859  70.2847290  27.3547592  77.1968002
  69.6274490  25.9914455  77.2156219  22.1710892  50.1509705  19.1912460
  21.2422371  49.9847183  19.3519516  22.4571075  49.4123878  18.6537304
  38.5373001  48.0670471  60.6067200  38.1818733  47.9206772  59.7300911
  38.5764008  49.0195122  60.6933632  76.7592697  46.5001831  38.9835892
  75.9444275  46.2621193  38.5413361  76.5321655  46.5132790  39.9133644
  66.7752380  45.1319962  43.6664810  67.5963058  45.2478447  43.1882935
  66.4511108  44.2773438  43.3823318  23.1966171  35.3652420  68.3032379
  23.1852055  36.1205330  67.7153320  24.0592213  34.9719238  68.1711502
  25.9532814  16.1477013  87.6209641  25.2740936  15.6212721  88.0426331
  25.5356598  16.9940491  87.4612122  65.0909958  56.4821587  53.7043648
  64.4231949  56.3179779  53.0385399  64.6011353  56.8066902  54.4599762
  33.6228790  59.2026558  17.2913227  34.4258919  59.3746834  17.7830601
  33.0523071  58.7525711  17.9143047  11.4840460  10.4504566  20.0145588
  10.7557211  10.3565578  20.6285267  11.7627687   9.5526171  19.8344746
   8.8064127  22.7714119  13.9074993   8.4690332  22.0418568  14.4272652
   8.2693119  22.7695675  13.1151924  66.2218857  36.8226814  50.6432686
  66.5894623  36.4816170  51.4586182  66.8911743  36.6397743  49.9838486
  22.4336643  59.9313278  59.7160683  22.8621845  60.2461395  58.9201431
  22.0409527  60.7141571  60.1023102  79.2252960  46.5717125  83.0738907
  78.5777206  45.8716393  82.9915771  79.0287857  46.9819450  83.9161072
  45.7404976  24.2425690  25.5204048  45.0570259  23.7979717  25.0189743
  46.5478821  23.7879848  25.2801762  42.0028114  24.4547920  19.8751316
  42.7531357  24.0982628  19.3995991  41.9711800  25.3759098  19.6167297
  23.0923328  57.4828758  46.0018501  22.9356995  58.2771988  45.4912148
  23.4320087  56.8527374  45.3664169  21.4011707  52.5039673  71.8663864
  22.1855011  51.9840546  71.6910400  20.7028065  52.0506706  71.3941116
  76.3373413  11.6490746  43.4700012  76.3273163  12.3603802  44.1104507
  77.1739578  11.2073908  43.6156807  85.5793839   2.7373958  60.9313087
  86.0130234   1.8843745  60.9545593  84.7061691   2.5528231  60.5853882
  66.4758606  62.4382515  60.7841759  65.8256531  61.9358063  61.2751083
  65.9777832  63.1548386  60.3909149  44.7449226   1.6767565  36.5802574
  45.1229782   2.5508859  36.4843216  44.3076935   1.6970094  37.4315224
  49.6578865  13.1995821   9.5991163  49.8378601  14.0315962  10.0368309
  49.4957504  13.4391336   8.6866693   7.7637868  43.0201950  33.1538277
   6.9369807  42.8363304  32.7079391   7.6709743  42.6050224  34.0112915
  82.0529099  29.0626240  21.5643005  81.3633270  29.6734447  21.8243084
  82.2023010  29.2503834  20.6376610  73.1272964  47.1783943  10.1319342
  73.3866196  46.5052376   9.5027733  72.7628021  46.6891747  10.8695230
   0.9823742  15.8312883  69.9789658   1.3361512  16.3787498  69.2779999
   0.0346308  15.8560648  69.8470535  14.9000149  10.9842558   8.5045013
  15.1346626  10.7713079   7.6012707  13.9964714  10.6815081   8.5949717
  21.7874317  58.3890343  41.8834610  22.1450577  59.2263680  41.5881538
  20.8754311  58.4023438  41.5931015  65.0415726  65.9820328  52.8068924
  65.4033432  66.3293762  51.9916000  64.6302032  66.7371979  53.2272835
   1.7065958  20.8204021  85.9992294   1.3866792  21.7220306  85.9683838
   0.9675462  20.3155060  86.3385162  17.2705212  71.0344772  10.5304394
  17.2317524  70.3673401   9.8451252  17.8460388  70.6597443  11.1972122
  34.2135429  12.4995441  20.4199238  34.8609314  13.1470900  20.1409931
  34.3923149  11.7324667  19.8759899  10.2394476   4.7334433  16.1736794
   9.6628160   4.6764879  16.9355755   9.8779135   5.4504919  15.6527519
  49.0229797  46.9693146   2.9337528  48.3960495  47.5812950   2.5481813
  48.8706589  46.1461830   2.4695468  50.9359245  23.2721825  20.7774410
  51.3007164  22.4038696  20.6065903  51.3660965  23.5583878  21.5832157
  84.2718964  55.6553268  50.7507401  84.2889328  54.7018166  50.8329201
  85.1565018  55.8872032  50.4680061  78.2918930  22.0214767  67.6024399
  77.8947067  21.6671467  68.3980103  77.5689316  22.4498482  67.1441193
  78.8435974  61.2170639   6.2697606  78.4203491  61.9133568   6.7720222
  79.5383148  61.6609383   5.7833776  64.6215591  22.2473793  76.6289749
  64.6410065  21.5171127  77.2474899  64.4037781  21.8438683  75.7887497
   7.6435604  71.3311844  81.0747910   7.1009817  72.0854187  80.8446426
   7.7364020  71.3842697  82.0260010  78.1199112   3.8341801   0.2263302
  78.3578568   4.7598538   0.2786841  77.1722641   3.8377333   0.0914816
  71.6498032  57.5165558  79.6511383  72.1442566  57.4076271  78.8388062
  72.1331482  58.1840286  80.1380615  12.2651825   0.1218270   7.2264738
  11.4435062  -0.0336390   6.7607374  12.9304819   0.1410640   6.5385504
  85.7853928  28.8837318  33.2663727  85.7958527  29.5393658  32.5690422
  86.6832809  28.5535641  33.2981796  43.4852715   1.5610763  30.7015400
  43.0627098   1.7711276  31.5343361  43.9911346   2.3444009  30.4853535
  63.5992088  43.5684547  41.6272316  63.0608940  43.3758545  40.8595390
  64.4998093  43.4607887  41.3213692  75.6650620   3.0497401  48.6133461
  75.4025650   2.1445088  48.7803345  76.6213379   3.0327961  48.6517868
  15.6649580  62.9357452  13.3560944  15.3760948  63.7246704  13.8147774
  16.5335445  62.7544289  13.7151394  13.6917410  23.3720646  21.9308033
  13.8744411  24.1849899  22.4019775  13.8247623  22.6829147  22.5816555
  35.4968987  44.0901985  20.2709465  34.8605003  43.8665352  19.5918293
  35.9428482  44.8675346  19.9346237  35.1493530  49.7698708  43.8948898
  34.1986504  49.8118744  43.9980049  35.3136520  48.8951149  43.5426941
  77.3239136  63.4352074  37.6076698  78.0476074  63.0457878  37.1169052
  77.1584091  64.2695694  37.1687088  43.1930771   3.8671985  62.8443222
  43.5064812   3.5296998  63.6834335  43.9507446   3.8041821  62.2627716
  46.4354897  60.5521240  46.3364182  45.6942177  60.0164413  46.6188927
  47.1517906  59.9278336  46.2206306  67.2885361  57.7116890  52.5555954
  66.5377808  57.5442162  53.1252975  66.9067383  57.8365974  51.6867676
   4.3562403  54.9191093  80.4648743   4.6167307  55.7280426  80.0244217
   4.0656757  54.3438950  79.7571106  20.5751743  53.3959236  51.2223434
  20.2023964  54.1177826  50.7161903  20.7712898  52.7227211  50.5707550
  65.7787170  70.0521698   9.6586905  65.5752411  69.2806168   9.1299772
  66.7169647  69.9813690   9.8345327  32.9788399  68.3898163  17.4578743
  33.0968475  67.7906647  16.7207718  32.7669754  69.2303162  17.0517864
  61.3382111  33.0122795  63.4979553  61.4071922  33.5492516  64.2873459
  61.1829567  33.6412086  62.7932739  47.9507828  33.9879799  59.3464355
  48.5869751  33.5146866  59.8826065  48.3756409  34.8234482  59.1522179
  36.8041306  37.4613686  30.1602573  37.6347618  37.8230515  30.4692364
  36.2499733  38.2274818  30.0112286  27.8514957  19.0159626  72.2878418
  28.4728088  19.4308910  71.6894760  26.9943943  19.1791325  71.8941574
  47.5810165  43.6543846  69.6428833  47.7209282  42.7355652  69.4139252
  46.8123589  43.9134903  69.1346893  33.4891853  25.8400688   5.4083910
  32.6638451  25.4270382   5.6622543  34.1550636  25.3769608   5.9166913
  17.9410267  71.5218582  52.4703178  17.7337856  72.2847137  51.9305649
  18.1260433  70.8256302  51.8400269  58.1460037  20.5495701  68.2971191
  58.6685638  20.3229733  69.0664215  58.7083778  21.1345520  67.7894135
  55.4376068  17.6520271  30.1081638  55.9815712  18.4091682  29.8911991
  54.8010406  17.6022186  29.3950481  31.9224377  21.7811375  87.8265915
  32.8644447  21.9497299  87.8057327  31.5365086  22.5193195  87.3550186
  43.5468102  28.7465801  70.0316086  43.9223633  27.8762112  70.1644669
  43.8837852  29.0254211  69.1801834  75.4454422  29.3105946  39.8547668
  74.9292526  29.5897217  40.6109848  74.9951782  28.5298214  39.5324440
  56.1755714  11.0327587  14.0514727  56.5541000  10.9283361  13.1785212
  56.9071770  11.3220263  14.5967360  81.5770493  35.6631241  52.3698692
  80.6338959  35.8066254  52.2917366  81.7345047  34.8443756  51.8996620
  75.9543304  29.2105408  12.0241575  76.4495468  28.3916836  12.0024490
  76.0816574  29.5905647  11.1549044  10.4821901  28.6420326  84.3696365
   9.8940954  28.9724102  83.6904984  11.0447483  29.3866978  84.5823288
  73.3070526  44.3005905  18.5908718  72.6934052  43.8974686  17.9767342
  73.5911331  45.1032181  18.1534767   1.9442298  55.6544991  82.1350174
   2.6836457  55.6666069  81.5272751   1.3230025  55.0400391  81.7441864
  24.2828140  19.0183277  10.8200064  24.1861401  18.2984390  10.1965904
  24.0386906  19.7994785  10.3235807  45.8235245  26.0500546  76.9911575
  45.6072121  26.3673973  76.1143799  44.9764099  25.8486919  77.3887558
  52.7884483   5.6436906  70.8434448  52.0058289   5.4915800  71.3731613
  52.6088409   6.4618611  70.3802261   6.6512165  24.4486122   2.6697106
   5.8707967  23.9926739   2.3545949   7.2550912  23.7478352   2.9156373
  70.4122849   6.6152496   2.7932920  71.3104858   6.3114524   2.6621993
  69.8675995   5.9122858   2.4391940  47.0512314  30.1924610  53.1645126
  47.2555237  29.4186554  52.6394196  46.3660507  30.6429272  52.6707115
  85.4209290  44.7685204  24.2509155  85.2060089  45.2912025  25.0234737
  85.4962845  45.4078827  23.5425568  59.4165497   9.4695845  52.9037056
  58.9324226  10.2374096  53.2075119  59.4638939   8.8977156  53.6698380
  61.8694458  49.3856354   6.5346951  61.0922012  49.5767593   6.0097289
  61.8473129  50.0326691   7.2397432  74.9597626  56.9556847  13.1260881
  75.3270721  56.7964134  13.9955387  74.2849121  57.6192856  13.2690706
  18.8986664  25.8286037  78.2967834  18.4640083  25.4383678  77.5384827
  19.3047676  26.6256561  77.9561615  26.2988434   2.7272208  51.5064316
  27.2150764   2.9912069  51.4224243  25.8565845   3.1616433  50.7771072
   7.9645638  57.8989830  53.0937195   7.2927685  58.1126709  52.4462166
   7.6865611  58.3564949  53.8872108  69.6863327  21.9357166  89.3508835
  68.9702225  21.9822731  88.7174377  69.8233490  20.9985008  89.4890366
   1.8634515  19.3339882  81.3145905   2.2731369  20.1990433  81.3229065
   2.5982797  18.7212219  81.2867355   8.2599936  45.4680481  72.1021271
   7.8249445  46.0832405  71.5117874   8.6735554  44.8299408  71.5207367
  85.0278549  68.5225296  41.5362816  84.6300201  68.8123169  42.3572464
  85.9300690  68.8389206  41.5825539  54.2537003  31.9320946  32.6624222
  53.7226219  31.1874390  32.9446983  54.6103706  32.2932281  33.4739647
  83.0685272  31.1463280  52.8094215  83.2039261  31.4368267  51.9074745
  82.3589935  30.5065041  52.7510185   3.8090253  31.0311546  72.4729538
   4.3620243  31.3447571  71.7573547   3.4491897  30.2039776  72.1527557
  37.7145271  10.2632895  86.2402267  37.4076424  11.0008221  86.7675781
  37.6854820   9.5145054  86.8358078  53.0134773  42.9841919  50.1102409
  52.7718124  42.9042053  49.1875076  52.1777916  43.0574150  50.5712166
  46.8659821  35.0246811   8.1911249  47.6973381  34.5593071   8.0988979
  47.0262108  35.6664352   8.8830147  52.0975952  26.8161221  80.0039291
  51.3787918  26.2765675  79.6746368  52.6757469  26.9310780  79.2497711
  83.4020462  53.2717018  13.6918116  82.4477310  53.3362885  13.6553307
  83.5824509  52.3360901  13.6005869  52.6016731  29.0596066  88.6692734
  51.9072113  29.6483059  88.9648819  52.7731590  29.3260136  87.7660294
   3.1407242  54.3542480  39.1239090   2.3952734  54.9410439  38.9966087
   3.8358581  54.9196625  39.4605522  63.4067535  65.6458893  40.0664635
  63.9991417  66.3939743  39.9910812  63.8691216  65.0306396  40.6355972
  73.5998917  57.0745773  18.4985733  74.5298538  57.0354156  18.2752476
  73.5762482  57.5109978  19.3501663  79.6988907  44.3582764   0.1437194
  79.1868820  44.9783745   0.6629090  79.8787766  43.6346054   0.7438626
  69.9696655  69.4341354  59.5655632  69.4618073  70.1508484  59.1852417
  70.8179321  69.4813461  59.1246071  27.7130718  49.4997139  64.3824158
  28.4558678  48.9710083  64.6738892  27.7235985  50.2650261  64.9572372
   9.2826633  11.9761744  29.7412281   8.4638815  11.9182243  30.2336407
   9.0202894  12.2918863  28.8765221  62.6177826  35.9929352   9.0047693
  62.4340439  36.6774406   8.3613997  62.5093994  36.4251595   9.8519230
  64.3329468  53.4226799  25.9357777  64.2116928  52.5417290  25.5815792
  65.1497345  53.7289391  25.5417099   3.5759652  15.8936586  66.2098618
   2.8314052  16.1109772  65.6489410   4.3391690  16.2158794  65.7303619
  33.7224045   1.2856027  56.0227356  33.6329575   0.8296974  56.8596230
  34.5591049   1.7458045  56.0889206  45.4838905   4.2860408  41.5339584
  45.2423592   4.8107958  40.7707214  44.6585388   3.9047635  41.8333817
  57.5239410  42.0167770  16.4634380  57.4678230  42.7034760  17.1279144
  58.3272705  41.5420685  16.6768456   5.4184895  64.5918503  34.3949928
   5.4023767  63.9523811  33.6829185   5.3217525  65.4384232  33.9588890
   3.6079450  69.0720444  65.1378937   4.2054529  69.0011063  64.3934555
   2.9112241  68.4442139  64.9464722   5.3821898  63.1854935  70.2572021
   6.3201113  63.3764877  70.2646790   5.0122700  63.7760239  70.9134521
  25.4752159  58.3829536  11.5838900  25.8708382  58.7653351  12.3671522
  26.1688385  58.4153137  10.9250479  71.1142502  40.5093079  20.9359531
  71.3924103  40.5050507  21.8518333  70.1594543  40.4541359  20.9753628
  46.8807030  10.5824375  20.0846939  47.6259232  10.1393175  19.6790829
  47.0644073  10.5494070  21.0235195  18.2585049  45.4958344  28.1586685
  18.8083363  45.3284492  28.9241085  18.2039490  44.6502495  27.7134285
  83.3047256  26.7268505  19.8943024  83.7157516  25.8664227  19.8109188
  82.5381546  26.5735817  20.4466705  79.2264938  37.2716141  51.4343987
  79.4203415  37.6002769  50.5565414  78.5367889  36.6216431  51.2999153
  12.9919090   1.8445926  29.3665752  12.4810247   1.0395238  29.4507999
  13.7467804   1.7102845  29.9396038  69.1073837  69.3183594  10.5125713
  69.7357864  69.0074158   9.8609209  68.8797379  70.2019348  10.2232523
  66.2825089   6.1681237  77.6507187  65.8659897   5.3553653  77.9373703
  66.8144226   5.9118853  76.8973007  39.8476944  43.3090286  57.0884361
  40.1218262  42.9203720  57.9191170  39.7640228  44.2436638  57.2773552
   0.4676297  68.8486328  48.4488716   0.4647694  68.7877502  47.4936142
   1.2148414  68.3156509  48.7206001  20.3054543  56.8365402  67.2370758
  19.8252544  57.0324287  68.0416031  20.3074188  57.6619148  66.7523193
  50.0225639  21.7084579  76.1979523  50.3026962  21.9186764  75.3071289
  50.8165054  21.3947582  76.6309509  86.4322281  12.2679758  17.3480835
  85.6885300  12.5915470  17.8564625  87.1729736  12.3120031  17.9527206
  57.0368576  56.3906326  10.2699785  56.3805122  55.9802437  10.8330259
  56.5710907  57.1106033   9.8446169  45.5156250  42.2268486  67.9695816
  45.5280075  41.3404770  67.6084366  44.6750450  42.5882912  67.6884842
  62.6993637  31.9000473  18.2007065  62.8706017  31.2976322  17.4768238
  63.5538597  32.2814941  18.4021130  41.4673233  19.6257820  77.4778595
  41.6379318  20.2613144  76.7827148  41.9070244  19.9882431  78.2469559
  65.6642227  65.3356781  88.3118744  64.8450851  65.4083099  87.8220062
  65.4068069  65.4479446  89.2269516  65.8145905  31.0905228  50.5435219
  65.5180206  31.9966545  50.4586334  65.8768082  30.9463329  51.4877510
  77.0567245  35.5251465  11.9943600  76.7815018  35.3400536  11.0964584
  77.5233765  36.3587646  11.9348116   5.2850523  -0.0016500   5.3283367
   5.5582018   0.9135169   5.2643766   6.0793037  -0.5022575   5.1418185
  30.5859013  68.0365448  46.1665268  31.2680206  67.9827271  45.4971619
  30.6476746  68.9316406  46.5000191  47.8858719  10.2462053  73.6047745
  47.0734978  10.7359953  73.7328033  48.0180359  10.2451448  72.6567459
  40.6561737  10.3343296  76.6675262  40.6950684   9.6844835  75.9658051
  41.0977516  11.1031437  76.3067398  70.4308319  36.3516502  45.6140060
  71.1748810  36.4491653  45.0197754  70.8149261  36.0229340  46.4268112
   0.4400933   6.9870386  57.6474342   1.0558151   7.3436074  58.2877274
   0.7023819   6.0720010  57.5467262  43.8626137  29.5422344  75.4516830
  44.7599983  29.7201977  75.7332077  43.8672867  28.6167145  75.2074966
   9.0778618  63.8935623  61.9829865   8.1328239  63.9597626  61.8460426
   9.3760853  64.8014603  62.0379601  79.4616241  22.8773556   9.2892780
  80.0962372  23.5480690   9.5415344  78.7531281  23.3642349   8.8683052
  76.0654602  13.4802408   3.8660178  75.6515350  12.6379786   4.0544076
  76.6093979  13.6568089   4.6336050  57.5945168  29.1176682  18.3534775
  58.5277100  29.3299770  18.3710041  57.5534897  28.1968403  18.6115971
  59.0970154  17.6501980  81.3132629  58.9764328  16.7942333  81.7243729
  58.7853279  17.5310497  80.4161072   3.8951628  36.9446373  62.3102798
   4.7138681  36.8774071  62.8016396   3.3587770  36.2230644  62.6386986
  43.8029060  64.2064743  56.8613892  43.6069756  63.3371620  57.2108727
  44.3677635  64.6082687  57.5214882  66.1980133  53.7402229  53.6442375
  67.0492020  53.7091179  53.2075043  65.9721603  54.6702118  53.6627655
  12.3402538  30.6484604  20.8176327  11.5412703  30.5152054  21.3276348
  12.1277332  30.3117371  19.9471836  83.3119507  21.5769596  52.9254150
  82.5919342  21.3325710  53.5068550  82.9007568  21.6866550  52.0680237
  24.6573315   4.3973022  81.1590881  23.9812984   4.8755045  81.6392212
  25.4634705   4.8834152  81.3324890  33.3548012  11.6991282  73.3684998
  33.6798668  12.4918652  73.7952652  33.9285583  11.0027008  73.6879120
  54.8480988  17.6661282  35.4479637  54.1471977  17.0323505  35.6005898
  54.9349365  17.7024364  34.4954033  64.3131332   8.7813101  40.1445656
  63.6069221   8.2554522  40.5200310  65.0639572   8.6161318  40.7148361
  15.4401817  69.8650360  52.0230331  14.9344454  69.7500229  52.8275414
  15.9068909  70.6911163  52.1495476  47.9133568  14.5777073  69.4522476
  48.0442619  13.7180023  69.0522461  47.8177185  14.3949194  70.3869553
  58.0736084   3.8098857  28.3171768  59.0025253   3.7188523  28.5294399
  57.7985687   4.6012468  28.7801380  19.3040657  49.2403526  19.5260849
  19.9083500  48.5660973  19.8366566  19.0341587  49.7036972  20.3189869
  62.9186211  69.4274902  36.9070206  63.7712402  69.2131729  36.5284119
  62.3927841  69.7202072  36.1626778  36.1187592  66.3834610  69.6822662
  36.6946106  66.5862961  68.9450531  35.6229973  67.1892548  69.8277130
  64.2945480  41.5895195  79.5978546  63.7612534  42.1670418  79.0516891
  63.8654404  40.7362518  79.5343552  35.6124039  10.8974123  82.5208664
  35.1931648  11.7382402  82.3378983  36.4642067  10.9552822  82.0880737
  13.1196966   2.1210661  75.9092331  13.7936096   2.7999947  75.8756332
  13.0978584   1.8504890  76.8271332  45.7538223   0.8548746  68.3549423
  44.8662376   1.2076342  68.2918167  45.8770103   0.6819667  69.2883072
  17.1014919  52.9635811  59.0137367  16.3251095  53.5198441  58.9502602
  17.8223324  53.5748253  59.1654015   3.5014808  42.3328400  47.3429451
   3.7130029  41.6452065  46.7115593   2.9640396  42.9531670  46.8504143
  14.2585201  41.6014633  18.3126907  14.9437733  42.2543793  18.1699924
  14.0884867  41.2387810  17.4433327  77.3689041  44.3637581  83.0917435
  77.1333008  44.1192780  83.9867020  77.9546051  43.6655426  82.7990265
  33.7385941  65.6751556   1.9290048  32.9599686  65.1814346   1.6716709
  34.4347191  65.0195389   1.9714673  79.9786835  31.0671444  44.6643181
  80.7251205  30.7558670  45.1763382  79.5780716  31.7427979  45.2113419
  74.8734131  17.2798977  35.7340736  73.9771957  17.6156044  35.7521400
  75.3161392  17.8143578  35.0748482   8.5674334  35.4896545  46.0954628
   8.2386608  35.3042068  45.2158356   8.8378944  36.4072227  46.0615654
  28.6303577  55.2431946  55.5600510  29.3416424  54.6848640  55.8740158
  28.2442398  54.7535477  54.8338356  65.1234665  30.9730854  22.7816334
  65.7480011  30.2554913  22.6755924  65.1565704  31.4443989  21.9491673
  32.5750656  45.5202599  65.2978592  31.9887600  45.7270355  66.0256805
  33.4114990  45.3142433  65.7151947  13.8136873  53.5583954  66.2118149
  13.9006882  54.4268532  66.6048126  13.7169561  53.7281342  65.2747650
  78.5493469  46.1655426  63.4480820  78.7651291  47.0768661  63.6459579
  79.2435989  45.8783722  62.8549767  31.9087734  20.0338821  17.5722733
  32.4741020  19.4361458  17.0830383  32.1282845  20.9019661  17.2339268
  11.8610506   5.2617745  76.7207565  11.6624613   5.2878499  77.6567688
  11.0554361   4.9430518  76.3137817  80.6029968  31.4377289  32.6142502
  80.0406342  32.1881638  32.8061562  80.9479599  31.1726933  33.4668846
  38.5453529  45.6595001  13.1968184  38.1656036  45.5565796  12.3242188
  38.0572739  46.3849182  13.5864010   8.0456886   1.9822294  68.6359253
   8.0873928   2.1626444  67.6968079   7.2618179   2.4437373  68.9339066
  36.9345055  45.5127678  78.6505508  37.6280899  45.0747566  79.1438217
  37.3400421  45.7343369  77.8122940  19.4048176   9.1781235  81.5047913
  20.1516819   9.6095839  81.9198456  19.4111652   9.5021782  80.6041336
  11.1396837  43.1635208  54.8726959  11.0172262  43.2747421  53.9298973
  11.9983797  42.7487526  54.9554024   3.7329571   5.2469568  10.3357611
   4.3153467   6.0064173  10.3191948   4.1374893   4.6485705  10.9638691
  10.1319370  68.6944733  37.2171516  10.5638924  69.2760391  36.5915108
   9.2236538  68.9959183  37.2367096  19.2884464  19.6439686  84.8431396
  18.4198666  19.5486908  84.4523392  19.8887386  19.6356735  84.0976105
  54.5278053  44.6209297   0.2863994  55.1222343  44.4330635  -0.4399566
  55.0380669  44.4212646   1.0712554  15.3043623  44.3007507  81.8814163
  15.2156258  44.3937950  82.8299408  15.6080914  45.1583786  81.5839996
  53.0665131  64.5607300  39.2405090  53.7160072  64.3267365  38.5774612
  53.4802780  65.2616577  39.7442245  59.5097885  49.2428551   4.8873544
  59.6527100  49.9826317   4.2969875  59.4421959  48.4837837   4.3081503
  29.7850895  20.5030670  74.3163834  29.0074615  21.0290623  74.1296921
  29.4833069  19.5971775  74.2491150  28.6709213  62.2817574  14.6745090
  28.1901379  61.4548264  14.6389656  29.5925808  62.0234451  14.6674156
  59.4237518  40.7258644  11.3931732  58.7221603  41.3770103  11.3899250
  59.9507980  40.9378128  10.6227627  22.5571976  37.3312607  21.3903160
  22.1509514  37.9517326  20.7851639  23.2869015  36.9576111  20.8962002
  72.0799103  19.1131649  21.0831013  72.2588806  19.8593273  20.5108757
  72.0139923  19.4934673  21.9590321  48.5794983  50.3390083  49.1615486
  49.4141541  50.1741714  49.6001930  48.8164291  50.4982910  48.2479134
  23.1233292  60.5599098  23.3250027  23.5149651  59.6866035  23.3388920
  23.0909424  60.8225365  24.2448978  43.8669472  27.6208153  15.0502357
  43.1741524  28.2576694  14.8750601  43.4012108  26.8239136  15.3037539
   8.9709044  32.3739548  30.7786083   8.9396801  32.3531952  29.8221436
   9.7122364  31.8128624  31.0062809  69.5861282  11.0612087  19.2856827
  69.1265411  11.1254616  18.4484940  69.5410004  11.9443560  19.6520805
  16.7735882  43.0041046  18.6949844  16.6675568  43.6637268  18.0095024
  17.6642342  43.1369705  19.0195255  41.0849876  38.4901237  60.6989670
  40.3459167  37.8926048  60.8128624  41.8222237  37.9202042  60.4800911
  42.5376511  63.1373825  10.2316484  41.7833862  62.6832619  10.6072683
  42.5533600  63.9845123  10.6770201  74.5124359  35.1991272   1.8757433
  74.4252090  34.3365517   2.2814395  73.7720032  35.7004433   2.2173235
  52.0332642  52.0951538  33.6925583  52.6495171  51.3636971  33.7303848
  51.8745766  52.2265434  32.7577896  40.2324181  68.9100037  50.0604248
  39.8296394  68.0466766  49.9673576  41.0981598  68.7320404  50.4279213
  12.4580994  52.7703590  54.1789742  13.1059284  52.9977188  54.8459473
  12.9037523  52.9317589  53.3473625  30.7760639  57.0351982  48.6603508
  30.7143955  56.7243080  49.5635567  31.6342144  57.4562416  48.6100426
  52.3226814  40.0764008  56.9352570  52.4340973  39.8634186  57.8617897
  53.2106743  40.0637512  56.5781288  44.8520470  34.3715019  78.5928879
  44.5631447  34.9990349  79.2554321  44.9284477  33.5425301  79.0653305
  10.3137331  36.7023087  30.4125118  10.1973438  36.2932358  29.5549889
  10.7662697  37.5249062  30.2260303  84.0709610   6.9145064  61.9460526
  83.6456223   6.1052899  62.2297516  84.6429291   7.1529493  62.6755943
  34.3477058  66.3711014  85.6044312  34.1635208  67.1058121  85.0192032
  33.6416397  66.3964615  86.2502365  13.3950510  60.7017670   9.3170586
  13.7871990  61.4097786   9.8281050  13.6478262  59.9033585   9.7806110
  69.9082794  43.0195961  86.2083893  70.0985184  42.7444191  85.3115540
  69.1089020  43.5409012  86.1345062  66.7882919   3.6579604  87.0773926
  66.1681595   4.2033038  87.5614014  66.4113388   2.7787642  87.1113663
  50.5509644  67.3947296  19.4568176  49.7299271  67.4053650  19.9487667
  50.8791885  68.2917328  19.5191936  18.6189041  36.0038033   4.1279731
  19.1529102  35.7104149   4.8662086  19.2523098  36.2039795   3.4387989
  82.5078430  62.7210083  60.7226982  82.2812576  63.1734886  59.9102020
  83.2915649  63.1716309  61.0372581  31.4530754  29.9157829  80.5230484
  31.1939430  29.0739746  80.1482849  31.5449486  30.4962120  79.7674713
  54.6546555  37.9256897  39.1246452  55.2764931  38.4795227  38.6526070
  53.9028664  37.8545074  38.5364456  29.0711823  50.4957047   1.1884860
  29.5685959  49.6828232   1.0988662  28.9015884  50.7732162   0.2882314
   1.1163942  29.7289715  65.2773209   1.8778405  29.1926937  65.0563354
   0.4823765  29.5414829  64.5851517  83.7770538  26.6252804   3.2809892
  84.5148163  26.7200966   2.6785369  84.0310745  25.9061737   3.8594296
  60.2593803  20.0624218  70.1057663  59.6835785  20.5073185  70.7276611
  60.6628304  20.7707005  69.6039734  10.8588753  42.0137901  13.8534966
  10.1657028  42.0221863  14.5135517  11.0437489  41.0853157  13.7121210
  66.8554535  29.7133522  68.9351654  67.1585541  29.4849796  68.0564117
  66.3270416  30.5014458  68.8089905  47.3419037  35.6235428  13.1280470
  46.4168320  35.3915634  13.2096691  47.3751297  36.5554008  13.3443031
  45.5440407  46.1740494  64.0474854  45.8240509  46.3981285  64.9349594
  44.7783165  45.6134071  64.1723099  60.1446877  17.2309303  70.1242142
  61.0199661  16.9858494  70.4242935  60.0698433  18.1609287  70.3380661
  47.2941666  42.0202141   3.6550705  46.4331398  42.0107574   4.0731330
  47.2841606  42.8026428   3.1037679  22.2904358  47.7107239  24.9457092
  22.1744690  46.7642746  24.8619614  22.5981674  47.9915085  24.0839138
  34.6644058  28.7250996  79.1795120  34.4946136  29.6662121  79.2208633
  34.2752380  28.4477253  78.3501511  18.5023842  49.0872269  89.4586029
  18.8675747  49.4367065  88.6457520  17.5555038  49.0951500  89.3186493
  85.1745071  71.0819855   5.7553988  85.3393478  72.0231323   5.6979260
  84.8363800  70.9517136   6.6413612  49.1621552   7.8350654  73.9447403
  49.9838791   8.2544575  73.6895676  48.5264931   8.5502186  73.9715958
  20.7941360  56.2433586  52.4628258  20.9543667  55.7066917  53.2390633
  19.8463135  56.3768005  52.4553833  86.0844650  41.2414818   8.4310513
  86.3184738  41.0359726   7.5259342  86.6983490  40.7309189   8.9589815
  52.9472847   3.9970081   4.6271033  52.8996010   3.4989173   5.4431081
  52.1277275   4.4907722   4.5996523  44.5063362   7.1392655  66.8666992
  44.5529327   6.2625589  66.4853210  43.9638023   7.0320721  67.6479721
  63.4787216  34.8482857  77.7161789  63.5865288  33.9501305  78.0291138
  63.2462311  35.3482513  78.4986191  39.6279793  38.2724571   9.9712505
  38.6738014  38.1974792   9.9837608  39.8847237  37.9205894   9.1188993
  41.0001945  66.5573120  86.9959717  41.5541382  65.8788223  87.3820190
  40.2058792  66.5505905  87.5300598  83.7325897  28.6329250  29.0828228
  83.0587616  29.1086388  29.5685024  83.2606812  27.9171352  28.6571674
  79.2179337  43.4998589  42.6223221  79.6688461  44.1761208  43.1278687
  79.4849014  43.6595535  41.7170868  60.4189873   2.4671259  31.4303703
  59.6226082   2.0662510  31.7786732  61.1178322   2.1456389  32.0000153
  82.2299194  48.4354706  83.1489716  81.8982010  48.2939491  82.2623138
  82.3913651  49.3777504  83.1967392  19.6582069  56.6302567  18.8004742
  19.4904137  55.8570862  19.3392525  18.8518162  57.1426315  18.8591022
  79.6992569  15.5784960  29.8132629  78.8116531  15.8523064  30.0443993
  80.1057205  16.3653603  29.4501324  74.4642487  15.3550749  47.6508331
  74.6889420  15.2582378  46.7254333  73.5074005  15.3774242  47.6639099
  70.6285324  71.1360626  80.3559418  71.2898178  70.9601364  81.0252533
  70.1213531  71.8680649  80.7069016   1.7898419  54.3333397  30.2950020
   1.3934788  55.0619049  30.7728291   1.0499419  53.8841858  29.8862991
  29.0873890  24.7545547  17.9181137  29.9814491  24.6769352  17.5851536
  28.8056107  23.8509464  18.0606823  84.3731461  62.5684204  45.0680504
  83.8096924  63.3220139  45.2436829  84.9760361  62.8730316  44.3898392
  13.0295467  51.2869415   2.7630594  13.4701319  52.0884476   2.4807427
  13.6636782  50.5912247   2.5895991  72.3005447   2.6619840  31.0047474
  71.5291214   2.1507552  31.2492504  72.7442398   2.8377581  31.8344898
  27.5315094  35.3573227  73.8240280  26.8466568  35.8991089  74.2160416
  27.0555153  34.6945000  73.3237000  76.0688019  56.4374313  41.4326935
  76.2354965  55.8684158  40.6812477  75.5473633  55.9000854  42.0290070
  38.4997749  66.6433716  62.4856148  39.3833694  66.7658768  62.1385078
  38.6049728  66.0005951  63.1870461  78.3739166  46.0662689  73.8226700
  78.1083679  46.7883759  74.3921204  77.9245071  45.3008804  74.1810608
  60.5698090  57.5354195   2.2616584  60.2803535  58.3110580   2.7421100
  60.9202461  57.8795357   1.4400693  16.3468838  24.3668861  82.3767395
  16.7418461  23.6067715  82.8038940  16.5271854  25.0957928  82.9703903
  80.1951218  45.7285042  44.0983696  79.9728775  45.2730522  44.9104042
  79.9895248  46.6465836  44.2746964  67.9990387  18.2930794  20.9771729
  67.5831528  17.9131927  21.7510967  68.4642639  19.0613861  21.3080730
  48.3414803  54.7305870  36.6123428  49.1545372  54.4902878  36.1680145
  48.5364761  55.5685196  37.0319595  62.5102348  54.2419586   8.2095871
  62.3614655  53.6455116   8.9433136  61.6574364  54.3110924   7.7804155
  48.7385864   8.8742580  67.8774185  48.6361313   8.2485685  68.5945282
  48.5930901   9.7290916  68.2827835   9.0888872  48.7666206  63.3430061
   9.0531235  47.8101082  63.3489914   8.9821196  49.0045357  62.4220123
  22.1192875  52.0075226   3.2829182  22.0053062  51.1936836   3.7737420
  21.9021435  51.7751503   2.3800986  43.1987152  57.7679443  48.8944283
  43.2680206  58.3328133  49.6640739  42.2929382  57.4586182  48.9051361
  25.7797585   0.7786974  23.9926395  25.3860397   1.1250529  23.1918545
  25.1604366   1.0118011  24.6842556  86.5323029  35.4884071  53.7819519
  85.6101837  35.6795807  53.9533539  86.5246201  34.6278725  53.3628426
  15.9525032  70.9947739  66.7366409  16.0417156  71.1760483  67.6722717
  16.3028049  70.1104431  66.6295395   1.1985413  31.8931370   4.2099771
   0.5188242  32.0106163   3.5463390   1.7685201  32.6551437   4.1065407
  14.0228338  20.5666523  73.9533463  14.4715319  19.8278751  73.5421143
  13.6151409  21.0348930  73.2248001  31.7305546  68.7424393  37.0554428
  31.6207161  69.2265244  37.8738747  32.2321968  69.3329315  36.4933853
  53.4255142  56.3013916  60.7957802  53.1058578  56.0415764  61.6598091
  52.8568993  55.8380814  60.1807556  53.4049225  28.5766144  20.7316570
  54.2575378  28.5632534  20.2967987  53.4572868  27.8771782  21.3830261
  23.2934246  51.6461563  51.2724304  23.0192375  52.4529915  51.7084045
  22.6379814  51.5088387  50.5884933  43.5149078   4.3908782  20.0532494
  43.0127029   3.5951109  20.2286777  44.2881966   4.3141704  20.6121540
  36.2976379  51.7446671  34.8109322  35.4468193  51.9705772  35.1868362
  36.7325287  51.2328568  35.4929543  50.0594139  41.2870941  33.1144066
  49.2704391  41.2469444  32.5739059  50.5473099  42.0354996  32.7707863
  84.3584213  48.4169960  33.0001221  83.6457596  48.0495453  33.5229263
  84.2842102  49.3630600  33.1253777  41.5578156  43.0627251  79.7597733
  41.4586639  42.8004150  78.8445740  42.4292641  43.4563408  79.8030548
  39.0023689  43.2395668  43.1072884  39.9394188  43.2163811  43.3012924
  38.7657547  42.3240089  42.9589806  47.5533600  13.3373175  74.7492294
  46.6820908  13.0464287  74.4799576  47.5949211  13.1356449  75.6840210
  59.6702919  49.4353065  19.0839348  59.0465584  49.6241570  19.7850208
  59.4715729  50.0813026  18.4061222  25.2789822   0.4012586   5.1986465
  25.0744495  -0.0073333   4.3575459  24.4709148   0.3230076   5.7057323
  44.5232239  60.0576744   7.6436515  43.6799393  60.4698181   7.8313761
  44.4012070  59.6401100   6.7910194  63.3594475  22.2813892  38.4359169
  62.8756332  23.0356197  38.7725029  64.1492615  22.6574707  38.0473442
  65.9089508  30.7675514  25.4964409  65.2758942  30.2168198  25.9570560
  65.4681015  31.0093517  24.6819363  59.3128510  12.9780588  69.1684341
  58.7494965  13.1691990  68.4185486  59.5609093  12.0606728  69.0539703
  84.7592239  61.2433090  80.3948593  84.1407623  61.6781044  80.9819565
  85.6203156  61.5298538  80.6992416  16.7738762  71.3897018  22.6206589
  17.4184246  70.7221375  22.3858109  16.6418648  71.2746124  23.5617008
  80.2089920   3.9876807  39.4141960  80.9108124   4.5241451  39.0455627
  79.4193192   4.5171475  39.3032303  26.4516830  52.8744507   5.9649816
  25.9919147  52.0937271   6.2737122  26.5347519  52.7455559   5.0201445
  24.1387424  57.8367691  51.0286522  23.6209469  57.8116074  50.2239876
  25.0210896  58.0681496  50.7385483  31.5090599  21.2647266  77.3594513
  32.2717552  21.7490864  77.0433502  31.0284786  21.8969212  77.8938751
  49.9793510  64.5499725  52.8013763  49.0230484  64.5086899  52.8046761
  50.2519684  63.8341331  53.3753891  38.0588150  41.7605858   0.7912445
  38.7035179  41.5258179   1.4586819  37.5226059  40.9742737   0.6891145
  14.8488474  57.3745041  38.6225510  15.0696621  58.0707130  38.0038681
  13.9009027  57.4455490  38.7347298  77.9510727  48.6927872  10.3487768
  78.3847885  48.5457649  11.1893167  77.8597717  47.8183937   9.9701872
   3.4918089   3.1422372  82.6178894   2.6049726   3.5016813  82.6414108
   3.3942497   2.2917323  82.1896896  73.5137253  33.9284592  56.6086578
  72.5749283  34.0436058  56.4615669  73.8875198  33.8624916  55.7299347
  52.8997917  51.3472824  60.8599548  53.0257301  50.5202904  61.3252068
  52.3749619  51.1138153  60.0942650  42.8358040  25.4350471  61.6045113
  43.6880646  25.4641361  61.1697273  42.7665939  26.2780838  62.0525436
  78.8436432  43.7590904  79.8979874  79.6216736  43.3122215  80.2314682
  79.1191177  44.6690712  79.7871857  22.0693245  38.4583321  77.1686249
  21.8453102  37.8545837  77.8768158  22.3943806  39.2404785  77.6145096
  28.9345856  33.5917931  64.7594147  28.3606548  34.3140907  65.0146027
  29.0168934  33.6754189  63.8094330  37.1170845  16.6241341  88.2863235
  36.8249550  17.5007629  88.5361557  36.7965202  16.5107880  87.3915482
  66.1227951  29.8424072  34.9635353  66.3561707  30.0816441  34.0665779
  65.2291870  30.1674442  35.0733185  74.1642227   6.7578511  79.4734192
  74.3877335   7.1588225  78.6334839  73.2133789   6.6520028  79.4428101
  29.9045448  47.3469315  74.9274292  29.5690060  47.3898430  75.8228683
  29.1725063  47.0061264  74.4134216  23.1183281  16.2686195  14.9527216
  23.1487656  17.0129585  14.3516684  23.7015438  15.6193380  14.5596237
  55.5266838  31.7320557   2.1891398  54.8783073  31.8607845   2.8814304
  55.2950325  30.8898678   1.7976191  14.4523325  63.1130638  52.7130394
  14.3876190  62.3465042  52.1434555  13.8850117  62.9078484  53.4561844
  70.3810272  70.3372803  62.1528206  71.3283081  70.4467621  62.2359085
  70.2615051  69.9276733  61.2959862   8.8519163  12.9178448  24.2274666
   7.9140816  13.1082134  24.2060814   9.0666752  12.8762159  25.1593342
  15.5212383  17.4826336   9.0313511  15.9029760  18.3146477   8.7515993
  16.1803436  17.0992374   9.6099873   4.7651572  35.7055016  47.4821854
   3.9728644  36.2398529  47.4276848   5.4754677  36.3396263  47.5800476
   2.1168032  58.9535561  44.1941376   2.7228792  59.3145027  43.5471306
   2.6747129  58.6990929  44.9291344  41.7266350  25.0416565   7.4312963
  40.8252335  24.8363457   7.6793876  41.6863747  25.1942520   6.4871955
  64.2117996  41.8095360  62.9004211  64.4805069  42.6958199  62.6584969
  63.3066673  41.9060974  63.1964722  12.0770073  30.0095539  74.6529160
  12.6274014  29.2459812  74.4789734  12.4256287  30.6918030  74.0791321
  17.7101383  59.0716095   4.1934314  17.0828476  59.1982460   4.9052615
  17.6922894  58.1298409   4.0231748  49.4071121  21.2405167   3.3835461
  49.0822220  21.2575741   2.4833314  49.7405014  22.1249657   3.5346568
  84.0398865   1.2577574  18.4059525  84.9660187   1.4260253  18.2321720
  83.5768051   1.7281333  17.7127495  49.2103958   6.6306214  34.8134460
  49.5400696   6.8404050  35.6872520  49.8453140   6.0068469  34.4612885
  70.7980728  29.7483349  30.0553493  70.5004959  28.8476200  30.1833782
  70.9988251  30.0618858  30.9371758  49.2927246  35.4638939  73.7969818
  49.5236130  35.4763222  74.7258377  48.8409576  36.2951126  73.6513367
  46.7023468  37.9096985  36.3493996  46.6021881  38.5624428  35.6564903
  47.5570526  37.5124092  36.1824646  55.2577782   0.4956400  38.2969246
  54.8583298   0.6644901  39.1502495  54.9427567  -0.3747042  38.0530128
  45.5404625  71.1341248  35.4211578  46.0235176  71.5640411  34.7154236
  45.1355209  71.8528290  35.9066658  22.5883942  54.0199852  30.3761387
  22.7426567  53.8486137  31.3051529  23.3675537  54.4952965  30.0876598
  56.3197823  63.8763580  35.5992470  55.4274788  63.9471436  35.9383850
  56.5490837  62.9547653  35.7189102  65.3267365  49.7160187  33.2682610
  65.5781631  49.0608330  32.6172981  65.3196259  50.5426521  32.7857056
  44.9340019  29.4033146  25.4062347  44.7616005  29.9979439  26.1362534
  45.5488739  28.7609825  25.7605972   6.6877546  65.4831161  27.6908226
   7.1704698  66.0809021  27.1199741   6.4233985  66.0238190  28.4351215
  19.3904896   8.7981348   1.4840637  20.1470070   8.9242411   2.0567846
  19.3068390   9.6265392   1.0118555  22.6818161  44.6696777  76.2210922
  23.3055172  44.5836983  75.5000916  23.2258205  44.8464661  76.9885788
  14.0970659  33.5594101  75.9278183  14.9942770  33.7990379  75.6958160
  13.5582085  34.2544861  75.5500107  55.1282768  67.7194519  43.7403069
  54.4988632  67.6182785  44.4543304  54.8799438  67.0477905  43.1051445
  48.9044151  60.7529907  27.4571114  49.5138550  60.1396370  27.0464821
  49.2105904  60.8257904  28.3610973  10.7639494  63.8360825  73.7513123
  11.4441719  63.9284821  74.4183960  11.0907621  64.3382645  73.0048294
  56.9262238  -0.0073974  17.0249252  57.4336739   0.6713472  16.5799179
  56.7328796   0.3637873  17.8857803  71.5839539   0.3160937  50.7097282
  70.6597824   0.5645962  50.6902428  71.9651184   0.7512612  49.9471169
  24.1295834  62.8120117  30.3876247  23.4587440  63.2584152  29.8709698
  23.6363697  62.2743454  31.0072098  25.2684422  44.7707901  37.6824150
  25.8764553  45.4558182  37.9604111  25.6600933  44.4115753  36.8862953
   7.7480960   2.4828827  15.1706467   7.4772358   3.3982677  15.1003838
   8.5678577   2.4372251  14.6785707  50.1111679  55.8034744  46.0004692
  49.7032051  55.1421165  46.5593987  49.3767014  56.2306709  45.5596848
  61.0417786  35.9520493  39.9685097  60.8527451  35.9480515  40.9068489
  60.3893509  36.5447235  39.5952721  83.3216782  37.4127350  27.6414642
  82.4438782  37.1581917  27.9258976  83.1835022  37.8525085  26.8025723
  64.1374054   3.0171072  78.3292770  63.6704979   2.3480678  77.8286591
  64.9423599   3.1686385  77.8339767  64.6633759   8.3032293  80.7822723
  65.1481171   8.6124868  81.5475311  65.2979584   8.3383741  80.0665207
  81.5667038  23.2945919  40.1406670  81.5514221  24.2413368  40.0004120
  81.3997803  23.1884823  41.0772095  65.7184296   1.8460592  49.0060425
  65.3829422   2.2288671  48.1954002  66.0207291   0.9741031  48.7519875
  32.8843307   0.4732347  13.4535923  33.7399445   0.3417996  13.0450802
  32.5275764   1.2475841  13.0184574  59.2655525  70.9348297  60.0060959
  58.5075569  71.3357315  60.4314804  59.5356483  71.5736389  59.3463936
  52.5717926   1.3004588  49.2739410  51.6642342   1.0612563  49.0859184
  53.0828285   0.5419564  48.9915390   7.0425534  34.1597176   8.2963190
   7.5323005  33.7154121   8.9883957   7.3464775  33.7495079   7.4866333
   0.6420131   7.1768942  75.7346115   1.1188028   7.9611230  76.0064392
   1.1669621   6.8123989  75.0220108  55.0158615  60.9750061   7.6029177
  54.9510651  60.6800842   6.6945930  55.6343613  61.7049828   7.5741806
  51.5819626   1.2587931  61.3276558  51.9426537   0.4877787  61.7654572
  51.0310020   1.6748629  61.9906464  36.1343613  29.0860100  14.6094999
  36.2416267  28.2656803  14.1280594  36.9950333  29.2524071  14.9939299
  50.7542381  43.0783958  24.8418140  50.8147507  43.8463860  25.4099312
  51.2557640  43.3170509  24.0622330  37.8135185  36.4553223  70.5612717
  38.2863998  36.8059425  71.3160477  38.3003807  36.7776260  69.8027725
  28.6622467   3.3109150   6.0807600  27.9492111   3.9443161   6.1621056
  28.3263283   2.5173080   6.4973888  49.6864395  45.6194382  69.3103485
  49.5415306  46.5086365  68.9869843  48.8343964  45.1917038  69.2249527
  69.7700500  61.9225769  74.4991531  69.8422394  61.8862457  73.5453720
  70.4956589  62.4835472  74.7730713  74.3868027  16.5097542  85.9613342
  73.8215408  16.6361446  85.1992722  75.1433792  16.0317535  85.6217117
   2.7671819  38.3193512   1.2129643   3.6540899  38.4453201   0.8756859
   2.3350716  39.1615829   1.0709945  50.9164162  52.9660721   9.7933893
  50.0813828  52.7623940   9.3721161  51.5545692  52.9506721   9.0801191
  33.3904266  54.2762222  68.2677536  32.5943947  54.5824661  67.8332672
  33.0770187  53.6895714  68.9561234   0.6817884  28.4788952   5.6942959
   1.4061537  28.5605068   5.0739198   0.3283609  27.6035271   5.5360198
  15.9880323   5.8780460  64.1194305  15.1919231   5.3487978  64.0710907
  16.4327087   5.7183695  63.2869644  26.6086082  28.6546764  88.2469101
  27.2707119  28.0723228  88.6193542  25.7986488  28.4156857  88.6975555
  19.7327461  20.0588322  77.7255783  20.6209507  20.4011345  77.8263321
  19.7621326  19.5515976  76.9143524  16.0447884  28.8355064  79.1970062
  16.1041622  29.7603264  79.4366226  16.2048626  28.3653259  80.0152588
  48.0482788   1.1801813  28.2150707  48.7154617   0.6416287  28.6405830
  48.4948235   2.0036752  28.0183830  54.4995270  61.5130501  64.9613113
  55.1643639  61.5342712  64.2729950  53.9895782  60.7241249  64.7775040
  38.6083031  44.3934898  68.3661270  38.3934517  44.9996643  67.6571732
  37.7613220  44.1579399  68.7447815  49.1294250  15.9199371  74.9882126
  48.8367119  15.2816687  75.6387253  50.0322151  15.6676283  74.7944565
  69.2173767  36.9627953  51.0794334  69.1380463  36.7055779  51.9980087
  70.1295776  36.7771072  50.8566322  26.1651859  66.6024857  76.8274689
  25.6444969  66.7860718  76.0455399  25.6233158  66.9106522  77.5538559
  69.9252930  67.9245682  35.0313454  69.4016418  68.2194824  35.7763596
  69.3441544  68.0211945  34.2769051  54.6106033  50.8711205   6.5204268
  55.4283295  51.3677444   6.5508032  54.8872719  49.9549179   6.5043283
  51.2227058  59.1484032  47.4257584  50.3198242  58.8309593  47.4093819
  51.4419899  59.1989288  48.3561325  72.3966446  19.1844902  35.9991531
  71.5557709  19.1250553  35.5456772  72.1696625  19.1604614  36.9287415
  66.2103348  10.5068483  29.9180298  65.6698761  10.1042442  30.5977688
  65.6086426  10.6508722  29.1876507  15.3603153  39.0022049  64.1781998
  15.9353142  39.1910019  63.4366074  14.4982748  38.8672791  63.7846069
  66.9265671   8.1778221  88.0623322  67.0033188   8.1289682  89.0151978
  66.8863678   9.1152554  87.8730316  86.9266968  45.0527725  13.5084028
  86.0148163  44.7932281  13.6401062  87.0453949  45.0371361  12.5587206
   8.8196335  66.7378693   4.3800926   8.4578247  67.3733826   3.7624788
   9.6172924  67.1516876   4.7098284  81.3650055  36.3824310  28.8873062
  80.7665253  35.6625824  29.0869904  81.8805313  36.4938850  29.6860828
  23.7369328  58.1526031  20.2330151  23.6531868  58.1967049  19.2805061
  22.8386002  58.0527496  20.5480652  86.2875366  55.3688812  64.9288788
  85.6251602  55.9219246  64.5145950  86.5644455  54.7678909  64.2372437
  82.6987534  34.8095207  44.3932571  81.7586136  34.6379662  44.4474983
  83.1058731  34.0415802  44.7941971   1.2766870  47.9614372  26.2006416
   1.9594805  48.6063919  26.3851891   1.2304003  47.4279480  26.9940395
  64.7736359   1.7149820  46.3835182  64.5929184   2.6025329  46.0739594
  65.3913116   1.3595561  45.7444725   8.9813976  54.5548477  64.9024124
   8.0419235  54.7154465  64.9908905   9.0406990  53.6631966  64.5593796
  75.9922485  67.9696732  85.1966019  75.1463394  68.3547211  85.4255524
  76.6352463  68.6230316  85.4721146  81.7050400   3.5240016  74.1909485
  82.0650253   3.2814691  75.0440674  81.0104446   4.1507001  74.3934708
  44.2165451  32.0627251   4.6943979  44.2729568  31.8750114   3.7574811
  44.7441177  32.8526154   4.8126030  47.2490196  16.2992401  62.7925949
  47.1378136  15.5801620  63.4145203  46.3788719  16.6918373  62.7223015
  37.2980270  58.6175842  15.9484510  36.8865166  59.4256248  16.2549763
  37.0808525  57.9691734  16.6182518  29.9505405  46.7737122  33.8258934
  30.1484604  47.6619797  34.1226196  30.0179749  46.2368279  34.6154747
  17.8723240  24.7814522  24.5449028  17.5298080  25.6683216  24.4336414
  17.2874584  24.3774929  25.1859779  39.1801758  64.0623779  13.1335144
  38.2514496  64.0405045  13.3642120  39.6217537  64.3221664  13.9420633
  38.1987915  56.6461754  34.0198402  37.7228279  55.8211517  33.9248276
  38.7650414  56.6861420  33.2491264  12.5977097  47.6823692  69.7700958
  13.4432411  48.0462379  69.5075912  12.8201084  46.9522781  70.3478012
  72.7496185  66.3360214  18.8712158  72.1299286  66.0378342  19.5370312
  72.8852921  65.5718765  18.3109398  53.0599937   3.6713362  43.4630318
  52.2909813   3.1026616  43.5012741  53.7729950   3.1334596  43.8073463
  34.6193237  47.5700912  42.3577385  35.3010292  46.8981438  42.3566360
  33.8097458  47.0902328  42.1829491  32.0883522  53.9878159  44.1140594
  31.5252190  53.2689934  44.4011192  32.8723831  53.9095840  44.6575737
  40.0774422  45.7448769  19.1228027  40.6096535  45.0025253  18.8366280
  39.9763908  46.2837334  18.3381672   6.1201067  22.4475460  17.4764576
   6.4823723  23.1074677  16.8852749   6.4483223  21.6152134  17.1362705
  12.6246204   9.5798750  22.8870087  13.3031836  10.1273336  23.2820702
  11.8064070   9.9029865  23.2643108  36.0717087   9.5226402  69.6082687
  36.7431145   9.9015369  70.1756134  36.5609360   8.9916325  68.9798431
  58.4634781  54.0271645  13.3235655  59.0072098  54.1754494  12.5498714
  58.7421837  53.1723328  13.6519175  67.9246597  38.8536301  49.5602379
  68.4525223  38.2660904  50.1009674  67.2493591  39.1829605  50.1533203
  43.1361732  40.7890892  13.7970886  43.0882568  40.0717163  13.1651764
  43.9791756  41.2070923  13.6214342  32.7413712  67.8715973  71.1350708
  32.3099174  68.0726700  71.9655228  33.4430618  68.5190506  71.0667953
  43.6240387  10.4704332  71.2849350  42.6765823  10.3648710  71.3710556
  43.7809258  10.4638014  70.3406982  55.8489342   1.2202940  85.2610016
  55.8048592   1.4766970  86.1821747  56.1451912   2.0090404  84.8067551
  84.4866562   1.2062906  63.6653442  84.3587341   1.8525118  64.3597946
  85.4201889   1.2570243  63.4599686  12.3153315  37.1666870  88.8827133
  11.9047642  37.0052910  88.0332336  12.8224907  36.3740540  89.0580750
  13.1321688  39.2572174   1.9972471  12.4332972  39.9107895   2.0228384
  12.8579359  38.6397476   1.3191925  49.6470947  57.9503860  74.9345856
  48.6923676  57.8828392  74.9474869  49.9058723  57.8620377  75.8518982
   0.4921357  40.3791466   2.8827698  -0.0702059  39.6844292   2.5401802
   0.5215547  41.0307884   2.1822486  56.8788872  26.0326538  54.5844345
  56.2008972  25.3581371  54.6243019  56.4206352  26.8150177  54.2775993
  46.9143333  38.8424911  79.8774719  46.7563362  39.7817574  79.9726105
  46.1843376  38.4289398  80.3382492  36.0208893  45.5192490  38.9795990
  36.3561821  46.4143639  38.9288406  36.6520042  45.0580521  39.5320702
  38.8721809   2.2697003  59.2992210  38.8118095   3.1320832  58.8882675
  39.4625740   2.3989053  60.0414963  48.6874008  31.3991184  23.2074394
  48.6971130  31.7063885  24.1139297  48.0163879  30.7166519  23.1930504
  56.8334427  60.8601837  40.8880348  56.9191666  60.3157845  40.1054039
  57.7343140  61.0734406  41.1313057   5.5039120  35.7367554  10.1301088
   5.7906814  36.3276520   9.4338074   5.6323185  34.8599701   9.7681866
  23.9394913  20.0168076  68.9811554  24.4115887  20.6094112  68.3961945
  24.2155418  19.1415596  68.7091827  21.9424248  41.2243881  27.3796349
  21.9319344  40.8968391  26.4802818  21.2569160  40.7256927  27.8241730
  45.6294975  26.6112118  13.1657228  44.7935867  26.8482952  13.5673199
  45.8574562  27.3663845  12.6235237   8.8975582  38.4265823  32.1746674
   9.4210272  37.9719505  31.5147247   8.5957155  39.2214737  31.7350388
  76.0623932   8.0491161  81.0293274  75.6691818   8.2661495  81.8746185
  75.3275909   7.7522869  80.4925003  18.7702141  69.7450027  81.3492584
  17.8944817  70.1277466  81.4024811  19.2151585  70.0543365  82.1382904
   5.4087830  50.3209419  35.8584290   5.7127042  49.9381790  36.6814461
   5.2834344  51.2487526  36.0576553  29.8119049  47.3545418  37.5972519
  30.5507069  47.0137558  37.0930023  29.9475708  48.3019905  37.6103630
  33.1829300  38.1303749  27.7672081  32.7746048  37.3076859  28.0368214
  33.2500839  38.6402817  28.5744972  72.7093430  25.9721317  47.5162277
  73.3918915  25.3379822  47.2966576  72.9351196  26.7521400  47.0094299
   6.2714419  29.5621948  76.4110031   6.6949511  28.9345284  75.8254242
   6.9759617  29.8716984  76.9802933   5.8757024  43.6825027   8.3799753
   5.2685070  43.6927109   7.6400824   5.3447318  43.9523506   9.1292973
  69.6441040  33.8784752  77.5335846  69.4006729  34.0946999  78.4337006
  70.5465775  33.5660286  77.5980072  43.2058754  37.0360107  45.4522209
  42.3957863  37.5409698  45.3814583  43.8353043  37.5163918  44.9143715
  74.6161118  33.0412216  86.0642776  73.9085388  33.6850471  86.0967178
  74.4605865  32.5549889  85.2545776  10.8667994  53.0300789  48.0240555
  10.0693874  52.5028801  48.0732994  10.5586615  53.9352112  48.0689888
  58.5997238  44.7745743  30.1482811  59.3697853  44.4765587  30.6324558
  57.8754807  44.2667351  30.5140743  75.2167740  11.1156406  49.9685135
  75.5870438  11.7872419  50.5412979  74.6591568  11.6005754  49.3601265
  12.6084709  51.8719673  24.1046238  11.8996706  51.7865639  23.4670200
  12.2964554  51.3967209  24.8747005  84.6584930  52.2329407  72.3538513
  84.8794861  51.3320732  72.1175537  85.3945084  52.7527122  72.0308228
  81.6199112  35.7564430  69.7627258  81.9071426  36.4341545  70.3746414
  82.2914963  35.0772362  69.8250732   4.5323825  51.6919670  41.4853210
   5.2188058  51.0431404  41.3301544   4.0392284  51.7196693  40.6654053
   4.2107205  67.5856323  30.9521294   3.2678635  67.5590744  30.7891941
   4.3075933  67.2689972  31.8502331   7.5325727  51.7327309  18.3596458
   6.6017690  51.9317589  18.4607582   7.8376198  52.3467827  17.6917248
  37.7996521  64.5471954  51.3644600  37.7115440  63.7314301  50.8715134
  36.9893532  64.6102066  51.8701019  10.5341568  46.3570023  86.7212219
  10.0603285  45.6454544  86.2906189   9.8504944  46.9675484  86.9970322
  15.5350351  26.2488575  20.3861637  16.4860325  26.1616859  20.3210793
  15.2055349  25.9037037  19.5563869  10.4191599  34.7267952  35.1700325
   9.7112494  34.3537750  34.6447220  10.8969030  35.2909889  34.5620193
  84.9087906  61.4649048  34.3475418  84.6948471  61.7722244  33.4666252
  84.5429993  62.1313744  34.9291344  23.3255787  58.8099823  14.1146746
  23.2892590  59.7285271  14.3814812  24.1772366  58.7181435  13.6875010
  63.4952621  60.0415764   2.5022836  63.6827011  60.9651642   2.3346949
  62.5777855  60.0290108   2.7748868  69.7702713  38.5933952  77.3087463
  69.2354965  37.8297729  77.0916519  69.6457825  39.1905289  76.5710678
  41.6813126  52.9108620  19.0269279  42.2318192  53.6933212  19.0574493
  42.3012619  52.1840363  18.9667645  65.0944748   3.1257372  55.6084061
  65.2618332   3.3077750  56.5331116  64.5226288   3.8385687  55.3236427
  31.3981667  40.5094566  76.8870850  31.4389133  40.1934853  77.7897110
  31.9295349  39.8866615  76.3910904   4.3318706   4.5179882  30.0717945
   3.7145300   5.1033492  29.6330757   3.8106458   4.0817924  30.7458057
   0.5102381  31.7563248  61.8903236   0.3777748  32.1647491  61.0348244
   0.2476159  32.4280396  62.5196571  86.6227036   4.9426208  24.3505878
  85.6773834   4.8798046  24.2140007  86.8533020   4.1326766  24.8056126
  78.0215073  49.7208862  41.4696579  77.9623947  48.8388672  41.1025391
  77.6057053  49.6510010  42.3289948   0.2726517  52.8921051  70.6094589
   1.0473366  52.4488640  70.9553375   0.5572291  53.2507668  69.7688599
  23.3314419  38.7041206  84.6390228  23.4037838  39.1419945  83.7909241
  24.1918678  38.3086014  84.7785339  80.3878784  48.8969536  48.7483521
  79.8864517  49.7099953  48.6869545  80.4302902  48.7119751  49.6865501
  77.4068680  53.6115494  56.0047646  76.4505615  53.6460342  55.9817696
  77.6143036  53.3042526  56.8872414  67.3030090  61.4655075  41.1247444
  66.5260849  60.9112091  41.1980324  67.9610901  61.0281525  41.6650085
  71.6630402  56.6152077  41.3816109  70.7216949  56.7247467  41.2470818
  72.0581970  57.3585167  40.9260063  11.1162567  10.5871496  14.8828516
  12.0264282  10.3168077  15.0042343  10.6537247  10.2151260  15.6337805
  60.4385414  38.8361130  12.7617750  59.8572960  39.4982948  12.3877382
  59.9529991  38.4854546  13.5084457  51.0998802  70.7435226  26.5835495
  50.3677940  70.3356476  26.1210365  51.7153435  70.0267105  26.7371998
  23.1355972  28.5520878  20.4946671  23.8735542  29.1480770  20.6229153
  23.4402809  27.7148552  20.8445835  74.8745346   4.7513728  54.0784416
  75.4578705   4.2260399  53.5307350  75.0941162   5.6575022  53.8617668
   3.7525504  61.9901581  39.7309532   3.2141020  61.9131393  38.9433174
   3.9901092  62.9166298  39.7690315  76.8997726  66.9231567  14.2294350
  77.0898972  66.4115143  13.4431095  76.1159973  67.4247513  14.0051117
   8.5268984  61.5580673  49.7251740   9.0182924  61.2823639  50.4989662
   7.6279416  61.2800484  49.9007149   1.0539032  41.9092484   0.5918586
   1.3243459  42.2729836  -0.2512251   0.8907011  42.6753883   1.1419755
  40.1202507  61.9629936  41.6911163  40.7556381  61.4968643  42.2344742
  39.2787590  61.8079033  42.1201515   3.2671995  13.6146507  29.9134254
   4.1281843  13.5075092  29.5091267   2.6598253  13.6600494  29.1750031
   4.7854462  29.0136147   2.7013636   5.1155305  28.2417183   2.2415242
   5.4163985  29.1606693   3.4059956  76.7570267  27.0018349  83.1135635
  77.0068970  26.1636829  83.5025330  76.5381088  27.5573139  83.8617249
  70.5676117  40.6773453  45.1509666  70.5661774  40.2299385  45.9971657
  71.4776764  40.9450607  45.0231285  10.6496639  29.4896469  16.8428020
  11.5381889  29.6038399  17.1800213  10.3999910  28.6079407  17.1193733
  68.2214355   5.2192941  75.8440933  68.8666000   4.5124111  75.8266220
  68.5055008   5.8199220  75.1550522  42.9679108   9.4298496  44.2752151
  43.3563652   8.6688910  43.8436203  42.7524414   9.1218472  45.1555214
  19.4929504  40.2321815   4.2721653  19.5206070  39.8320961   3.4030273
  19.4976692  41.1742058   4.1024604  70.7176437   5.8276067  55.0133781
  70.7728195   6.7602448  54.8051147  71.4396591   5.6752224  55.6230545
   4.6676130  50.3118706  61.2397537   5.3927350  49.8140907  61.6174355
   4.0857773  50.4861870  61.9795609  77.7695236  13.7143545  72.5804901
  77.7111969  13.3377924  71.7024078  78.4836807  14.3490162  72.5219727
  83.9781342  51.5261230  74.8741302  83.1955566  51.1159477  74.5059509
  84.3412018  52.0399055  74.1527176  11.8247061   5.4195895  22.2608700
  10.9593287   5.5536375  21.8743668  11.7688236   5.8328123  23.1224709
  73.5577774  70.0682602  48.7267532  73.3852921  69.2053833  48.3500290
  73.0214386  70.0952301  49.5191154  66.2618256  57.6371651  57.3532829
  65.5408173  57.0380325  57.1598663  67.0517883  57.1217766  57.1902809
  56.9807167  58.3159866  63.9185219  57.8771362  58.6324043  64.0305405
  56.4350090  59.0001907  64.3062057  68.6244354  42.2152367  10.3886204
  68.9139938  41.8385162  11.2195673  69.2775192  41.9231224   9.7527075
  59.3236542  34.0190353  69.2951355  59.3107758  33.0957336  69.5472946
  59.5050926  34.0081444  68.3553543  58.0168991  57.9433784  61.4320107
  57.5554962  57.8090134  62.2598305  58.1559868  57.0605278  61.0892906
  33.9043961  42.1117668   5.7236605  33.2612572  41.9338684   5.0373964
  34.2133904  42.9985504   5.5382786  28.3684750  10.4325113  77.4310150
  29.0825443  10.3154325  78.0576172  27.6333256   9.9533615  77.8133774
  23.4019909  67.5582657  39.9175262  24.1667347  68.0926208  39.7033691
  23.3690186  66.8987045  39.2246132  71.3625107  43.2984352   3.4091129
  72.2410049  43.0472221   3.1238587  70.7747269  42.7879486   2.8522046
  61.2280235  40.7723389  60.2097549  61.2084122  39.8340759  60.0213165
  61.5854836  41.1687889  59.4152222  32.4036713  42.2077293   2.9731574
  33.1648827  42.6882782   2.6477857  32.0715675  41.7385063   2.2078025
  27.4669971  57.0661850  33.9616737  27.0012608  56.6450272  33.2392159
  28.2759895  56.5624390  34.0511475  43.4940147  42.2702103  26.1749325
  43.5572472  43.0542755  25.6295223  43.3131180  42.6037064  27.0537319
   2.0009840  66.4338455  49.6337128   1.7394500  66.4677887  50.5538635
   2.9255223  66.6817245  49.6381950  85.8550797   4.1031437  43.4431534
  85.3615036   4.8712006  43.7307434  85.3199921   3.3582318  43.7170563
  44.4427719  56.9945107  78.2968674  44.4693298  57.7099495  77.6615143
  43.6301079  56.5288734  78.0994110  38.9372711  66.6362381  83.4924927
  39.1756172  67.5041351  83.1666336  39.7742958  66.2178116  83.6938477
  41.3945160  14.9339676   4.6644864  41.1231232  14.9661617   3.7471316
  40.6878967  14.4637051   5.1069479  77.1342773  34.1274376   3.5143654
  77.2011719  33.3044624   3.0301445  76.5880203  34.6866302   2.9619703
  30.6853142  39.7086525   9.0851583  30.7188969  40.1669121   8.2454548
  29.8711891  40.0087166   9.4893789  69.8969345  23.3352928  74.3497238
  69.4403000  22.5178680  74.1508942  70.7593765  23.0586529  74.6594009
   8.2286282  30.6492424  10.0905848   7.3807502  30.9189758   9.7376280
   8.0326557  30.3410454  10.9753675  64.9613800  26.0393829  63.3581505
  64.4617538  26.5762539  62.7430344  64.3561020  25.3439522  63.6155319
   3.8991635  62.4628754  23.0514545   4.3823948  62.0784264  23.7828350
   3.0333517  62.6555176  23.4113026  83.0236969   2.4637933  76.3189774
  83.8068542   2.0171769  75.9973755  83.2924728   3.3771315  76.4179916
  18.4950733  47.2071991  57.1602058  18.3703938  47.1045227  58.1036797
  19.4349213  47.3569031  57.0577011  65.3023682   7.5224080  72.0025635
  64.4284973   7.5876307  72.3876953  65.8989639   7.6133976  72.7455521
  33.7057762  40.0607224  54.7441177  33.7033043  39.2888069  54.1781006
  34.4053459  40.6122627  54.3939247  47.5008850  22.8551617   9.3382015
  47.7475891  22.0056992   8.9724388  47.2783318  22.6677647  10.2501144
  83.1414871  30.5050411  61.1805077  82.6328583  29.9156780  61.7374458
  83.9766846  30.0545864  61.0549431  41.9357376  44.0415535  17.5944843
  42.1520958  43.1142159  17.4971695  41.8370590  44.3599167  16.6971893
  10.2448788  37.2975197  86.7521286   9.6080151  38.0080605  86.8281097
  10.2093601  37.0415916  85.8304596  24.0411835   1.2708647  79.3371277
  24.3405590   0.5380075  78.7990494  24.2906151   2.0502150  78.8405075
  45.6493645  64.6325378  77.9589157  45.0157280  64.1247482  77.4520798
  46.4119225  64.0587158  78.0328217  43.5455666  46.1142578  45.7032623
  44.2660980  46.3035889  45.1022415  43.9664764  45.7099915  46.4619675
  12.5239801  48.9624329  64.7920074  12.2316742  48.0537682  64.8635254
  13.2541647  49.0282822  65.4074097  69.7776260  46.2079887  12.0200930
  69.4765091  45.7163391  12.7841883  69.8488007  47.1111031  12.3292007
   1.5127577  45.3749123  66.4406204   1.0999733  45.3995667  65.5773468
   0.8042793  45.1355934  67.0381241  23.8685760  53.2337914  55.6396027
  24.6489162  53.7880363  55.6290474  23.5249195  53.2870064  54.7478065
  62.2248383  18.1331615  52.3736954  62.1434937  17.2095318  52.6114464
  61.4936600  18.2921143  51.7767487   1.2144730  15.9982939  61.9329414
   0.8000604  16.3101292  61.1284218   2.0160108  16.5164165  62.0058594
  61.8096313   0.8965672  27.8565502  61.7007027   0.5206672  26.9830132
  62.7016220   0.6591335  28.1099453  35.4741249  39.5590286  70.4689713
  34.7976913  40.2075233  70.6642151  34.9943962  38.7379303  70.3599319
  85.9835739  49.5163956  36.7994308  85.5883255  48.6861191  36.5336151
  86.4030914  49.3243103  37.6380844  67.7610550  30.3285446  64.3840485
  67.9180222  31.0380974  63.7610474  67.0401764  29.8286495  64.0010757
   0.6180484  32.7010765  55.1756935   0.2605440  32.7977524  54.2930412
  -0.1342174  32.8273354  55.7539558   3.2763202  20.7292824  70.5208664
   3.8730090  20.0900059  70.9101257   2.7964296  21.0930424  71.2649231
  23.6076260  70.1856766  87.2766876  24.0533886  70.9152374  86.8462677
  23.7933750  69.4294968  86.7199783  29.6012974   4.8893266  10.2740402
  30.2955666   5.2177143   9.7027416  29.0448399   4.3652821   9.6978769
   0.9736573  34.8330956  35.0358009   1.8528748  34.8887405  34.6614838
   0.7706435  33.8976784  35.0323677  19.1537704  22.2576084  25.0603085
  18.7003117  21.8228416  24.3381004  18.9261646  23.1823502  24.9639702
  48.5613556  53.9747505  55.7461014  47.7313156  53.5198212  55.8885956
  49.2258263  53.3693810  56.0750923  72.1343460   4.6514735  81.1683121
  72.2663345   5.5058322  81.5792694  71.1985931   4.4782047  81.2712021
  10.3958845   1.1753615  26.7294044   9.7169943   0.9701578  26.0865746
  10.6354599   0.3275623  27.1036663  84.1876373  -0.1546737  69.9629059
  84.4610367  -0.5624105  69.1411819  84.1358795   0.7795812  69.7611160
  56.7069130  38.7544594  58.0732193  56.2606544  39.5098000  58.4560356
  56.4187889  38.0117645  58.6038971  62.3407555  36.8074570  29.9447193
  63.1789284  36.5512352  29.5599518  61.9366951  37.3711395  29.2849998
  59.9639091   7.7885723  18.5559845  60.7708664   8.1229591  18.1645241
  59.6866722   8.4781532  19.1591835  75.7779007  38.5181351  72.2584915
  76.4369736  38.7389145  72.9165955  75.0241089  39.0641632  72.4818420
   0.5752009  61.6035233  81.1667404   1.4283887  61.4464989  80.7622070
   0.7182644  61.4395027  82.0988693  17.9539413  66.1241531  37.8060455
  18.0426121  66.7625961  37.0984001  18.4350548  66.5097656  38.5382080
  38.3137016  59.3112907  76.3405685  38.0132027  60.1127014  76.7691422
  37.5187607  58.9220009  75.9762115   1.4669263  57.3260727   1.5249636
   0.8154365  57.9641647   1.2340515   1.2222102  56.5143433   1.0806147
  79.6590652  46.3344727  55.5013161  79.5071106  46.4989166  56.4319611
  80.6014938  46.4570465  55.3871918  76.5933228  44.6385155  78.2265625
  77.2728729  44.1786079  78.7194366  77.0746841  45.1591454  77.5835419
  13.8254881   7.8790336  16.9872494  14.1992884   7.0174198  17.1719856
  13.6861153   8.2696199  17.8499470   0.0120404  40.6475677  66.4647217
   0.0669330  40.5883141  67.4185104   0.9178810  40.7677269  66.1796875
  20.6969757  34.0480690  24.4748211  19.9584541  33.4499321  24.5890465
  21.3220634  33.7888451  25.1518021  12.2055502  44.6984711  25.3009892
  11.8013153  44.1966362  24.5931854  12.8567533  44.1044159  25.6741714
  22.8406506  52.5108490  11.5078211  21.8975506  52.5553970  11.3503046
  23.1877499  53.3098068  11.1110611  77.9765167  55.4922562  33.2188835
  77.4805069  55.9960480  32.5735970  77.3448944  54.8641739  33.5693169
  72.0189285  32.2242622  77.7365494  72.6890717  31.6881828  78.1605301
  71.6633377  31.6626720  77.0477829  85.3757706  46.1104431  42.8757401
  85.9347000  45.4831886  42.4170685  84.7922668  45.5680122  43.4063263
  28.5202236  30.7873497  79.3319550  29.0412064  30.5723324  80.1056290
  28.8358936  30.1872902  78.6562958   0.1820158   8.8138046  72.5759659
  -0.3578165   8.8814430  73.3635178   0.6908163   8.0129499  72.7024002
  43.2928123  50.9646568  33.9055939  42.9418182  51.5927925  33.2743416
  44.0541687  51.4048615  34.2834702  14.1802454  39.0024719  86.7943039
  14.6877966  38.4192123  86.2300034  13.2719412  38.8656158  86.5250702
  24.6400738  21.5264168  77.4750290  25.3889561  22.0135460  77.8187027
  24.1988010  22.1449203  76.8928223   6.4248204  10.0705614  29.6848354
   6.6083264  10.8346243  30.2314301   6.6783013   9.3226538  30.2257729
  59.4629478  53.1927376  72.6331329  59.4299355  52.7144661  71.8046417
  59.0280190  54.0248184  72.4468384  37.9983826  36.9747124   2.4397316
  38.6928749  37.3249969   1.8818694  37.2231827  37.4854088   2.2063055
  18.8741932   2.6480217  22.2676678  18.1017170   2.4332416  21.7448082
  19.4994087   3.0039086  21.6362553  62.8052559  28.1812630   7.2345614
  63.6449471  28.5854740   7.4531212  62.3233109  28.1681366   8.0614758
  39.8155212  65.9534988  74.2870712  39.9843750  65.0234680  74.4379272
  39.7855072  66.0400162  73.3342667   7.2285910  22.7007523  86.1033478
   7.8044581  22.0680618  85.6740341   7.6925178  22.9411697  86.9053497
  31.6376762  51.1304626  41.7715797  32.0548134  50.3613625  41.3833542
  31.7088699  50.9905319  42.7158165  49.6547737   4.8067579  63.3968391
  49.8800392   5.6830053  63.7093735  50.4295692   4.2779713  63.5873833
  77.6745300  67.0509644  59.3714485  76.8668365  67.4888992  59.6399193
  78.3053665  67.7615891  59.2561531  54.9756508  47.5058479  22.1724434
  55.2844200  48.2635269  22.6692467  55.6215172  47.3978386  21.4742851
   7.3524685   9.3731422  14.6548500   8.0835371   9.5741310  14.0705786
   6.5714197   9.5691204  14.1373682  53.5955391   3.4929368  83.8367615
  53.0684280   3.9895062  83.2108154  53.9609566   2.7722707  83.3235931
   6.3531961  -0.1390661  33.1564293   6.1283126   0.7871624  33.0683365
   7.2980208  -0.1714509  33.0064659  52.9901772  15.4058857   0.6574624
  53.3101501  14.9651051  -0.1296598  53.3026352  16.3065472   0.5713831
  46.8051529  66.6059799  62.5723648  46.2550583  65.9260101  62.9612961
  47.2728577  66.1606522  61.8658485  28.7755890  40.3502502  67.5081329
  29.2121563  41.1953506  67.4011459  28.2227383  40.4624596  68.2814331
   0.0656942   9.0705404  66.9983597   1.0223396   9.0762768  67.0304337
  -0.1753187   9.9886208  66.8747787  57.5644112  10.6921520  43.5749588
  57.2283325  11.5764751  43.4291649  58.3405304  10.6359615  43.0175476
  33.9428444  57.7446289  67.0703430  34.0993805  58.6770248  66.9207916
  34.4460716  57.5406952  67.8586349  65.3282471  32.8813553  81.0392914
  66.0825500  32.3405304  81.2733078  65.1592865  32.6721153  80.1206512
  62.4427147  17.6654606  28.0643902  62.4933205  18.2763386  27.3292046
  61.5437317  17.7476826  28.3826656  63.1283951  11.9772072  86.4595642
  63.6500549  12.6781883  86.0687561  62.6023026  11.6379509  85.7354355
  79.5640335   9.6170902  37.6277695  79.1808243  10.4940996  37.6124153
  80.4905396   9.7638521  37.8182526  71.7642365  37.0318527  68.7294922
  71.5076599  36.5152130  69.4933548  71.9036102  37.9143372  69.0730438
  56.2235069  25.1840897  22.2927055  55.8066521  26.0213509  22.0890980
  55.6347198  24.7706623  22.9240837  79.9191284  12.7152061  87.3231583
  80.6985931  12.3918667  87.7749557  79.1884995  12.4286222  87.8711395
  57.2031708   1.9224348  58.1330986  56.9641571   2.4090312  57.3442230
  57.8900146   1.3212914  57.8448181  46.1300850  71.8472748  12.7023096
  46.6919556  71.4402542  12.0428648  46.2933502  71.3437729  13.4998446
  55.6445122   0.1598819  50.0722046  55.3025589   0.9903210  49.7410393
  55.3608704   0.1314099  50.9859695  70.2578964   0.1161334  71.3131027
  70.6135712  -0.1407265  70.4623642  70.3913803   1.0631630  71.3524551
  75.6709213  57.9814034  80.5505600  75.1462860  58.7387085  80.2908020
  76.4814529  58.3578072  80.8934708   8.0710554  62.1505852  44.4478989
   8.2907839  61.9708786  45.3620415   8.6329641  61.5601921  43.9459801
   3.4680879  33.5078087  45.6648636   2.9776552  33.4392128  46.4840126
   3.9566722  34.3269043  45.7460976  34.7369652  25.4039097  88.8761902
  33.9053917  25.1480923  89.2752838  35.4019547  24.9616852  89.4038773
   1.6535965  28.3123569  37.2895470   1.3334616  28.7250900  38.0916672
   1.8603716  27.4143047  37.5483513  65.1064835  35.8646011  56.4563179
  65.1011963  35.5037231  57.3428688  64.7354431  35.1696548  55.9126205
  47.6829071  19.4991322  27.8433628  47.1589813  18.7877541  28.2117023
  48.5835838  19.2831669  28.0849686  86.1832733  33.2224693   2.3312180
  85.4770050  33.0772171   1.7016791  85.7365494  33.3384209   3.1698046
  49.2713814  19.3256245  69.9375305  49.5657616  18.7886314  70.6731949
  49.6382027  18.8954525  69.1651077   4.5999565  52.3057518  76.8163147
   4.0041122  52.6298637  77.4917068   4.0487995  51.7659836  76.2496567
  77.4029388  32.4449005  16.8979893  77.6675873  31.7546177  17.5060215
  76.5589371  32.7481461  17.2325516  19.0713959   5.4294167  58.5153770
  19.2567883   5.2088461  59.4281807  19.7983303   5.9941998  58.2530479
  68.1221466  53.6295204  28.7532864  68.3756180  53.9221764  29.6286945
  67.5810928  52.8550072  28.9069786  48.3781738  19.4173031  73.3940659
  48.3607330  19.3022537  74.3441696  48.8080597  18.6278801  73.0650635
  85.7901001  20.4459820  52.2304192  84.9409485  20.7793541  52.5203133
  86.2077789  21.1937618  51.8031006  81.7156525  14.1532230  82.4899521
  81.9030380  13.2145443  82.4891510  82.4853897  14.5507708  82.8970184
  65.6889954  10.2216349   6.8295708  65.8375320   9.5730600   7.5176983
  64.7379379  10.2451258   6.7238350  36.2488937  67.8733368  57.1229095
  35.2955208  67.8074646  57.1773682  36.4379196  68.7886963  57.3293495
  24.8578758  53.5274467  44.6909904  24.7406425  53.0993500  45.5390587
  25.7816334  53.3919334  44.4799461  84.6606369  18.3667164  55.6544228
  84.5883179  18.2206726  56.5976448  84.9623337  17.5283298  55.3046837
  49.7589417   1.4634001  72.0690613  49.5034142   2.0213699  72.8036423
  49.1592865   1.7065268  71.3636932  72.8863831   5.2189198  56.2826958
  73.2541122   5.8634834  56.8872948  73.5153656   5.1802111  55.5622025
  55.6175919  44.0369911  23.4642277  54.8005409  44.5083351  23.6269875
  55.4303360  43.4892235  22.7019176  60.9853668  33.1780357   5.3734703
  61.2679977  32.2686844   5.4705820  61.6239662  33.6824493   5.8774452
   3.7487097  36.8080711  31.4024677   3.7384975  37.6637573  31.8313370
   2.8331618  36.6416245  31.1781921  43.6109200  44.9742241  24.7864513
  42.9883041  45.4411736  25.3437138  44.4529533  45.3929787  24.9649391
  10.2044392  64.8054123  47.1806068  10.4396210  64.5820694  46.2800293
  10.9791965  65.2474289  47.5278816  74.8667145  31.3025627  35.1706238
  74.3453674  30.7898655  34.5529099  74.3459320  32.0902138  35.3275566
  31.6943188  42.4119263  44.3861771  32.1132927  43.0687370  43.8300362
  31.6024723  42.8415413  45.2366028  75.2522354  10.0014887  11.2399998
  75.4485703   9.9479370  12.1753159  75.1440201  10.9374504  11.0711880
  15.4341345  20.8243561  81.6310730  15.7818708  20.1406937  81.0584335
  14.9998779  21.4364586  81.0369492  63.2878227  69.0467224  14.3881760
  63.3497849  69.1298447  13.4366074  62.4083328  68.7015228  14.5416851
  65.7156219  27.7406807  88.7641068  65.5478287  27.9309483  87.8411407
  65.2441483  26.9243145  88.9299240  17.7112961  40.3766861  82.6867371
  17.2703533  40.8387718  83.3996735  18.4180622  40.9649849  82.4209900
  79.6868057  27.3096447  79.4098969  79.2735062  28.1723709  79.4434509
  79.0581131  26.7261982  79.8348312  21.4926319  42.3418999  88.2576065
  22.3573284  42.1354179  88.6124344  20.9435501  41.6028900  88.5195312
  53.0741196  49.4229393  45.5438614  53.3573036  48.6752930  45.0174942
  52.4575768  49.0517273  46.1749802  37.1087646  32.3867760  25.8698196
  37.8368111  31.8297787  25.5942593  37.4460182  32.8641968  26.6278191
  50.7671280  62.6757469   7.0660038  50.7976723  62.8308258   6.1219440
  49.8333054  62.6551476   7.2752528  13.5828905  38.0349312  35.1991386
  13.1096849  37.8783226  34.3819580  13.8136530  38.9633789  35.1681290
  42.2930603  11.5324345   4.0905814  41.8051682  11.1152897   3.3805220
  41.6352997  12.0372601   4.5688405  47.9540787  69.6996613  36.0009270
  47.7736244  68.8013611  36.2779198  47.1196175  70.1559143  36.1092720
  70.4807816  50.3148499  87.8138046  69.5730515  50.0150566  87.7649155
  70.4508972  51.2203979  87.5050659  55.0200386  57.5853767  13.6406260
  54.7900810  58.0609016  12.8423615  55.0684204  56.6690826  13.3680515
  15.8238802  22.0974445  13.9917107  14.9057121  22.3584824  13.9205885
  15.8052111  21.2960320  14.5148001  20.0631828  42.6581459  53.8669701
  20.8572826  42.2110252  53.5741844  20.2243500  43.5821571  53.6760368
  38.6240997  58.7554779  68.3693466  38.9251747  57.8835602  68.1137314
  37.9990883  58.5953140  69.0764084   6.9254785  31.8274460  28.0104866
   7.4973617  32.5213165  27.6822720   6.7389688  32.0786591  28.9151058
  74.0373611  20.3409595  59.1540756  74.1646500  21.0907497  59.7353210
  74.8539124  19.8457985  59.2195778  25.6555176  41.6291542  26.3754330
  25.2666969  41.7785416  25.5136127  26.5404224  41.9870796  26.3042583
  41.4060020   0.1643862  44.9478683  40.8456688   0.1061862  44.1740036
  40.8905182  -0.2368120  45.6475449  28.8344421  37.7053947  83.0644073
  28.2864094  36.9932175  82.7347183  29.6410427  37.2752113  83.3482590
  43.6892586  62.8413811  68.6515732  43.3522301  62.5851288  67.7930984
  43.4070740  62.1400833  69.2387543  14.7307205  25.2272568  78.3121796
  15.3061886  25.1449718  77.5517197  14.5601120  24.3249149  78.5821915
  18.0460949  35.8434677  68.6446152  18.8987350  35.4312592  68.5056152
  17.8018761  36.1846008  67.7842560  41.2860336  29.8230152  79.4758682
  41.0108681  28.9101791  79.3907471  41.3437920  29.9687004  80.4201508
  59.1114883  69.6289597  42.4563522  59.7739143  70.0386276  43.0127602
  58.3065300  69.6696320  42.9727058  12.3160295   6.1133776  29.7841854
  12.0736246   5.3882790  30.3601227  12.3558683   5.7228298  28.9111938
  32.6743393  32.6973991  77.4116058  33.1749649  33.0831871  76.6927338
  31.8371849  32.4535942  77.0166855  81.2824326  20.5306625  68.4210205
  82.2143173  20.5515099  68.2033463  80.8450546  20.8520126  67.6325607
  39.3524780  57.0370293  18.4377842  40.0388680  57.5080681  18.9102516
  39.5770454  57.1495399  17.5141258  40.2749977   5.4574900  31.8804855
  39.6985130   5.6048436  31.1306953  41.0932426   5.8936553  31.6428528
  78.3838730  59.2852249  54.2157593  78.2823868  58.6626091  54.9356766
  77.8824844  60.0529022  54.4905510  65.0162048  46.3700943  49.0580254
  64.5871887  46.4941597  48.2113953  64.5822525  45.6055412  49.4366760
  14.6288376  47.4883270  85.6149521  14.1006365  46.9397736  86.1948853
  14.1466007  48.3134041  85.5608444  50.0210915  42.9683456  73.4400940
  50.8964729  42.5849228  73.4941864  49.4967766  42.3057632  72.9903030
  42.5809898  58.7163658   1.6466053  41.6355553  58.5763893   1.5938009
  42.7138100  59.1365929   2.4963126   4.5307136  66.1301193  58.8569069
   4.4027724  65.2028198  59.0568542   5.3183470  66.3735657  59.3433189
  69.7077484  16.0675449  65.2702942  69.9657135  15.1985579  64.9628067
  69.6471176  15.9768829  66.2212601  70.6835556  44.5208588  44.4904861
  70.6652527  44.3922691  45.4388313  71.5192490  44.9568939  44.3239899
  85.0530167  62.6759682  87.0636368  84.7291946  61.8491592  87.4210739
  84.5198669  62.8244324  86.2826462  76.7590256  41.4373856  85.8758926
  77.0024414  40.5215569  85.7408371  75.9225082  41.5325470  85.4204559
  56.1753845  48.5651970  80.5038223  56.3786888  47.8981476  81.1595230
  57.0202179  48.9667549  80.3007431  60.1712952  19.5240021  48.0436287
  60.7767677  19.3825531  47.3158722  59.9841614  20.4624481  48.0205650
  25.7176228  15.4343624  63.0641403  26.2115154  15.4794073  63.8828392
  26.2963886  15.8311625  62.4131317  16.2399502   1.8895659  71.3326721
  15.8737659   2.7713699  71.2651215  16.1664925   1.6702224  72.2614975
  34.7015266  21.9226971  87.2698746  34.8839188  21.0475693  86.9276505
  34.4276543  22.4271412  86.5038681  17.6359005   3.9242902  14.3980455
  16.8887424   4.3780079  14.7880821  18.3992214   4.4171515  14.6991444
  45.5043259  27.8286591  17.6184082  45.3666382  28.0739861  16.7034817
  46.3835602  27.4506435  17.6353092  47.2942886  59.1151619  12.7062454
  46.4309006  59.4379158  12.9643574  47.4076576  59.4263191  11.8081589
   2.5332050   1.6375303  40.3806114   3.2531476   1.1807555  40.8156662
   1.7547742   1.1289707  40.6078682  34.3985062   6.4799290  78.9487228
  33.4496574   6.5545831  78.8470001  34.5354881   5.5890779  79.2709885
  21.3780193  52.0953445  26.0137672  21.5918884  53.0227394  26.1158943
  21.1472473  52.0031471  25.0893879  63.0848732  15.2905245   4.1497812
  62.6088753  15.0631065   3.3510702  63.9292068  15.6184406   3.8402643
  26.7825356  45.6568642  33.4819565  27.5524769  45.2084312  33.8317184
  26.0941868  44.9917641  33.4890327  36.4866104  59.4475479  38.7329216
  36.1122131  58.6198044  38.4314270  35.7948036  60.0919380  38.5832672
  29.7739792  29.5614891  64.1615753  29.7137356  30.2030010  64.8694305
  30.6565800  29.6758232  63.8091888  52.1868591  46.9356422   5.7625575
  52.9178162  47.5231209   5.9543986  52.5674210  46.0583267   5.8041091
   1.9210603  66.6505432   4.7761354   2.7577958  66.9254608   4.4012680
   1.4172431  67.4603882   4.8570719  79.2588196  57.7305679  60.3889809
  79.9244614  57.5749359  61.0590057  79.1685257  58.6829872  60.3577385
  19.9542427  15.2609825  80.4035721  20.2263432  14.6992416  79.6778717
  19.7258415  16.0932674  79.9896011  44.7298622   6.2942863  27.5992928
  44.7790947   7.1981163  27.9105797  44.6776466   6.3715758  26.6466484
  60.4931374  39.4382706   8.7071753  60.6683807  40.2960663   8.3202591
  61.0329056  38.8319511   8.1999664  52.3478165  40.9098663  87.6635284
  52.4404373  40.5702019  88.5536270  52.0682144  41.8176880  87.7814789
  65.3299561  58.8361511  22.8641148  65.6102066  58.7719536  21.9511147
  65.4290848  57.9484062  23.2080746  23.4788475  57.2300682  59.7398224
  23.9162083  57.2358589  58.8884048  23.1813717  58.1315727  59.8624115
  83.2995148  42.5123558   3.8693645  82.8411789  41.9719772   3.2258170
  83.0875092  43.4121475   3.6210527  45.3590469  61.4863358  16.0271626
  45.7361259  60.8092117  16.5888977  44.6838646  61.8969917  16.5672760
  83.9641190   4.5793405  88.2612686  83.7096405   5.2546258  87.6324158
  83.1940308   4.4689674  88.8189468  50.6010399  23.7875748  70.6821594
  49.7145309  23.9895058  70.9814224  51.1387138  24.4998932  71.0281982
  40.6206322  57.2367973  47.9460411  40.3774223  57.3342819  47.0254021
  39.8604088  56.8200455  48.3517685  50.1649323   4.5320649   4.9834762
  49.7343330   4.5734606   5.8373499  49.8799591   3.6972988   4.6117406
  56.4418411  26.4144993  78.1747894  55.5811615  26.7296963  77.8989029
  56.3244171  25.4722424  78.2955933  12.3484316  19.2046585   6.6986046
  13.1352530  19.3914623   6.1865015  11.6890984  19.8061981   6.3526850
  41.5359344  61.8768005  18.8567886  41.3034554  61.0214119  19.2180309
  40.8704567  62.0438194  18.1893482  44.0181351  57.9346237  44.5325775
  43.6831512  58.5119629  45.2186508  44.7607422  57.4868126  44.9378395
  51.3984451  24.1026230  82.4572296  51.5401573  23.4954662  81.7309341
  50.5619965  23.8320465  82.8358765  17.4883938  55.3657608  28.5222893
  18.4240150  55.1636543  28.5228252  17.0670109  54.5486870  28.2557297
  61.1378784  18.5799847  31.6966419  60.5567207  18.6530838  30.9395790
  61.4413033  17.6723232  31.6789055  62.6730614  63.6694794  38.1093636
  62.0735130  64.3591919  37.8246269  63.1369438  64.0485306  38.8559303
  14.0024862  41.3876572  80.8532486  13.5335159  42.1936111  81.0694275
  14.1616268  41.4484482  79.9113312   0.1096715  56.9962463  83.4638214
   0.6167239  57.5723190  84.0359039   0.7593543  56.6091003  82.8770828
   2.1740899  34.7552643  29.9549980   2.3491426  33.8158646  29.8991795
   1.4360920  34.8258171  30.5604839   9.9521065  12.7301502  72.0943069
   9.6269827  13.5048933  71.6357193  10.8879576  12.8950405  72.2093124
  40.2573357  38.3384514  14.1677189  40.3275719  39.2825127  14.0261497
  39.4090271  38.2229118  14.5957994  21.0304127  69.2958603  59.5757904
  21.0097427  68.3393173  59.6044350  20.6878300  69.5170059  58.7097855
  67.1754608   8.6905937   1.6258022  67.9767075   8.4994345   2.1133361
  66.7259750   9.3509331   2.1531961  43.6775665  14.3863888  69.9475937
  43.6418114  13.9373350  69.1030273  44.3327560  15.0735331  69.8259583
  75.7028580  29.2030048  79.4063339  75.7257690  29.7545834  80.1883011
  75.8417053  29.8110199  78.6801987  26.1248245  10.2239370   8.9090586
  25.6837559  10.5859003   9.6776104  25.9343281   9.2864962   8.9429350
  45.5284233  55.5014496  35.2793503  45.2809639  54.7786522  35.8560295
  46.4855003  55.5031624  35.2946320  62.7743568  30.4558601  63.0664597
  62.1979141  29.6926861  63.0276337  62.1795120  31.2014771  63.1467743
  85.3439484   8.1393824  18.8791122  85.3990784   7.7472396  18.0076675
  84.7481995   8.8807354  18.7709026  81.9662628   5.0928931  65.4507446
  82.2922592   4.8914461  64.5736008  82.6798019   5.5772471  65.8660660
  66.9201202  43.3274422  26.1683846  66.0113449  43.4690132  26.4335480
  67.2153397  42.5935669  26.7073689  52.0109177  22.7011108  88.7754593
  52.1255531  23.1321526  87.9285278  51.0798149  22.4815674  88.8083878
   5.8856082  71.4349747  44.4316521   6.8226991  71.2902679  44.5626144
   5.8400335  72.1590652  43.8072739  61.5636177  52.6169662  30.3314915
  60.8949623  52.5463676  29.6502075  61.7686768  53.5511551  30.3699417
  84.7560272  41.5001373  51.1740723  85.0599442  40.8553772  50.5352058
  84.4763107  42.2475662  50.6455421  55.5548401  54.0678787  25.6176701
  55.1376534  54.5121536  24.8795605  56.4229393  53.8281898  25.2933464
  65.3091965  13.7454948  16.5977993  64.8616409  12.9082012  16.4758720
  65.0124969  14.0531816  17.4542637  79.1557922  44.4232445  20.6896305
  78.2375793  44.6588211  20.5568810  79.6178970  45.2613182  20.7075577
  83.1697235  69.6654968  15.5482321  83.7486267  68.9559479  15.8268881
  83.7167816  70.2141953  14.9861870  31.8480873  46.4171219  36.3523064
  31.9967690  45.5014725  36.5883446  32.5564651  46.6255112  35.7432060
  12.1337242  29.6158924  67.4892120  12.3637724  28.7514019  67.1486816
  12.4873028  29.6248112  68.3786697  26.4932499  40.3528404   3.9695234
  26.4426155  41.3067017   3.9077439  26.5663376  40.1771278   4.9076147
   3.0728104  54.5735588  35.0521088   2.1507058  54.7316704  34.8497353
   3.3465588  53.9098129  34.4190750  44.7416878  57.9015465  32.3845711
  45.4139709  57.5654755  31.7918491  45.0586662  58.7679787  32.6396217
  18.0775261  45.2202187  79.0377579  18.4801426  44.5449448  78.4917374
  17.1380787  45.1277618  78.8792572  17.7633209  45.8367157  48.6067085
  18.6423435  45.8695183  48.9841652  17.4065514  44.9993439  48.9029503
  76.5044861  25.6878986  52.8238373  77.2752457  26.2264557  52.6446457
  76.0429840  26.1545219  53.5206261  11.6100836  61.7468109  27.3553658
  11.8702393  62.5258102  27.8470058  11.0947552  62.0863838  26.6236839
  30.5370636  67.3294830  63.8599319  29.7051487  67.5213547  64.2927551
  31.2036095  67.6066055  64.4885483   0.4201269  52.1083946  60.5965767
   0.4554310  52.4387436  59.6988831  -0.0175884  51.2603493  60.5226746
  85.0732574  16.5542622  34.8097458  85.8422699  16.6312656  35.3744736
  85.1009903  15.6528511  34.4889297  30.2764950  37.1901169  79.7587280
  29.7984982  37.8407173  79.2444611  30.5260162  36.5189476  79.1235123
  59.9762840  45.0682449  74.4706345  60.5296936  44.3031197  74.6273193
  59.1074257  44.7045441  74.3002167  29.2206039  37.1753311   5.9461074
  29.1560516  36.2463989   6.1678147  30.0693016  37.2594299   5.5115104
  81.0355682  48.9577332  87.4545288  80.8337631  48.8636284  88.3854675
  80.7839127  49.8570900  87.2446213  49.9837914  66.1133957  48.1054230
  49.0744476  65.9359894  47.8648987  50.3355751  66.6069641  47.3645706
  48.1191521  42.7156792  12.2936430  49.0624771  42.8532257  12.2073164
  47.7606087  42.9752045  11.4449244  37.9275970  68.0189362  85.8617096
  38.1651535  67.2559967  85.3347168  37.9778252  67.7101898  86.7663574
  50.1488800  24.9445324  56.9684868  49.3067970  24.7674885  56.5492210
  50.5219116  24.0782852  57.1318665  60.5535736  24.9590645  51.5032272
  60.2534866  24.8872986  52.4093323  61.0564461  24.1585102  51.3533478
  39.0729561  65.4373627  25.3467503  39.1337509  65.6713028  26.2729301
  38.2243271  65.7814102  25.0680199  22.7908878  37.1226959  43.5335770
  21.8820801  37.3822327  43.3821144  23.2212811  37.2533455  42.6886368
   3.9745452  67.5504608  40.8776016   4.1877680  68.0525436  41.6641655
   4.6418996  67.8072968  40.2412796  54.2474823  54.9100227  71.9735641
  53.6126671  55.4468880  71.4991989  55.0120659  55.4768677  72.0752029
  79.9224014  26.2662888  88.1967545  80.0221329  27.1905670  88.4247818
  80.8108139  25.9123287  88.2375107  47.6505775  42.0670319  14.8826351
  47.9683113  42.8299026  15.3656559  47.7352791  42.3142662  13.9618025
  57.6017265  71.5340729  75.9738464  58.2199707  70.8058472  76.0346298
  57.0563240  71.3226166  75.2161789  47.6015320  24.8037624  56.5955124
  47.3470726  25.2666702  57.3937607  47.4521370  23.8798904  56.7964439
  54.7628746  14.2275715  59.5633507  55.0626297  13.3189564  59.5915871
  55.5518150  14.7341747  59.3705864  20.6891384  63.0686913  63.3735466
  20.5910606  63.7848701  62.7460938  20.8248310  63.5043526  64.2149887
  38.2492599  49.7215157   1.9264929  37.9707031  50.3710251   2.5720749
  38.8875084  50.1829720   1.3824991   5.5963778  56.6977463   6.5303864
   6.4233723  56.9447517   6.9442711   5.7706194  56.7598686   5.5912313
  58.9271049  55.3723373   1.8140571  58.5108109  55.3762093   0.9521322
  59.5702438  56.0800705   1.7725955  47.0352554  51.3452721  65.4488602
  47.6573219  51.0738411  64.7738800  47.0443344  52.3017273  65.4122620
  16.9985847  62.5261078  69.0940018  17.4720135  61.7395020  68.8231735
  16.1632481  62.4747505  68.6294479  20.2813396  56.8829422  10.7095680
  20.9595566  57.2985268  11.2420578  19.6409893  57.5769577  10.5529690
  69.2032776  51.1027336  59.6653252  69.6320877  50.2753906  59.8840904
  68.3234634  51.0211678  60.0334396  12.6039181  71.4807281  88.4213867
  12.1067238  71.8207779  87.6774826  13.5100079  71.4580612  88.1136246
  10.4760332  64.5296402  87.9413681  10.1382341  65.3976364  87.7206573
   9.8447676  63.9218941  87.5561752  38.8094521  49.9385071  79.1695862
  37.8706474  50.0345192  79.0094070  38.8801079  49.1576881  79.7187347
  26.5998421  42.9950333  55.7779999  26.2988434  43.9025383  55.7325325
  27.5546169  43.0600891  55.7980804  15.2659330  61.6900253  55.8396568
  14.9668913  60.8823318  55.4220009  16.1151772  61.8683548  55.4356613
  47.6345825  39.7141571  87.5892944  46.8549843  39.1888390  87.4090195
  47.5467834  39.9653358  88.5087662  21.3677673  69.3003387  10.5471287
  21.9630795  69.7692108   9.9623270  20.8939667  68.6978302   9.9737759
  70.5169373  44.2884140  47.0636826  70.3062057  44.9989281  47.6694870
  71.3302994  43.9163132  47.4045906  60.3849068   9.0078144  33.1762085
  60.8316841   9.7386456  32.7489967  61.0686417   8.3499422  33.3024750
  85.8824844  23.6046047  22.6087017  86.7460175  23.2494602  22.3979626
  85.9038544  23.7399807  23.5560398  28.2181187  53.4347153  68.8108826
  28.1166954  54.2860909  69.2364426  27.9882545  52.7992096  69.4887619
  86.0721436  49.6350174  72.2115250  86.1418915  49.8571777  73.1399765
  86.5034485  48.7838516  72.1358719  50.4562149  49.4180527   1.9370275
  51.0225639  49.8660164   2.5653636  50.7988472  48.5250435   1.8999848
  46.5137329  67.9843903  48.1368141  47.3020630  68.5260086  48.1744690
  46.4931564  67.5324020  48.9803276  51.8811417  50.6916428  71.1076660
  52.8103561  50.9206161  71.1267471  51.7574196  50.1287842  71.8719330
  78.6193848  67.9816513  26.2003975  78.7155151  67.3993912  25.4467640
  77.8634491  68.5282516  25.9858665   4.4626160   4.0452213  50.0928116
   5.1618657   4.5843000  49.7231140   4.2852373   3.3883193  49.4195709
  20.5611629  27.5690136  88.2681198  20.0563316  27.2927094  89.0329971
  21.0260468  26.7798157  87.9901276  57.3364525   9.3571844  34.8278198
  57.5330925  10.2029839  35.2305489  56.5336990   9.5100889  34.3293800
  56.7451591  71.4679413  28.9529514  57.0364685  71.2358017  29.8346977
  57.4641991  71.1944427  28.3833809  28.4719868  70.2067947   4.3176594
  27.8451481  70.8824844   4.5760026  29.1205864  70.2000656   5.0215807
  76.8031921   8.1028204  58.1387711  76.8603592   8.9055939  57.6205826
  76.5067825   8.3947916  59.0008163  70.1602249  58.6636353  44.3283501
  70.2493973  59.1736488  45.1334381  70.4070129  57.7736931  44.5800209
   5.9061790  45.2640495  14.1574221   6.2018952  45.7608986  14.9202614
   6.6168628  45.3543243  13.5225906   8.2038374  66.4586945  84.5970840
   8.8021536  66.3633957  85.3381424   7.4660339  65.8872223  84.8099136
  45.5894356  14.8933249   9.4648371  46.2230225  15.3682346   8.9270048
  46.0156898  14.8076544  10.3175974  59.1885376  61.4894943  31.3181591
  59.5898132  60.6374702  31.1471004  58.9224319  61.4488258  32.2367249
  12.5576506  23.3526268  74.9774551  13.3327169  22.7953930  74.9067688
  11.9057484  22.9280529  74.4197922  33.3589134  56.7469292  28.0276260
  34.0580406  57.0502243  27.4484329  32.9754601  55.9993019  27.5690975
  33.2216301  39.6052322  79.0156937  33.2405510  39.4350929  79.9574661
  33.2542839  38.7366943  78.6146927  72.9586411  37.2015266   7.4777355
  73.0789871  37.4185066   8.4022179  73.8454361  37.1870537   7.1177058
  33.3823853  45.1312523  49.4315567  34.2179489  44.6908035  49.2763977
  32.9754829  44.6307182  50.1387520  69.7201385  61.9539108  18.0670547
  70.5879364  61.8734894  18.4628887  69.2358322  62.5229836  18.6652470
  84.2504730  11.0333748  68.7275467  83.3947983  10.6217928  68.8485947
  84.6077423  11.1078892  69.6124420  78.6632690  23.3065853  79.2965012
  79.1480560  23.2398186  78.4738541  77.7566605  23.1150646  79.0564651
  32.2337837  60.1836281  55.7544212  31.9293652  60.5075264  56.6021538
  32.0691414  60.9063110  55.1487389  67.1578751  16.2890663  22.7565403
  66.3507614  15.7796526  22.6838093  67.8577499  15.6479254  22.6326466
  38.7894554  53.2294540  76.5387497  38.2357826  52.4730072  76.3451843
  39.3403130  52.9429245  77.2672348   9.7599707   2.7002959  59.4648781
   9.1132088   2.6865048  60.1703873  10.4138775   2.0521581  59.7267113
  54.7960854   6.5660338  47.2039452  54.6468086   6.8701210  48.0991974
  55.2618675   5.7362266  47.3073845   8.5076962   9.0622225  27.1307755
   8.6931763   8.9742699  26.1958447   7.8976274   9.7977667  27.1857643
  59.6504402  30.2528801  85.3488312  59.3344002  29.5273781  84.8103180
  60.3528709  30.6468678  84.8315277  22.8373642  39.3684921  29.9984207
  23.6203594  39.7681618  29.6197224  22.1098270  39.7701225  29.5234337
  44.4647408  51.0080643  52.4054489  43.8861694  50.5793915  51.7747917
  45.2937508  51.1113625  51.9382210   9.5271368  29.1014977  29.3049812
   9.6444597  28.4647083  30.0099392  10.1668911  29.7880898  29.4934959
  80.2328186  43.4199867  40.0807076  80.0048676  44.1667023  39.5269165
  81.1877213  43.3712196  40.0358772  39.3957329  11.0031967  12.4911900
  40.2844467  10.6484976  12.4665613  39.4295845  11.7737312  11.9243002
  81.6809006  54.1486359  44.0936241  82.0298004  53.8660126  43.2482719
  81.5676193  55.0946617  44.0017891  31.8473949  17.7374992  66.7345505
  31.2717667  17.7539711  67.4991455  31.6610355  16.8988380  66.3124695
  26.2491341   4.8477564  76.3211365  27.0780411   5.1731148  76.6722565
  25.7483101   4.5854783  77.0935440  85.7464447  47.6575966  58.3154335
  86.2983627  47.2434845  58.9788589  86.3342361  47.8087845  57.5752449
  31.1144104  54.5950241  70.8756561  31.6509895  53.8024864  70.8615875
  30.4926224  54.4760628  70.1576996   0.5795247   3.6347589   7.7633958
   1.1745030   4.3745155   7.6409512   0.6574048   3.4159067   8.6919813
  83.7834625  27.5957680  89.1989136  84.5595932  27.1583118  89.5489044
  83.3044510  26.9044075  88.7419739  25.9295635  52.8719406  51.5387306
  25.8609753  53.6729431  51.0191879  25.1073112  52.4097366  51.3759499
   3.3750000  21.2109451  38.2583694   3.3574324  20.9200630  37.3466072
   4.0184350  21.9195042  38.2713661  56.9262695  35.4129066  47.2571068
  56.9953690  35.4501572  48.2110825  57.8242188  35.2714424  46.9572716
  18.3938313  10.1744051  68.8549957  17.8605537  10.6481562  69.4932785
  17.7984753   9.5253572  68.4801331  23.2588634   0.5238021  11.5048351
  22.9301815   1.3624682  11.1810455  23.2934208  -0.0355966  10.7288771
  81.6324615  57.8148537  58.6346550  81.4465942  57.1483574  59.2960701
  81.8609085  58.5956535  59.1390305  59.6792107  18.2702904  29.1199074
  59.1897964  17.4575844  28.9925632  59.2803650  18.8885174  28.5075779
  19.0147629  35.9778786  80.8875885  19.0243340  36.3129654  81.7841644
  18.7779961  35.0549698  80.9793396  87.0309372  43.9269371   2.2230959
  86.3280411  44.0504646   1.5852031  86.6128998  44.0737801   3.0715730
  48.4810410   3.0468264  74.1727295  48.5449448   3.9942577  74.2932434
  48.7222595   2.6803653  75.0234680   0.8066139  40.7926598  51.4228630
  -0.0029658  41.2482300  51.6536674   1.2949446  40.7409592  52.2445030
   3.1539285  46.3610268  75.0252533   2.5852406  47.1231880  74.9159927
   3.9203758  46.6985588  75.4887848  24.1577759  40.7032242  63.3855133
  23.6934509  40.2450943  64.0860519  24.6977596  40.0280724  62.9746323
  84.6757812  70.3804779  46.3992195  84.8297043  69.4471130  46.2530212
  83.8583145  70.5638123  45.9362144  36.1882133  19.2420044  88.4360275
  36.8932457  19.8817654  88.5353699  36.0607986  19.1709671  87.4900055
  51.2986298   8.6287651  72.3993759  52.2365723   8.8191433  72.4152603
  50.9134979   9.3619919  71.9194946  25.0436630  48.0165176   1.2170875
  25.1574249  47.1409073   1.5866772  25.6885071  48.5555077   1.6752344
  37.7467728  41.4482384  61.7359848  38.0364227  40.6817818  62.2308350
  36.7948494  41.4523582  61.8362617  72.1218872  23.5442410   7.7288876
  71.8736725  23.7601414   8.6277809  71.3001404  23.5768948   7.2390871
  83.8062973  37.9607620   3.7622299  83.2058411  37.3471260   3.3389845
  84.2950974  38.3545227   3.0395565  69.0998001  10.4106760   0.2934489
  69.1998978   9.6698170   0.8912288  68.2183914  10.3108158  -0.0662443
  35.0216026  44.5950127  67.1797867  35.7178421  45.1750412  66.8714828
  35.4574661  44.0017738  67.7916107  34.7530327  15.7635260  80.4152908
  33.8638077  15.7491312  80.0613022  34.9212036  16.6869621  80.6029510
  70.7994843  27.8697643  11.0932579  71.1775894  28.6176872  10.6307850
  70.2832947  27.4133453  10.4288330   2.4419637   8.9229326  85.5583725
   3.1818986   8.3730650  85.8160019   2.1509635   9.3304882  86.3741226
  57.6095085  47.1333694  46.0491638  58.5648842  47.1905441  46.0341721
  57.3157883  47.9042130  45.5636101  60.0054665  44.1507568  32.5891533
  59.7763596  44.8996391  33.1395302  60.0037498  43.4040031  33.1879768
  82.4783936  56.1295052  65.7264862  82.8789673  56.4043961  66.5512314
  82.1736374  55.2376709  65.8937836  54.5362244  11.6115351  56.4991989
  54.5569496  10.6557121  56.5461464  55.4288559  11.8813562  56.7151451
  69.9529114  12.3059816  30.1012917  69.4732590  12.3425341  29.2737503
  69.2867584  12.4597263  30.7712364  51.3518639  51.3449669  37.2918663
  51.5094872  52.2888832  37.3120461  52.2199326  50.9549294  37.3946228
  55.5574265  40.3106766   6.0388999  55.5965843  39.6104736   6.6903682
  56.2058334  40.0615959   5.3802977  40.6612778  15.2895422  83.6901169
  41.5868988  15.3759623  83.9181213  40.3260727  16.1859951  83.7056503
  41.6248398  50.3217659  76.0253067  41.7551308  51.0304108  75.3951645
  42.4557991  49.8466492  76.0266342  27.3235588   1.0237736   6.9282990
  27.2449036   0.4279605   7.6733170  26.5765800   0.8087173   6.3697243
  86.4566269  37.9472313   8.4516459  86.1478119  37.1015778   8.1264820
  85.8587189  38.1613045   9.1678219  20.4912796  31.2343388  60.0904198
  19.7085819  31.7810230  60.0214844  20.4959984  30.7199402  59.2832031
  16.7990437  12.2634478  88.8221207  16.5368118  13.1704626  88.9795685
  17.6763859  12.1988459  89.1993866  24.7343102  45.2681084  55.8152504
  24.3260555  45.5308914  54.9903221  24.3621426  45.8625259  56.4667053
  73.8429184  57.5253334  37.2898178  73.9631424  58.3359489  36.7951622
  73.9038086  57.7930450  38.2067986  79.6586227  63.8233414  39.2919769
  80.4874039  63.5475235  38.9004631  78.9904556  63.5175667  38.6785583
  32.1267586  71.5016556  80.7597275  32.3384514  70.6394501  81.1175232
  31.1946487  71.4508438  80.5480118  10.0768318  10.0668449  31.3927517
   9.8069983  10.8689461  30.9454746  10.5727110   9.5805435  30.7340813
  62.4167519  27.3819790  36.3691902  62.7249756  26.5110760  36.1186752
  63.1305771  27.7475510  36.8917236  83.6828232  61.3551712  77.4533844
  84.4939346  61.6877022  77.0690002  83.8944702  61.2166328  78.3765564
   4.3291130  40.4076004  77.9799728   4.6023197  40.5620880  78.8842545
   4.1171045  41.2776375  77.6418610  76.7458878  60.2806244  23.7575626
  77.1095963  61.0752678  23.3670692  77.1450882  60.2363625  24.6264191
  41.1592560  56.5559921  82.8236237  40.2924385  56.1680984  82.9436417
  41.1079674  56.9996872  81.9770203  41.0798454  27.3737335  16.2008209
  40.8011742  28.2806473  16.3276291  41.2172737  27.0392475  17.0870857
  73.6642532  64.2421036  41.0025597  73.8948212  65.1337280  40.7416382
  73.7347565  63.7308388  40.1964149  55.7753296  54.3298378  66.0286942
  55.5750732  54.1953583  66.9550018  55.5627708  53.4937935  65.6138687
  72.4736404  12.0382919  46.1688499  72.6969452  11.1348076  45.9450493
  72.9937973  12.5698643  45.5662727   3.6991580  46.2541122  82.5160904
   3.9088056  45.3202133  82.5267029   2.8674181  46.3075371  82.0453644
  34.2173653  50.4290695  50.5725250  34.5317764  49.5249863  50.5766716
  34.8899841  50.9143753  50.0947227  44.6836700  53.9195366  17.1004601
  44.2498360  53.1131668  16.8215580  44.2938499  54.6023827  16.5545731
  57.7612228  31.2428818  80.4906540  57.3019333  31.0929565  81.3169708
  58.6781616  31.3521404  80.7426834  44.1499214  19.4524441  81.9082489
  44.9716339  19.8321285  82.2194672  44.2977142  18.5070934  81.9346848
  14.6138048   5.7423859  25.2296257  14.5757704   6.3167372  24.4648342
  15.1902952   6.1981182  25.8429775   0.9034082  30.1560020  21.0258198
   0.7126101  29.2318516  21.1863689   1.8506432  30.2288284  21.1427555
  35.5605812  57.3631783  35.4376335  36.3738670  57.1774178  35.9069862
  35.0206947  56.5851021  35.5767365   9.0708590  54.3653755  68.8573227
   9.4835892  54.4556656  67.9984055   8.7413692  53.4667816  68.8714447
   1.3208529  33.3412247  15.6115589   1.9049581  32.6167259  15.8355093
   0.9652638  33.6307068  16.4517899  17.9261227  62.2000771  65.8179321
  17.4695892  61.3831635  65.6167908  17.6287022  62.8125839  65.1451645
  54.1699448  50.2309914  54.6179924  54.3135147  50.6852722  55.4482040
  54.7724342  50.6539993  54.0061874  85.8935852  53.8099937   3.2214243
  86.1401978  53.6120529   4.1248813  85.4216995  53.0313988   2.9258869
  21.9242172  19.3055172  75.3501968  21.1687012  19.0074139  74.8436813
  21.8213005  20.2560196  75.3969269  25.0826836  11.9532909  87.5564117
  25.1080379  11.3089790  88.2638397  25.9967804  12.2086906  87.4321899
  74.6791840  51.5433083  29.1555138  75.4198074  50.9466248  29.2636318
  73.9896698  51.1713333  29.7054539  12.0879173   0.6987179  82.8086243
  12.9634523   0.7179977  83.1950150  12.1016407  -0.0574732  82.2219162
  45.1561623  54.7773628  84.6012497  45.6709404  55.5840225  84.5780411
  44.5813789  54.8380051  83.8382416  52.1635895  58.6721954  74.5292282
  51.2727051  58.3227692  74.5506210  52.3001785  58.9241371  73.6159363
  37.2069092   2.2260022  66.8918152  36.2545433   2.2865083  66.9664612
  37.4152374   2.7053564  66.0899124   6.6991401  55.9490776  78.2438126
   6.9397120  56.8361588  78.5111084   5.8007951  56.0307503  77.9235992
  18.2799969  69.5520859  21.1876431  18.5016747  69.8694077  20.3122025
  19.1034927  69.2075500  21.5331612  46.5636864  30.6620102  55.7267113
  46.0056839  31.4231300  55.5668297  46.9722443  30.4824448  54.8799095
  83.4888916  16.0805511  76.8433838  84.3870316  15.9526272  77.1487045
  82.9479752  15.6411676  77.4995651  40.6048279  65.4982376   0.4830426
  40.4760742  64.9194717   1.2345022  41.0144577  64.9424362  -0.1799230
  66.4021454  65.0148163  66.3491364  66.1771240  64.9220810  67.2748795
  66.3532715  65.9563904  66.1839294   4.6542034  12.5463772  55.9672775
   4.7662005  12.0632248  55.1485901   3.7130113  12.5128412  56.1383476
  15.2753391  39.9383774  20.1114731  14.8658628  40.6150322  19.5723057
  16.1933117  39.9389648  19.8402596  66.3050919  52.8458710  57.7231903
  66.9564285  52.1693726  57.5378723  65.5833893  52.6539307  57.1244125
  30.0923252  12.7299519  78.4105835  29.9243546  12.8123512  79.3493195
  30.8372860  12.1317425  78.3521652   2.4386237  51.1142311  16.5880795
   2.8925998  51.7173958  15.9995794   2.7640014  50.2485046  16.3413467
  63.6213036  17.2335529  24.2686691  63.8706703  18.1308689  24.0475922
  62.8687248  17.0487671  23.7067909  23.8651104  58.5255356  87.5103073
  23.6774349  57.6121635  87.7265549  24.7825928  58.5234184  87.2374420
   7.5811820  33.9346619  76.7271652   7.5982046  34.8408966  76.4194565
   7.0657310  33.4679947  76.0693130  84.5737762  24.5606709  38.0047951
  84.9834137  23.7641392  37.6672058  83.6792755  24.5323887  37.6652374
  51.7369919  36.1699600  46.4773102  52.4519691  36.1055946  47.1104736
  51.4959450  35.2617073  46.2950859  29.3171787  51.3482170  25.3578300
  29.9947586  51.9109573  25.7325840  29.7950039  50.5912933  25.0187378
   6.1799645  20.8752174  83.3783188   5.3408265  20.4584408  83.5742188
   5.9913983  21.8134861  83.3964691  66.7297287  38.8105507  17.8905106
  66.4542389  37.9089890  17.7246132  66.1082687  39.1348000  18.5423374
   7.4398904  37.6095657  84.2867661   8.0312614  36.8580780  84.3289337
   6.6817803  37.3473663  84.8090210  35.6098061  15.0492334   0.9489218
  35.1918068  15.9069128   0.8721394  36.5439987  15.2275248   0.8406459
  42.3292313  43.9714012  33.4258537  41.4114685  44.2259064  33.3300972
  42.4257812  43.7688637  34.3563881  66.2382278  68.3119659  17.9501495
  66.9336624  68.8272858  17.5414295  66.1609879  67.5336533  17.3983364
  76.9369431   3.4656565  59.0841370  76.0833817   3.1423893  59.3725281
  76.8621597   3.5225079  58.1315575  72.7407150  64.5137177  16.9225502
  72.6891327  63.5627861  17.0189552  72.7700119  64.6573257  15.9766369
  19.4412346  26.3943386  64.6355286  18.7224674  25.8870602  65.0127258
  20.2231255  25.8724251  64.8157578   2.8561029  51.1629257  69.7048569
   3.6219001  51.7101250  69.5306244   2.5953953  50.8347931  68.8442841
  62.8957176  16.5218754  70.5395737  63.7373466  16.9420738  70.7165604
  62.9962616  16.1426258  69.6664810  66.9840927   0.9872901   6.9439740
  66.1751938   0.8878178   6.4419680  67.4933014   1.6317650   6.4524531
  60.6053848  64.5552292  65.1008835  60.3765411  65.4193268  64.7585373
  61.3872871  64.3024979  64.6099854  11.9626150  43.1561279  23.2479649
  12.5761576  42.4241142  23.3108349  12.4884872  43.8810654  22.9100971
  35.5017738  39.1881905  23.3662262  34.5891304  39.0487404  23.1134949
  35.7991257  38.3313904  23.6723385  71.4698410  13.2404947  41.4869804
  72.2270203  13.7020254  41.8473930  71.7818527  12.8800402  40.6569519
  36.2113724  70.8913498  15.5859938  36.3285522  71.8350754  15.6950111
  35.2642593  70.7606812  15.6321859  22.2736683  39.2906075  45.6808701
  21.9973431  38.8641090  46.4920273  22.3156338  38.5812492  45.0395584
  64.9934158  64.2391586  12.1260395  65.7058411  63.7918282  12.5827379
  64.6290894  63.5745544  11.5414057  43.1010818  34.7910194  47.0629539
  44.0162392  34.5568161  46.9084702  42.9883461  35.6273727  46.6112518
  80.7487488  71.0454025  60.8436852  80.3490295  71.8969650  60.6668205
  80.1258011  70.4103622  60.4902763  28.4647865  32.4678535  82.2941360
  28.7976437  31.5769157  82.1860962  28.7459736  32.7237015  83.1726074
  25.7606144   2.8552585   4.0848122  25.6034355   2.2307673   4.7930050
  26.5004845   2.4878089   3.6012757  58.7885857  60.4685783  27.2185841
  57.9678154  60.0140114  27.0290222  58.9619789  60.9874077  26.4331017
  52.9362869  21.1588440  55.4574432  53.6731186  21.4141102  56.0125542
  52.8404083  21.8829002  54.8387489  46.0276794  16.0872345  78.8852844
  45.5042381  16.3329716  78.1224823  45.4095306  16.1054821  79.6158905
  49.3538742  70.4799805  73.2431717  48.4647865  70.8201294  73.1429138
  49.9192429  71.2062912  72.9803696  72.5122452  22.8935757  76.7267685
  73.4489670  23.0700703  76.6393890  72.4642944  21.9684982  76.9679413
  42.1136780  63.4453850  72.3380508  41.4661102  64.1008682  72.0787659
  42.8784103  63.6362915  71.7949448  59.7095718  61.5717239  52.3722725
  59.0248375  60.9372597  52.5839920  59.2497444  62.2777748  51.9180946
   8.1597080  20.2590618  30.6376724   7.9038663  20.0667725  31.5397835
   7.3552866  20.1461372  30.1313267  86.4978867  58.3328362  72.9621124
  85.9168472  59.0794716  73.1075668  86.1810989  57.9374657  72.1499786
  35.4891281  60.9175034  19.6060696  36.0792389  61.6239433  19.8686504
  35.9827156  60.1160278  19.7799625   3.5124469  16.0993671   8.1052351
   4.2121468  16.7336731   8.2611418   2.7129717  16.6252747   8.0830708
  75.4295349  35.0981178  76.0964661  75.0275497  35.9507751  75.9302902
  76.2799835  35.1450615  75.6596909   6.1303973  60.4761391  49.8651695
   6.1606212  59.5694199  49.5599251   5.1966081  60.6786919  49.9221039
  49.0429802  44.2631073  82.6416168  49.4442787  44.6874428  81.8832397
  49.6486893  44.4374580  83.3619919   2.5831237  23.6619453  12.2969332
   1.7563913  23.1885834  12.2037907   2.3230894  24.5705452  12.4487858
   9.8545351  18.3279819  67.0429459   9.3349590  18.2181454  67.8393173
  10.4533186  17.5811958  67.0427322  77.5485992  65.6041718  40.7694244
  76.6875229  65.8481827  40.4299660  77.8371658  64.8908691  40.2000656
  71.0009384  48.0070152  33.2970352  71.8099060  47.8171120  33.7721672
  70.5056000  47.1886444  33.3307915  64.7911911  17.7878666  78.5206451
  65.5492477  18.3690166  78.5826340  64.9807816  17.0803394  79.1368332
  37.9620361  22.3125362  78.9866257  37.8786545  21.4142132  79.3064575
  38.7144699  22.6666660  79.4606094  36.9018517  45.6015854  29.6854668
  37.6693840  45.0862846  29.9336395  36.1688232  45.1623535  30.1167183
  31.4636822   6.6073022  72.8089676  31.2099934   6.8954802  71.9321442
  30.6335506   6.4582973  73.2616425  68.2836838  50.4080772   4.0974550
  69.1856384  50.6369438   3.8731155  67.7494812  50.9017334   3.4752347
  39.3824806   7.8602948  12.8298397  38.7685051   7.6378746  13.5296917
  38.8490944   8.3173170  12.1795626   3.9611619  16.7987995  55.3381653
   3.8422890  17.7484322  55.3208961   4.8204312  16.6577129  54.9406967
  57.0740280  33.1413193   4.0766702  56.6117439  32.6595688   3.3907833
  56.3896141  33.6422615   4.5203667  14.4816294  21.8001308  60.4335976
  13.9982834  22.2701683  61.1130638  13.8081713  21.5074806  59.8195610
  28.8713989  71.3157272  67.9801788  27.9641972  71.1092300  67.7552872
  29.1216259  72.0012512  67.3607635   6.2707949   4.7390575  16.7640591
   6.1179023   5.5987539  17.1562042   5.6369214   4.1640754  17.1928158
   1.0977126   8.8511200  88.2445755   1.4187971   9.2125864  89.0707016
   1.1806868   7.9033155  88.3495255  73.5613861  65.4012527  78.3646927
  73.8094788  65.4029770  79.2891846  74.0689850  66.1153488  77.9791565
  64.8704910  61.7046814  47.1289444  65.1040726  62.5427933  46.7298965
  63.9149361  61.6748009  47.0813713  37.2818184  37.3235435  37.5639877
  36.5593681  37.0623055  38.1350021  37.7531548  36.5095711  37.3864441
  10.3024378  69.3338699   2.8594668   9.9021759  70.2019043   2.8090549
  10.7601910  69.2323685   2.0249665  55.0972672  67.5495529  52.6682053
  54.5534363  66.7667236  52.5806656  54.7264404  68.1701813  52.0408783
  58.8236084  50.7400475  16.9886284  58.5586853  51.5270157  17.4647827
  59.7191620  50.9223747  16.7040710  26.5020828  61.2553482  10.3399343
  26.8390408  60.4925423   9.8700199  26.8884144  62.0052338   9.8875551
   8.4876537  19.0532894  64.3388138   9.4155655  19.2795658  64.2754898
   8.0346699  19.7762089  63.9047394  42.7496872  70.9506073   1.2905328
  42.5354004  70.6649780   2.1786356  43.7042122  70.8954697   1.2449679
  45.3533974  42.3747406  64.0658569  45.1244621  41.6163177  63.5286293
  44.6627007  42.4170532  64.7272034  43.2808609  57.6191711  14.3965206
  43.1130600  57.5320168  13.4581823  43.6064262  58.5133858  14.4995699
  62.3688583  13.6335068  14.5510130  62.5260086  14.3354740  15.1825018
  62.6569443  12.8386517  14.9998398   9.3875418   9.4836245  79.5175400
   9.9411535  10.2472181  79.6808472   8.6545372   9.5849609  80.1247177
   5.9851022  38.7148552  20.4817848   6.9298239  38.5816422  20.4044113
   5.8537264  38.9745102  21.3936806   6.8125691   2.7775302  46.4919930
   7.1059990   1.8768523  46.3544769   6.9169693   2.9225099  47.4323730
  26.6068726   6.4406843  66.3693161  26.3715420   5.7891297  65.7087631
  27.0607777   5.9407840  67.0477676   6.6882524   5.5973516  73.2983780
   7.1676040   4.8974767  72.8549500   6.3621011   5.1923652  74.1020279
  38.4080086   7.5086799  77.2652206  39.0794983   8.1569290  77.0528336
  37.9680443   7.3379064  76.4324570  76.8241730  54.8823242  83.8894730
  76.8311844  53.9412193  84.0641251  76.1078262  55.0049896  83.2665482
  47.1619492  42.8113365  33.9625168  46.6427269  43.5622787  33.6748848
  47.6906052  43.1485710  34.6857185  84.6853485  24.1767044  63.9801445
  84.1620178  24.2769432  63.1849632  84.1914673  23.5553741  64.5151749
  70.9558029  21.7015629  44.1282768  71.5442734  22.4167099  44.3701439
  71.1307678  21.0181885  44.7752838   3.1628828   1.5080489   7.7512484
   3.9813719   1.0274569   7.6273985   3.3699541   2.4051900   7.4895396
  70.6039810  70.0856781  42.9202156  70.5870972  70.5857697  42.1042175
  71.2573776  70.5303650  43.4601822  20.8001747  68.2940140  48.5789680
  21.1888924  68.1926346  49.4477921  20.0289879  67.7271957  48.5939903
  40.7877998   4.5201526   5.4973006  41.1081581   3.7626417   5.9869742
  40.1512947   4.9315619   6.0819674  67.8982849  12.5301027  70.8857269
  68.2747192  13.1247826  71.5344849  68.6369553  11.9963112  70.5930405
  33.0961761  58.3558655  81.0650177  33.4863853  57.9834709  80.2742615
  32.1922913  58.0409584  81.0572052  80.2241516  14.3223677  24.3349342
  80.1101685  13.5024137  24.8154716  80.7394943  14.0795326  23.5657234
  85.8597946  67.6027222  61.0638809  86.4114380  67.4704742  60.2928886
  85.0787430  67.0765305  60.8926582  58.0217705  40.5406990  34.9565735
  58.8578529  40.1832848  35.2556572  58.1515732  40.7040634  34.0223923
  17.8651409  12.8293800  20.2177792  17.8824883  12.8641043  21.1741924
  17.7819805  13.7435265  19.9463902  54.4544678  16.4808292  25.8149548
  53.6202469  16.1689548  25.4641838  55.0590286  16.4316540  25.0744686
  85.6770630  71.1488953  35.6227760  84.7430725  71.3515167  35.5694618
  86.1135712  71.9673462  35.3864670  33.4333572  62.6419983   4.6791172
  32.6847267  62.4821968   5.2537875  33.4713287  63.5946999   4.5945625
  49.8224754  60.3867531  18.3439236  49.9004250  60.8286934  17.4984379
  49.0778694  60.8124008  18.7689190  37.8561440  37.7525787  15.2627850
  37.5154419  36.9018860  14.9862366  37.2642288  38.0321045  15.9611645
  62.0212364  38.4322472  55.5802498  61.5596352  37.6810417  55.2076302
  62.1573906  38.1983528  56.4983902  29.1878700  62.5404472  54.6539192
  30.0795536  62.3353157  54.3727570  28.9372864  61.8041191  55.2118263
   4.6613021  15.1603441  80.0938263   5.0216022  14.2915297  80.2715225
   5.4283781  15.7085142  79.9284897  13.0473776  46.9299278  46.8033257
  12.9718237  46.1570625  47.3629723  13.9371815  47.2488480  46.9542236
  85.5536499  29.6410007  88.0329437  86.2583466  29.2383118  88.5403595
  84.8027191  29.0622272  88.1646957  72.1857910   3.0729535  87.5802231
  72.6474380   3.8943400  87.7488708  71.2648010   3.2785130  87.7407074
  49.9900093  56.6535416  10.7594070  50.7475739  56.3087234  11.2320919
  49.2349014  56.3510666  11.2639341  52.0907364   7.3475451  27.0862465
  52.1195221   7.8132610  27.9220161  52.3085022   8.0130301  26.4336071
  83.6260605   0.7688065  32.7939873  84.1483841   1.5709333  32.7933998
  84.1831055   0.1199398  32.3639870  68.6554184  62.8916054  53.4965744
  68.7990646  61.9609146  53.3250694  69.5259018  63.2843208  53.4313240
  17.2430229  59.4641685  85.2994766  17.9074001  59.9872169  85.7480927
  16.9846764  59.9982643  84.5483246  58.5203705  30.7121315   4.9647703
  58.4204330  31.6406479   4.7547626  57.6272316  30.3678780   4.9593992
  73.1554718  29.5768051  41.4917374  72.9903030  30.4233894  41.9067650
  72.2858353  29.1954899  41.3710747  50.9228096   9.5095558  84.0990906
  50.0543976   9.3278284  84.4583435  51.4902306   9.5776167  84.8669662
  10.4467907   8.3155384   9.5627775  10.2387676   8.8253460  10.3457556
  11.1276169   8.8227034   9.1206322  14.9743261  57.1256752  76.0278244
  14.5277567  57.4412727  75.2422028  15.0760860  57.9046364  76.5747299
  12.8282318  57.8599358  79.2632217  11.8903475  57.6877708  79.3466721
  13.2460690  57.1554909  79.7585983  18.6408806  42.8222809  27.3898907
  19.3607178  42.6105766  27.9842396  18.4876938  42.0133896  26.9015656
  80.5533524   9.9630108  10.4695940  81.1345825   9.7643223  11.2037134
  79.9069824  10.5683613  10.8328924  67.9426880  63.1815338  12.3870344
  67.7622833  62.6176949  11.6348553  68.1743469  64.0269470  12.0025387
  59.1215591  23.9456062  63.8819885  59.5904770  24.7519798  64.0967178
  58.2130928  24.2217999  63.7609901  83.5768890  57.1743813  72.2888336
  83.9986038  57.7970123  71.6966171  83.2452545  56.4843330  71.7143097
  63.7527084   9.7034292  33.9090958  63.2905312  10.5288048  33.7628746
  63.2663879   9.2785110  34.6156158  35.2213593  15.3781033  13.8228865
  35.8739166  16.0377846  13.5878954  35.1255341  15.4632597  14.7714634
  29.9044552  59.4403534  49.0443420  30.7235909  59.9287529  48.9623871
  30.1560326  58.5265465  48.9105530  81.0174103   2.7415252  30.4512005
  80.1802216   2.3171859  30.2633572  81.1820526   2.5484142  31.3741474
  67.6020584  21.2865181  75.9699860  67.5961075  21.1455784  75.0232391
  66.6847153  21.2032356  76.2303085  74.7314911  23.2933197  39.4643784
  73.9731827  23.4783859  40.0184097  74.4346313  22.5989323  38.8762169
  74.5173340   0.3035102  73.2461014  74.3572617   1.2008317  72.9538269
  74.9703751   0.4016117  74.0835724  64.7663422   1.1413934  65.6562729
  65.5084381   1.4194207  65.1194000  65.1007462   1.1558951  66.5530396
  25.6635857   8.6037960  60.2089272  24.8956642   9.0360403  59.8351669
  25.5556049   7.6813278  59.9773598  76.5944519  71.2099533  76.2688370
  75.7501831  70.7676392  76.1804886  77.1203766  70.6171799  76.8057251
  83.7908020  41.1822548  65.4721146  84.7428360  41.0875778  65.5019684
  83.5656128  41.0490570  64.5513687  20.2395592  56.9218216  33.7156487
  19.6439877  56.3344841  34.1810074  19.9024830  57.7988472  33.8985138
   9.5657625  57.0815468  76.3826599   8.7557735  57.3120842  75.9276886
  10.2003002  56.9329224  75.6815872  47.0621758  45.5401955  47.6403580
  47.1224060  46.2984962  47.0593414  46.3170052  45.0409508  47.3061256
  74.4358673  66.8151627  25.0614643  73.7892685  66.3295364  24.5493011
  75.2715607  66.6232758  24.6359997  72.7969360  62.5641670  13.5826654
  73.0251007  63.1297722  12.8449240  72.0938797  62.0069618  13.2487955
  34.6721573  41.7605591  78.2098770  34.1442528  41.0607300  78.5942993
  35.5767326  41.4706726  78.3279724   0.7662533  24.1619377  72.2703247
   1.0542663  23.9526482  73.1588516   0.3699260  23.3516941  71.9499130
  57.9304504   8.9964695  50.3670921  58.3636017   8.7555199  51.1859665
  57.8599815   8.1740646  49.8824081  45.8767700  46.6176033   3.4079392
  45.2586403  47.1802711   3.8743672  46.5695953  46.4431992   4.0449681
  50.9244576   6.5566158  20.1561680  50.8560715   6.0789638  20.9828510
  50.0229454   6.6196141  19.8406677   8.4940310  44.4522934  26.3263912
   8.5131121  45.3787842  26.0866241   8.2523155  44.4495087  27.2525654
  66.4404526  60.8750992   6.2957554  66.6350861  61.8106689   6.3510118
  65.4864044  60.8323555   6.2309728   5.2977428   2.8961718  55.9634399
   6.0907655   2.6523857  56.4408417   5.6182308   3.3203952  55.1674767
   8.1756372  68.2209473  16.6982861   7.4640331  67.7426529  17.1238289
   8.5595455  68.7507324  17.3969784  64.0261536  11.5508099  80.2681427
  64.3372879  11.4126358  81.1627579  63.3010979  10.9338465  80.1687469
  52.8908577  15.9548588  15.2803373  52.6419106  16.1071548  16.1919651
  52.4034920  15.1710358  15.0267096  56.6213722  48.1498604  37.7801361
  57.2065849  48.0951729  37.0246429  57.1947823  48.3804398  38.5110741
  24.3469505  42.9236221  79.7481003  24.0138035  43.6377525  79.2047195
  25.2972412  42.9641953  79.6407166  16.9637775   1.8895596  27.9084854
  17.4098110   1.8943713  27.0615730  16.1006031   2.2611995  27.7266998
  32.7341003  40.9832306  28.7927246  32.4702721  41.0127144  27.8730736
  31.9724350  41.3108444  29.2710228  40.6646271  47.2198601  31.8865280
  40.9516907  46.6514473  31.1718712  40.0766487  47.8499489  31.4699974
   3.6043541  46.2783089  63.2357674   4.0981174  45.4679947  63.1099777
   2.7620618  45.9930191  63.5898628  81.9494476  28.8002224  18.5295753
  82.3302307  27.9751034  18.8302631  81.0413361  28.5824337  18.3195095
  58.3384895  65.7151566  87.9767609  58.5092430  66.5671768  87.5753555
  58.9809341  65.1289520  87.5769196  26.1864185   8.7505054  64.8636703
  26.2186680   9.4151335  65.5517578  26.5447598   7.9634209  65.2739410
  58.7918663  26.0020294  49.7664757  59.4071655  25.6804905  50.4254532
  59.3474121  26.3152542  49.0526848  78.2148514  28.5560303   8.6544590
  78.0270386  28.7046108   7.7277007  79.1705093  28.5356655   8.7048998
  83.9505997  43.9497147  14.3108196  83.9874496  44.4077415  13.4711256
  83.2722626  43.2849960  14.1914997  60.6326447  55.7866592  14.7552757
  60.6426315  56.5478401  14.1749849  59.7749176  55.3869247  14.6112461
  59.4371872   5.6248012  66.1427383  59.9702187   4.8415561  66.2792587
  60.0301018   6.3532038  66.3274307  45.6832352  29.6987591   5.5713124
  45.0658722  29.4481773   6.2585559  45.2496071  30.4166241   5.1099319
  43.3586311  45.2215042  65.1487122  43.0295563  46.1031265  65.3238754
  42.5914955  44.6566315  65.2417374  29.2423363  66.3709488   7.4734015
  29.9805641  66.1229706   6.9168406  28.6425610  65.6267776   7.4213467
  11.3255825  65.7957687  44.2558708  10.9284849  66.5519257  44.6880379
  10.8017168  65.6696243  43.4647408  58.0235786  68.2589188  86.2274475
  57.2043686  68.1008911  85.7582474  57.8237495  68.9826050  86.8212280
  30.9423580  41.5055237  39.3014488  30.5867462  41.0331383  38.5487061
  31.8780270  41.5833244  39.1151619  20.8207226  36.6224403   2.2756386
  21.6149197  37.1563110   2.2972400  21.0979462  35.7966576   1.8788244
  66.3135071  44.8737640  15.3989563  66.5799332  45.1436729  16.2778168
  65.3927612  45.1284485  15.3390055  78.0464096  17.0944843  75.3816147
  78.6983185  17.4654484  74.7869492  77.9805298  17.7319756  76.0925980
  27.5809612  45.0967827  18.5677376  28.0045929  45.2647743  17.7259865
  26.7171650  44.7548599  18.3371334  29.4048252   6.4417820  29.4760857
  28.8109455   6.7806401  30.1459465  29.3970661   7.1087551  28.7895584
  63.5358353  35.8228073  14.5358067  63.5442619  36.7694664  14.3944044
  63.3073692  35.7206650  15.4597120  71.8961792  50.2332306  74.2370987
  71.3491135  50.2502098  75.0223846  71.7322159  49.3735008  73.8495255
   1.4832245  52.4769936  10.5206623   1.4503332  52.7798233   9.6132240
   0.6285990  52.7113533  10.8824949  75.1740723  40.9150162  47.0257607
  76.1214600  40.8232765  46.9243774  74.8503952  40.0156212  47.0762749
  59.7790756  11.8639441  39.2865944  60.4988136  12.1906109  38.7466888
  59.5295982  11.0353909  38.8773384  12.0973349  31.9936104  72.6760635
  12.3051882  32.5635910  71.9356918  11.6255217  32.5584450  73.2881012
  85.7625122  31.1000633  31.7314358  86.5110245  30.8469162  31.1911736
  85.1896439  31.5830364  31.1357956  14.3567924  14.5443964   5.9148617
  15.0107794  15.2222538   5.7444448  14.2129297  14.5826960   6.8604140
  10.6885948  68.8829575   5.4022570  10.9128590  69.0322495   4.4837532
  10.4403028  69.7467270   5.7316318  35.0423927  21.9269009  82.0343170
  35.3716125  22.5980740  82.6321182  35.4403839  21.1135960  82.3447495
  84.9358521  56.2676888  85.4320755  84.1537933  56.1701965  84.8888397
  85.6642685  56.2300339  84.8122101  33.8742676  50.0638275  10.9545183
  33.6443825  50.9630890  10.7205963  33.4212646  49.5244751  10.3063526
  35.3900948  65.3123779  56.5679588  35.5085793  65.0740509  57.4874115
  35.9205284  66.1010742  56.4546928  68.0055466  29.3374825  40.4635696
  67.6319351  29.8493519  39.7461853  68.7177200  28.8422375  40.0588837
  49.9045677  55.4293823  32.4190712  49.6409569  56.3313370  32.2368050
  49.0821266  54.9680061  32.5832596  47.0526123  54.6530037  30.0870552
  46.7493706  55.4589424  30.5050697  46.9369621  53.9781075  30.7559147
  43.2021370  36.7123451   2.6763799  43.3223000  37.6590881   2.6024065
  42.4639397  36.6108284   3.2772052  76.2056274  35.6341248   9.2256041
  75.5267181  34.9997749   9.4556322  76.0496902  35.8272018   8.3011398
  34.2500114  52.6549797   9.5120029  34.5998535  52.6287193   8.6214123
  34.0240288  53.5742874   9.6535511  37.6316299  41.3438377  35.4265938
  37.9956932  42.1152878  34.9923630  36.7641678  41.6216393  35.7208176
  56.7163887  26.5614700  18.8210621  55.9608536  26.0479527  19.1068859
  57.1785011  25.9878101  18.2098351  46.3608665  45.2712326  21.7489185
  46.4222832  45.1858444  22.7003231  45.5148849  45.6937370  21.6004772
  68.8453217   7.0130997  47.6260109  68.8940811   7.0409675  48.5815620
  68.1327438   6.4015660  47.4402771  72.0843048  34.8461075  30.5960312
  72.6938477  34.1117592  30.6696796  72.3628311  35.3103180  29.8066235
  62.9554939   6.7172966  11.1225662  63.6794815   6.4430265  10.5596733
  63.3671074   6.9115257  11.9646349  41.5486145  45.2282066  21.8361835
  40.8820953  45.4009514  21.1712475  41.0566177  44.9003258  22.5889568
  28.7939091  53.1702652  18.6481724  29.1841564  53.9056053  18.1757183
  29.1125603  53.2660294  19.5456810   8.5539684  40.9613914  62.4746819
   8.8870564  40.5075378  61.7005348   8.4100504  41.8611259  62.1814270
  48.2917938  28.7919598  16.1209145  47.4186020  29.1436882  15.9475412
  48.4940987  29.0809898  17.0107269  11.9169626  37.4024544  58.9362679
  11.7599249  38.2717628  58.5676613  11.0539713  36.9885750  58.9498215
  62.9042625  41.6926422  82.4778595  63.3769875  41.4524078  83.2747650
  63.3319550  41.1896400  81.7848282   1.3685727   9.1307335  81.5297928
   1.1153558   8.3403997  82.0067444   1.1941273   9.8459215  82.1416016
  40.9039574  60.8872910  45.1359138  41.5768318  61.1116066  45.7786865
  41.3679695  60.3784599  44.4710693  39.6612396  68.4633942  23.4797344
  38.7139435  68.4248505  23.6115551  39.7963905  69.2418442  22.9393806
  80.5580521  54.0444298  14.1929684  80.0567093  54.4925346  13.5117273
  80.3948212  54.5554085  14.9857407  74.3608017  64.6150818  74.4162750
  74.6391602  63.7226105  74.2107315  74.9518967  65.1728058  73.9105301
  63.2388458  40.6801338   3.7005475  62.3669548  40.8616447   3.3496971
  63.7763290  40.5055504   2.9279790  70.4982681  50.7822914  24.9059734
  70.9647675  51.4373856  25.4250736  70.5829086  49.9728241  25.4097900
  37.3374748   2.6359320  80.6895294  37.4682083   3.5529630  80.9307632
  37.4858093   2.1511898  81.5014725  42.4673309  49.2813683  20.3582726
  42.7678947  50.1885490  20.4122391  42.6816826  49.0107422  19.4654999
  15.4135265   9.7758055  88.6567688  15.8010416  10.6448641  88.7606964
  15.7913637   9.4407701  87.8436127  28.9814777   6.5357809   4.4915504
  28.5880108   6.9888554   5.2372975  29.5761852   5.8976092   4.8856201
  59.0480156  25.3585510  41.3057213  58.4185829  24.7083359  41.6175995
  59.3671074  25.0041580  40.4757690  17.0452328  63.6026993  75.2062073
  18.0004330  63.5617752  75.2525711  16.8631916  64.4090424  74.7236099
  73.3848419  59.5991478  43.1759453  74.2709503  59.8223000  42.8909149
  73.3982315  58.6473618  43.2767334  67.2009659  30.0951424  77.3027954
  66.9283981  29.4899406  77.9924850  67.9570389  29.6709881  76.8969955
   1.2413307  40.5229988  36.8991394   0.4582579  40.3584175  36.3738365
   1.3105643  41.4770737  36.9334488   1.6487223  48.2648506  62.0343437
   1.1057692  48.4919167  62.7892456   2.5287454  48.1585274  62.3955765
  58.5342369  68.2055435  45.3860893  57.9683762  68.9712906  45.2877731
  58.1582680  67.7228317  46.1222076  27.4251308  55.4956627  71.8318024
  27.7716103  55.9945450  71.0920029  26.6712589  55.0275459  71.4729538
  87.0673676  53.3475151  58.0134506  86.3635712  52.8225899  57.6321983
  86.7425613  54.2471313  57.9757576  19.1145515  70.2977829  12.4581270
  19.8350639  69.9408875  11.9387798  19.5042362  71.0286331  12.9379578
  63.4068527  15.2567921  26.6648979  62.8428421  15.8091516  27.2062130
  63.4924507  15.7365313  25.8410301  32.7848549  22.3825970  16.2776241
  33.5311737  22.6047249  15.7209339  32.0209579  22.5037918  15.7137041
  36.7898064  64.3101730  14.6292343  36.3533173  65.1456375  14.4627552
  36.1006012  63.7453423  14.9788036  38.0701256  65.5947723  65.1752090
  38.6920700  65.5296860  65.8999023  37.2299805  65.3406448  65.5570526
  41.8492928  67.1845245  52.5162315  42.3100662  66.7668762  51.7885704
  41.6771431  66.4716873  53.1314201  81.8592377  43.2206726  27.0365868
  82.7093353  43.6600914  27.0147514  81.5374832  43.2766914  26.1368275
  54.2023544  47.1847229  55.6554375  54.2558823  48.0727959  55.3023186
  55.0919914  46.9901886  55.9502869  60.0281219  18.8367100  61.2027473
  59.9898567  18.9083366  62.1564980  60.7205238  18.1965961  61.0382233
   6.8611145  11.5747461  57.1451225   6.0151014  11.9479818  56.8977585
   7.3606176  12.3175058  57.4842911  74.5105591  56.1966057  59.2670326
  74.9268417  56.0754776  60.1204185  73.5798798  56.0440445  59.4307175
  64.4188309   0.0602714  28.9970741  64.8959732   0.1479571  28.1719189
  64.9533768   0.5339507  29.6343479  42.7410049  40.7203445  30.5097866
  43.1505470  40.7535706  31.3743114  43.4712753  40.7968864  29.8957176
  10.2614756  60.3763351  29.5817890  10.7833405  60.7631187  28.8787327
  10.5237284  60.8569450  30.3669472  14.7261276  17.0550957  17.0506306
  13.7740335  17.0137424  16.9609756  14.9375668  16.3658562  17.6802921
  64.6797485  20.0991611   3.7979403  65.3387909  20.7912331   3.8520443
  64.6954269  19.8246403   2.8810840  58.0195274  33.7275009   9.4031487
  58.8510590  34.1884346   9.2921438  57.3914757  34.4158630   9.6221132
   4.7392988  45.1583672  25.7896996   4.5599594  44.2574959  25.5204468
   5.1853580  45.5486946  25.0380955  81.9378357   5.1835613  29.6554852
  81.5729446   5.8432221  30.2453423  81.7955246   4.3523593  30.1083450
   1.8560261  30.5623150  46.9962006   0.9315522  30.8084221  47.0279961
   2.0297971  30.4033794  46.0684204   0.4068609  70.2926941  19.1366062
   1.0781969  69.6316833  19.3057346  -0.0199674  70.0000076  18.3313847
  63.9610710   7.1507168  13.7496252  64.6483383   7.8128924  13.8232126
  64.2627716   6.4299183  14.3024883  60.8962822  35.3169441  84.4774933
  60.4525757  35.6131172  85.2722549  61.6991997  34.9015160  84.7921066
  16.2442131  43.1096458  67.9483871  15.6006918  43.4832268  67.3462601
  15.8655014  42.2716217  68.2139435  27.0545559  35.0088539  20.4869843
  27.5803165  34.7954216  21.2578621  27.4107132  35.8415833  20.1772308
  55.1685905  26.5690174  59.9692459  54.6920052  25.7878094  60.2499809
  55.8785019  26.2328205  59.4222260  66.0667419  37.0151672  67.7853622
  65.2288208  37.0964890  68.2408905  66.1590424  37.8379288  67.3049698
  63.2035027  71.4106674  85.0890350  63.1236305  70.6876602  85.7112198
  62.8887672  71.0494232  84.2603760  16.8113251   8.0451717  83.5364151
  17.4487267   8.5558395  83.0372467  16.0335064   8.6019135  83.5720444
  21.4419384  32.3138847  81.2587128  21.9953327  33.0905914  81.1768112
  20.6089344  32.6473694  81.5920639  45.6916008  56.5774536  87.8555603
  46.4250336  57.1017227  88.1772003  45.4765892  56.9622269  87.0058823
  76.3900452  17.2959061  62.3170547  76.7232590  16.4254990  62.0988884
  76.6748886  17.8504086  61.5906792  56.9199982  36.8272018  67.9391327
  57.4063072  36.7658157  67.1169662  57.3116989  37.5727882  68.3940048
  16.2950783   9.6954241  10.5346222  15.7064657   9.9608955   9.8280153
  15.7371941   9.2077770  11.1405907   9.4499006  45.4529877  39.1060867
   8.9360723  45.8389549  38.3966904   9.0540237  44.5931511  39.2481880
  19.5405140  36.3022919  87.3925934  18.9214268  36.5171661  88.0903015
  19.8733788  37.1501122  87.0982590  83.0859909  26.7177963  25.0371819
  82.9897766  27.1809902  25.8693047  83.1487732  25.7947598  25.2827301
   0.7259807  31.9625206  37.4484634   0.1552750  31.2371330  37.7021179
   1.2444403  32.1447258  38.2321930  71.7548141  60.9687614  41.3302803
  70.8871002  60.7294235  41.6558876  72.3512039  60.3629112  41.7701645
  22.4398365  60.6235657  47.5035858  22.7077122  60.1626358  46.7085915
  22.3566036  61.5381393  47.2336578  49.7930641  10.5726976  35.1744728
  50.4147949  11.2923460  35.0659027  49.1207581  10.7351255  34.5127678
   9.9812717   2.6308322  13.5273752  10.5065384   3.2526443  13.0237122
  10.1345749   1.7875133  13.1012964  17.5742950  46.6818542  46.0890884
  17.3320141  47.6068611  46.0455017  17.7017632  46.5113678  47.0223160
  85.7428360  70.9361343  21.2558556  86.1039505  70.8501740  20.3735657
  85.7643585  71.8765717  21.4328918  62.7777214  47.5850258  24.3219471
  62.5400887  48.4724083  24.0530319  62.8133812  47.0884666  23.5043964
  58.2353554   2.5983393  88.6121368  59.1408234   2.4837773  88.3236237
  58.1309738   1.9715877  89.3280411  43.5525703   3.6994407  49.2995071
  42.6730919   3.3952281  49.0754395  43.8384933   4.1927524  48.5306587
  46.6435318  28.3377876  78.3276062  46.8427048  27.5178833  77.8755951
  46.3910217  28.9412899  77.6288528  64.7029266  61.3989601  72.5055771
  65.4742889  61.6284256  71.9873352  65.0434952  60.8497200  73.2116776
  54.7633362  50.5550880  66.6148224  55.1280937  50.0824966  67.3630524
  55.0456390  50.0504150  65.8520355  17.7914486  22.0046158  77.3943634
  17.0238419  21.6854553  76.9198685  18.3743362  21.2469921  77.4441757
  81.3222656  35.5185852  59.8468208  80.5100479  35.0149994  59.7926559
  81.1268158  36.2225533  60.4652519  86.2253036   7.9977236  23.8089962
  85.9221954   7.2997398  24.3896656  86.1957474   7.6109986  22.9338932
  74.6582184  19.0405045  76.7895203  74.7649460  18.0956631  76.6794434
  74.9011612  19.4095230  75.9403839  60.3334198   7.5996218  11.0634432
  61.2040749   7.2031336  11.0319929  59.7777100   6.9967284  10.5695457
  83.9592133  56.1411858  10.0130424  84.9081726  56.0723877   9.9083204
  83.6581192  56.5531693   9.2032003   9.9017563  56.7713432  56.1542702
   9.1607065  56.2246971  56.4155312  10.3481483  56.2622299  55.4776840
   8.5758352  13.0829134  27.2774067   8.5384636  14.0341930  27.3769169
   7.6709318  12.7940187  27.3953934  14.3888226  41.2839012  48.4800415
  15.2944975  41.3666229  48.1814766  13.9091978  41.9404411  47.9749222
  15.8886003  68.5985413  13.4617529  15.9540977  69.4791870  13.0924292
  16.6827221  68.4993820  13.9868917  46.2116470  27.8374748  51.2639580
  46.0240440  27.0781898  51.8157997  46.3122902  27.4748821  50.3838272
  67.4417343  20.4742126   8.7131338  68.0352097  20.3757992   7.9685960
  66.9346771  19.6624260   8.7241802  37.9439888  65.9732742   1.8991184
  37.4286308  65.9109192   1.0949121  37.7058792  65.1914520   2.3974071
  26.3245239  64.8004990  58.7873421  26.8881893  64.0786591  59.0656586
  26.6719723  65.0604553  57.9341545  64.6319046  62.4211807  83.0346909
  65.1615753  63.1754837  83.2929764  64.4573517  62.5586205  82.1036301
  36.3517990  69.8485184  82.5796356  35.5598831  69.7410126  82.0528183
  36.0526695  69.7532883  83.4839020  86.0362701  30.4494476  69.0548401
  86.2742767  29.7315159  68.4681854  85.1068497  30.6009274  68.8831863
  15.7248449   3.6149390  24.2062416  15.2132721   4.2068944  24.7577076
  15.3595552   3.7292852  23.3289051  57.7506409  26.8392773  62.3809204
  57.2302170  26.0431786  62.4886894  58.5013504  26.5651894  61.8540993
  80.8435516  59.0631676   1.0175884  81.2273941  58.5931740   0.2773147
  80.3204041  58.4043884   1.4742790   4.0941086  57.5698280  13.2203074
   3.6111536  57.8627548  12.4475346   4.0477638  58.3093491  13.8262701
  65.7203827  54.7556610  79.1011734  65.9005508  55.6386108  78.7784195
  65.2400665  54.8925018  79.9177475  48.0128555  18.1980247  75.8709717
  48.2323990  17.3234081  75.5499191  48.7224655  18.4165134  76.4750900
   2.5186734  32.5318375  77.3391876   2.9524462  31.7664185  76.9620895
   2.9685941  33.2798500  76.9464035  63.8933640  68.5178833  74.3331070
  64.3409500  68.5145569  75.1792068  64.5817261  68.3228302  73.6972275
   5.4070015  55.8495255  11.1055012   4.6227546  55.5018921  11.5301676
   5.1625557  55.9347420  10.1839724  78.3287964  34.9227829  19.5741558
  77.8677673  35.4549294  20.2226200  77.6429291  34.6275215  18.9752922
  69.9299927  10.8226452  27.3298168  70.3864822  10.2543535  26.7094173
  70.4213715  10.7297564  28.1459961  50.1669540  17.1182327  40.7580109
  51.0966682  17.3309708  40.6767120  49.7753754  17.4418297  39.9467278
  48.5728683  38.3331604  66.9898682  48.8348465  39.0851746  67.5209732
  47.9894676  37.8302078  67.5581284  25.4896526  34.9504433  66.9213638
  25.5043869  34.0475807  66.6037903  26.3109188  35.3283958  66.6068726
  19.2947655  30.6074162  83.5647659  19.4440193  31.0641823  84.3926086
  18.9082890  31.2698460  82.9920120  86.5494156  14.3048458  48.8548431
  86.1067047  13.8595257  48.1324005  86.8861465  15.1129236  48.4677353
  84.5753174  67.3003006  31.0874023  83.7007904  67.4996872  30.7532215
  84.4641037  67.2542496  32.0370026   5.3612189  44.2349854  64.6468048
   6.0886426  44.2544823  65.2686615   5.7338643  44.5710716  63.8316879
  41.4262238  26.8160477  73.3047714  41.9494095  26.5534172  74.0620880
  40.7990265  26.1024704  73.1878738  43.1042328  37.9779549  11.7328730
  42.7496300  37.4026718  12.4107647  42.3606529  38.5170174  11.4631767
  57.3229218  23.3722515  20.3508720  56.8369980  23.9163342  20.9706192
  58.2413864  23.5021572  20.5870399  30.0244274  50.9668007  72.7430496
  29.4919968  51.6860352  73.0828323  30.9235992  51.2090759  72.9644623
  40.5794907  29.0550957  24.0478840  40.0377197  29.2822495  23.2921619
  40.6530304  29.8705959  24.5436516  71.0109177   9.1081724  63.2181931
  71.6830673   8.8832026  62.5748863  70.2819595   8.5208979  63.0183067
  23.3499966  27.4992981  42.5019951  23.6926842  27.6135998  43.3884125
  23.8045578  26.7262592  42.1673088  72.5477905  29.2950058  76.8840027
  72.7027206  28.7083759  77.6243362  73.4216461  29.4878635  76.5442810
  24.1903687  18.3942719  28.5832558  23.9465618  17.5052395  28.8409615
  23.4318542  18.7196312  28.0984573  50.8705521  55.7384758  73.4756012
  50.7184677  56.0103302  72.5705032  50.3973389  56.3828697  74.0019608
  32.5990219  41.4921227  22.6930752  33.4600182  41.5159645  23.1106262
  32.7632751  41.7631111  21.7898502  30.1592751  21.6092014  11.6985054
  30.0376434  22.5010548  11.3728762  31.1066227  21.4737873  11.6778183
   6.2198658  34.9293633  35.4897232   5.6845431  35.4363327  36.1001701
   5.9797997  34.0185471  35.6600571  66.1627960  42.7660828  41.1953773
  66.6698227  41.9553604  41.2387238  66.3693771  43.1320877  40.3353806
  57.0151024  32.1132965  14.4622650  56.1699944  31.6654682  14.4238987
  57.6467743  31.4175777  14.6444826  60.9456444  19.4299088  74.4571381
  60.5948448  19.2510281  75.3295898  60.8779678  18.5939789  73.9957581
  81.9566193  53.4836998   0.6195456  81.1571198  53.8453712   0.2371616
  81.7671509  53.4207191   1.5556899  20.9226189  27.4465523  18.9071503
  20.9254036  27.9801025  18.1124496  21.7076511  27.7197647  19.3818188
   1.1355872  49.6361427  13.5619230   0.9275419  49.3713493  14.4579325
   1.1458586  48.8172340  13.0664310  86.8468246  59.3607597  56.3161163
  85.9058990  59.5134850  56.2291832  86.9366684  58.8822517  57.1402473
  71.2623672  57.7229080  53.1469727  71.9706039  57.3626900  52.6132393
  70.9129486  56.9688034  53.6218033  15.2507887  19.6025333  15.7350664
  15.0852079  18.9859581  16.4482632  15.9342480  19.1847286  15.2110863
  71.5974579  46.1452522  86.1657639  71.2418365  45.4641075  86.7365646
  72.4349213  45.7925301  85.8649750  20.3389988   5.7327056  63.8226357
  19.8299084   6.5380936  63.9143486  20.8499832   5.6790781  64.6302567
  54.7074623  63.7208023  50.4932709  54.7104874  64.1358643  51.3557968
  55.4085808  64.1613083  50.0130348  76.0629044  20.2309151  38.7439995
  76.2459183  19.9189796  37.8577538  75.3775330  19.6459789  39.0670319
  67.2155991  69.1582108   4.1495266  66.7401886  69.9758911   4.2965145
  67.0215683  68.6262817   4.9213014  12.3946609  56.1336136  16.6409111
  13.0377207  56.8079987  16.8598003  11.6995773  56.6053848  16.1820812
  58.9362450   3.0206547  35.6763191  58.7459030   3.5163839  34.8799171
  58.2375145   3.2649167  36.2832298  62.2436409  36.0480499  72.0505142
  62.0225525  35.8029861  72.9490128  62.8578835  35.3728523  71.7623367
  47.6971016  41.8386803  31.4849319  47.3870239  42.3659439  32.2211914
  47.3184929  42.2592468  30.7129116  61.0399513  42.7225952  36.2661743
  61.2525368  42.2748756  35.4472771  61.8894234  42.9703445  36.6312065
   0.4716985  44.7742310  10.9971533  -0.3458765  44.5088043  10.5760202
   1.0157247  43.9868126  10.9816666  50.1862335  44.7214584  10.2785435
  49.3366508  45.1618462  10.3009996  50.2564888  44.3819008   9.3863583
  67.3034363  35.1409187  34.1091194  66.5425034  35.5636749  34.5072212
  67.4727783  34.3801460  34.6647987  -0.2404009  11.4816084  58.7424088
  -0.1661101  11.9956198  57.9383545   0.6604238  11.2371216  58.9544754
  65.5941238  12.7625484  45.0558968  66.0377274  12.7556639  45.9040756
  64.7370224  12.3739023  45.2307129  25.1845474  24.0189953  16.6351242
  25.5714931  24.8664684  16.4153709  25.9344177  23.4557610  16.8266792
  65.4694748  29.1835823  62.9095535  65.4055405  30.1150894  62.6987534
  64.6153259  28.9628944  63.2809830  57.9791908  27.2489109  10.3044367
  58.0663490  26.3406639  10.5937843  57.0576439  27.4604168  10.4535933
   4.4621344  36.6098251  15.5615911   3.7673008  37.2676277  15.5886517
   4.1974607  36.0104332  14.8638029   5.2811475  28.6602859  88.3831940
   6.0150871  28.1708450  88.0116959   5.6225181  29.0187569  89.2024612
  72.7850876   6.0344276  22.5999241  72.7074432   6.3421907  21.6968822
  71.9272537   5.6597619  22.7998734  80.4389877  59.6991997   9.6474295
  80.2308578  60.0866432   8.7972517  80.3857269  58.7549515   9.4998169
  24.7319088  42.6975632  67.9944000  24.0250435  42.0608559  68.1001282
  25.0572529  42.5490074  67.1065292  45.0705795  59.6867752   0.6436980
  44.3072586  59.3986015   1.1442295  44.7028847  60.0936508  -0.1408280
   7.2467785  38.2260704  68.7998962   7.8989701  38.9124832  68.9403076
   6.4724903  38.6922455  68.4846344   8.2539473   4.0475287  88.1718979
   7.9227533   4.4480972  87.3681030   8.0073309   3.1255016  88.0992432
  69.9073410  53.3416710  67.1478043  69.4657211  53.6882019  67.9231262
  69.1963959  53.0439148  66.5802383  51.6123238   3.2177885  24.6455784
  50.6869965   2.9741385  24.6707916  51.9713097   2.8803146  25.4662342
  48.5510025   3.9944570  10.7328148  47.8630524   4.4871364  11.1802740
  49.2784691   3.9800568  11.3547621  12.4548006   6.5124717   7.0394320
  11.9715776   6.1756802   7.7939510  13.3661737   6.2780957   7.2146435
   7.7640414  39.3964615  75.3898087   7.7499819  40.3526726  75.4310150
   7.5142260  39.1918602  74.4887238  36.7481537  57.0917702  28.2018394
  36.4916725  58.0117531  28.1379700  36.2226639  56.6497726  27.5349598
  82.1831589  63.5626450   7.6424756  82.8576202  63.0055847   8.0310860
  81.7335052  63.9527054   8.3920727  80.3184128  14.7126780  58.9342117
  80.5141296  14.2534084  58.1175117  80.3514862  14.0315237  59.6059036
  65.3721619  17.4818172   1.0412691  65.5717163  16.7622509   0.4424066
  64.4343948  17.6357479   0.9266592  10.2695894  15.3389702  12.5351400
  10.0131493  15.0071001  11.6747141  10.4271221  14.5527458  13.0578890
  82.6791153  16.4826355   1.0434400  82.5566254  15.7536831   0.4352817
  82.2684555  17.2295418   0.6078706  44.9014168  59.4646568   4.7598438
  44.3516846  58.7295380   4.4885054  44.5182076  60.2247086   4.3220029
  19.6747513  56.3850899  30.9604816  19.2772655  55.5763741  30.6376591
  19.9683361  56.1708031  31.8459873  20.1446247  37.0241547  55.4313927
  19.9943256  36.9863815  56.3759651  21.0825691  36.8613777  55.3314133
  82.4162827  51.2962837   5.7980433  82.7323914  51.9407997   6.4312153
  82.9652557  50.5261917   5.9457817  13.9936666  68.1360931   3.9089117
  14.5055695  67.5465927   4.4626956  13.4979019  67.5537567   3.3332977
  17.6525993  46.5222206  68.5881119  16.9628525  47.0117798  69.0362320
  18.1928444  46.1683731  69.2946243  46.6825218  30.0794487  75.8409805
  47.2602272  29.6747169  75.1939240  47.1085510  30.9090023  76.0567780
  30.0273781  60.2274323  38.8777046  30.7811623  60.5607834  39.3644447
  30.2037258  59.2923470  38.7740021  66.3541870  26.6421700  86.0511017
  65.4724426  26.2822876  85.9549637  66.6902847  26.2415733  86.8528442
  69.6373978  53.3996429  10.1577625  70.0073090  54.2731094  10.2860250
  68.7218323  53.4859200  10.4233313  65.5042191  25.2208576  45.9501190
  65.5192337  24.4462070  45.3880463  66.0981750  25.0063877  46.6694565
  23.4585419  49.2909851  70.6630173  24.1257019  48.8921928  70.1043625
  23.5062561  50.2258453  70.4630356  31.2142830   2.1391351  60.8000259
  31.7649403   2.1978583  60.0192833  31.7385635   2.5395961  61.4935646
  32.2241135  71.0598602  71.9089355  31.8433361  71.7417450  72.4623642
  31.5306168  70.8417587  71.2862625  46.0002937  -0.2123771  39.0318527
  46.2860374   0.2714829  38.2569580  46.6422691   0.0129633  39.7051468
  32.3771706   1.0337549   4.3686700  32.9284935   0.8197471   5.1213155
  31.9957085   0.1962671   4.1053567  10.4845963  44.0201302  68.4861374
  11.2811613  43.5262375  68.6805267  10.6383963  44.3902588  67.6168900
  52.9469833  43.0454750  60.5038681  53.2977142  43.3930550  61.3238716
  53.5079117  43.4209709  59.8251991  41.5352554  68.9747543  54.4220963
  40.6193581  68.8531189  54.6722298  41.6932487  68.3039169  53.7578316
  78.9991989   9.0286713  48.5503807  78.2561722   8.5731764  48.1545753
  79.7464218   8.4522877  48.3901749  52.0759010  34.5665932  35.0380363
  51.2228012  34.6107559  34.6061821  52.0678978  33.7277031  35.4989357
  50.5127029  43.1078911   7.6936550  51.0980797  42.4465790   7.3245559
  49.7431374  43.0909233   7.1246982  53.8323975  20.2526264   3.6806085
  53.3889961  21.0346680   3.3519180  54.2389908  20.5344143   4.5000653
  69.0845337  41.4513512  62.7267303  68.7934723  40.5397491  62.7044334
  69.7609253  41.5033989  62.0514450  31.8610821  69.2500000  10.2813082
  32.1176033  68.6081009   9.6191959  31.3626137  69.9079056   9.7966204
  66.3022156  64.8184814  85.5426941  66.7622299  65.1095505  86.3300323
  66.9986954  64.5455627  84.9454727  72.9926834  45.8884811  43.5667953
  73.2788925  46.3308372  44.3659439  72.5274124  46.5635948  43.0728531
  75.1921387  29.4051952  76.2857285  75.9656982  29.9648552  76.3536987
  75.5293045  28.5161419  76.3958664  70.9871368  48.3874512  59.7534561
  71.4844437  47.8677940  59.1218910  71.5820389  49.0945663  60.0030785
  33.3437386   0.1425916  21.1498470  34.2858086   0.0050891  21.2489853
  33.1751022  -0.0152122  20.2209282  83.5190964   2.5262351  11.4472113
  82.6166229   2.3628120  11.1732054  84.0501328   2.2471030  10.7013493
  47.9025803  44.1344681  44.9615479  47.3515358  43.4607277  44.5632362
  48.6140060  43.6472092  45.3771019  86.8209229  51.5294418  82.8890991
  85.9826736  51.0736275  82.8129501  86.8843384  51.7609787  83.8157120
  27.5736313  59.7540665  33.4634094  27.7068577  59.7096519  32.5165672
  27.2335682  58.8906631  33.6981964  75.1064758  31.8410683  73.2744675
  75.6709061  32.2551308  72.6216202  74.6314850  32.5684776  73.6763306
  16.1558094  47.5703583  55.8365707  16.0818501  46.6655388  55.5331535
  17.0823498  47.6755409  56.0526543  81.9648819  41.7003059  37.9458809
  82.8819275  41.5127907  38.1461220  81.8320084  42.5980682  38.2501793
  68.3279266  45.3307304  30.1250286  68.8782959  45.7451363  29.4605064
  67.4390335  45.6134338  29.9101276  35.9013252  70.3952179  60.4864731
  35.1681786  69.7928925  60.6126747  36.6801872  69.8587799  60.6342354
  83.9309845  27.8887997  42.5976486  84.6643524  27.2739735  42.5778732
  83.1740494  27.3674107  42.3303719  39.3505173  37.3733292   6.1623435
  40.2156830  37.6008835   6.5028362  39.0564919  38.1630516   5.7083397
  62.5194931  38.1080933   7.4165020  63.4477005  38.2309685   7.6153984
  62.4561348  38.2498093   6.4719729  50.1958008  19.7041931  24.7294064
  50.3227882  20.6527977  24.7454548  49.5611267  19.5593472  24.0276642
  27.1643143   6.5353618  88.6860504  26.9469757   6.0902328  87.8669891
  26.4416008   6.3191190  89.2752457  60.6829262  71.4475937  44.7825432
  61.3229294  71.0958176  45.4013176  60.7223511  72.3954391  44.9101067
  32.0929947  60.4287987  78.8484421  32.5192413  59.5810432  78.7225189
  31.1592541  60.2230530  78.8935318  50.5765800  67.8038483  43.0832596
  49.7238350  67.5815353  42.7095871  51.1088867  68.0595169  42.3299255
  19.8101177  30.8210087  17.1979275  20.3511219  30.0676022  16.9614372
  18.9308968  30.4591751  17.3087368  77.6203156   0.4874592  20.4155064
  78.3398514   0.0835549  19.9303627  78.0044785   0.7261298  21.2591228
  81.0384827  64.3940201   9.9419413  80.4662933  64.2701187  10.6992273
  81.5477295  65.1768036  10.1520500  67.8781128  60.0754318  10.5281124
  68.5019760  59.3616219  10.6604147  67.0361557  59.7114639  10.8017340
  71.0161819  56.6906090  28.2651596  70.3292999  57.2400589  28.6426964
  71.4473877  56.2927513  29.0214653  63.3614693  70.3182678   3.9794533
  63.8808479  70.1561127   4.7669725  63.0792274  71.2291718   4.0620341
  50.5822220  17.8675728  13.0782461  50.0790901  18.6391964  12.8180790
  50.2504768  17.6476612  13.9487734  77.3884583  48.2471085  87.0109253
  78.1565857  48.0163651  86.4884644  76.6741333  47.7419205  86.6226425
  73.1483994  58.9730911  12.3678455  72.3717499  59.4399223  12.6762447
  72.9937820  58.8428459  11.4322386   5.2283411  57.0296745  59.5669708
   4.9541469  56.1137505  59.6131630   5.9587579  57.0923615  60.1824303
  77.5374069   2.2125041  29.4770145  77.3096619   1.5857333  28.7903385
  77.3282394   3.0671704  29.1001511  54.0052490  68.5257645  69.5030365
  53.6676636  67.8226166  68.9481964  53.8507309  69.3242645  68.9983063
  45.3238564  62.2614784  58.9837532  45.4692268  62.6729050  59.8357048
  44.4106483  61.9756966  59.0084877   6.1584263  32.3966446  75.0905457
   6.1414771  32.2371788  74.1468735   5.5221348  31.7781334  75.4494400
  66.5435638  26.4453754  67.9019165  65.7940598  26.1815414  67.3681946
  67.0624695  27.0063381  67.3254700  -0.0887213  35.7180138  69.9410248
   0.1580894  35.5247688  70.8454437   0.2753428  34.9928589  69.4332428
  48.5805206  25.2590046  62.3963470  49.0658951  24.9200935  63.1485291
  48.9725914  26.1151066  62.2242889  63.3322105  23.7986450  67.0570831
  63.5702515  24.2634315  67.8592911  63.1686287  22.8992538  67.3409271
  86.0124207  47.5671120  49.6892509  86.3655319  47.9025116  48.8652077
  86.5809479  46.8296318  49.9109192  59.9473763  66.1406479  61.6066780
  60.8780975  66.0273972  61.7994728  59.8351250  67.0868301  61.5152092
  51.1980095  70.9222870  43.1898880  51.8216209  70.2879562  42.8363876
  50.6285210  71.1357574  42.4507370  69.5382614  61.7116737  63.9053955
  69.2510223  62.0110245  63.0427742  68.8596954  62.0221786  64.5048676
   2.7186449  52.4493675  18.8885555   2.2845116  51.7880554  18.3496399
   3.3825788  51.9623947  19.3766956  58.8078194  61.2467690  10.4100065
  58.1126823  60.9088478  10.9746504  59.4996490  60.5872192  10.4609785
  51.8355141  51.6557121  44.5344849  52.2220383  50.9762154  45.0868568
  52.0653839  52.4770660  44.9689598  48.2357254  66.7708817  69.1315918
  48.6557961  66.4636002  68.3282547  48.4406548  66.0985107  69.7813187
  39.0242500  56.0430794  66.9880676  38.3303757  55.8536110  67.6196365
  38.5701370  56.1187363  66.1488495   2.5669420  10.8996239   0.8462768
   2.2108510  11.0580568   1.7205365   2.4782522  11.7394838   0.3957199
  85.6478348  39.5042801  35.6369057  85.4267426  38.8637466  34.9608383
  85.1557999  39.2193031  36.4069214  57.4023895  55.7574883  55.3143921
  57.8708687  56.5069847  54.9469414  56.4963837  56.0562630  55.3926277
  50.3508568  14.1365824  40.0970917  50.5875511  15.0583324  40.1999702
  49.6222839  14.0071783  40.7042694  51.2338181  33.2163391  81.4213562
  52.1630630  32.9950218  81.4826279  51.1613617  34.0675507  81.8531265
   3.1411183  58.3555794  10.7341442   3.7752321  58.8929253  10.2593889
   3.1091573  57.5338440  10.2442875  57.5093117   4.0756645  33.3180885
  57.6959839   5.0136642  33.2788086  57.2295761   3.8497705  32.4309883
  83.3604584  38.9193230  58.6703873  84.1247940  39.4783478  58.5306587
  83.6773300  38.2183456  59.2399979  67.3096542  36.2621765   8.2840099
  67.2345276  35.7351227   9.0794983  68.1767044  36.6633186   8.3434772
  69.8487167  30.3585300  15.6980352  69.6749725  30.2690735  14.7609959
  70.4028854  31.1360550  15.7657213  63.1987076  46.8315392  46.8774605
  62.3010788  46.6343460  46.6098518  63.7336884  46.5810471  46.1242790
  79.2064362  48.2949753  28.4907722  79.2481384  48.4361115  27.5449524
  78.4179459  47.7678337  28.6197395  62.9857750  63.9948997  71.0880966
  62.3120193  63.6836014  70.4836273  62.5214233  64.5863876  71.6803436
  45.5126495   0.0410978  45.2526131  44.6913872   0.4923532  45.0573425
  45.3145905  -0.4951896  46.0203400  45.7558250  67.7851715  32.1917839
  45.3680992  68.6511307  32.0652351  45.5835037  67.5774765  33.1101494
  60.6800575  46.9079514  21.4429893  61.4151001  46.3260612  21.6362457
  59.9220581  46.4747963  21.8354797   3.8689744  58.3842201  27.6375122
   3.4380701  58.4533730  28.4894333   3.9864550  57.4436607  27.5041714
  61.4832306  43.7764702  58.0484314  60.7473106  43.3929443  57.5713921
  62.2548790  43.5245056  57.5411835  64.5631866   9.1497135  31.5385551
  64.3038635   9.2647800  32.4527435  63.8145027   8.7151403  31.1300907
   1.3920562   1.0290577  88.4317398   1.0357282   0.5558115  87.6798706
   0.9251796   1.8646760  88.4319611  64.8839874  60.0258026  40.1321106
  64.2717285  59.4959946  39.6215515  65.5288773  60.3290977  39.4930725
  13.0185900  14.9223242  21.0497990  13.5081100  15.4258080  21.7002659
  12.7964497  14.1055431  21.4967365  51.5543137  49.5487442  42.6280251
  51.5959778  50.2974510  43.2229424  51.1025085  49.8832664  41.8533020
  36.1262283  31.4575882   1.2982384  35.1866989  31.6002636   1.4129397
  36.2349739  31.3237419   0.3567014  38.1950264  30.3937492  88.3685226
  37.6840973  30.9995461  87.8316803  38.7844543  30.9569435  88.8701401
  61.3766174  62.0461655  88.6990738  61.4582443  62.2454109  89.6317444
  62.1813736  61.5748520  88.4835205   7.6653900  43.8901558  17.8060875
   7.1824441  44.3276482  18.5072269   7.5188913  42.9569244  17.9605083
  76.0916214  22.5077915  21.5260582  75.2977524  22.9205875  21.8660641
  76.8011475  23.0857048  21.8067989  79.5022736  35.8093681  66.7774811
  79.1800232  36.1258812  67.6214066  80.2093964  36.4128799  66.5494843
  54.7499504  55.5740852  87.8637085  54.9852715  56.4947319  87.7485123
  55.1037979  55.1376495  87.0887604  15.8892946  70.5507202  80.8773041
  15.7724552  71.1386032  80.1309967  15.5596733  69.7059937  80.5706940
  69.3123322  38.8783340  65.2000961  70.0206604  39.3447762  65.6438675
  68.5169067  39.1723976  65.6440125  25.7879524  10.1379328   3.2394235
  26.5810757   9.6903515   3.5341432  25.6133957  10.7885962   3.9194229
   7.5481682  69.6576920  83.5508270   8.1858368  69.0732956  83.9608231
   7.7465143  70.5209656  83.9136505   9.8115168  45.2015114  47.6548004
   9.7794065  46.0252762  47.1683731   8.9580317  44.7974510  47.4981804
  79.1178741  57.8174744  67.7359848  79.8213654  57.7240944  68.3783340
  79.2042389  58.7150955  67.4149780   9.0602522  66.5828018  62.0972633
   9.5609198  67.2518997  61.6305046   9.1049738  66.8476105  63.0160179
  70.3151016  70.9652710  54.1018867  69.8588104  70.1245499  54.0671158
  69.9616394  71.4603653  53.3628464  76.0475235  42.5898895  66.7673111
  76.1646576  43.5369682  66.8418350  76.5562363  42.2278175  67.4928055
  25.5754604  51.1259422  34.1835785  25.5236549  51.5526581  33.3283234
  25.8806038  50.2393951  33.9908295   4.1746898  53.6691093   7.8795362
   4.2594380  53.6385651   6.9265847   3.3184016  53.2796173   8.0564489
  28.9256783   9.8927336  73.9376373  28.6141949  10.5618401  74.5471497
  29.5353069   9.3644838  74.4529343  73.3937683  67.4711838   9.7864075
  72.9433670  68.1910019  10.2282581  73.2529449  66.7149200  10.3560181
   8.0541391  30.5825882   6.6912084   7.2877479  30.6344624   7.2623353
   8.5787144  31.3486156   6.9241390  10.9793596  35.8304291  41.1078453
  11.1583719  35.1016769  40.5136147  10.4038916  35.4586105  41.7762871
  51.9258614  28.5172138  82.2503357  52.7253304  29.0219555  82.1009445
  51.9578133  27.8188648  81.5964890   1.8433160   0.6016007  16.5301514
   1.5175514   0.1336948  17.2990303   2.5479112   1.1549153  16.8672276
  34.0178871  33.1411781  81.4417114  33.3620987  32.8618927  82.0805969
  34.8460121  33.1139145  81.9209824  26.5369091   5.0031099   6.5491519
  26.4160576   5.8671994   6.9428220  25.6479168   4.6862173   6.3894453
  81.6274872  25.0849972  10.5430708  82.4253464  25.6108017  10.5994701
  81.9346848  24.2071095  10.3168449  36.8713951  63.0093536  20.5125980
  37.1365089  62.9543686  21.4307060  37.5066833  63.6048698  20.1151066
  20.0656891  65.6043701  14.9019938  20.6062908  65.3447037  14.1559696
  19.7741699  66.4909821  14.6894522  76.0077286  70.6738434   6.4407072
  76.0310059  70.4451752   5.5115132  75.0780563  70.6578903   6.6680732
  74.3326721  34.2928200  49.1901817  73.8445969  33.8088341  48.5240135
  74.6663284  33.6173325  49.7806244  53.3290558  54.8994102   9.2551880
  54.0302124  54.4044113   9.6789608  52.6919479  55.0566864   9.9520311
  20.1950703  15.8166380  18.1818104  20.8747997  16.1914787  18.7418957
  19.4122143  15.8019381  18.7324028  66.4996643  34.4230461  66.8511963
  67.4218140  34.1752777  66.7842484  66.4877319  35.1294022  67.4970703
  61.0070915  66.4023132  21.4409523  60.6746216  65.6030502  21.8494587
  60.2832222  67.0249252  21.5087719  58.7553024  56.0469475  64.7677002
  59.4499016  56.5751686  65.1610794  58.3280716  55.6211929  65.5109558
  68.4728165   9.5524273   5.7355380  67.5650253   9.8553228   5.7153931
  68.7725754   9.6337070   4.8301272   2.1278372  45.1855507  43.3852043
   1.2498870  44.8853912  43.1499557   2.0758758  46.1400604  43.3358002
  86.2418365  12.3802204  67.1692581  85.6139069  12.1835356  67.8644180
  85.7067947  12.7217283  66.4527893   4.4689879  26.0812969  36.2911110
   4.8510771  26.9538841  36.3850937   4.7097340  25.8085022  35.4057541
  35.8226089  53.6535492   3.6260443  36.1324883  53.4927635   2.7347789
  35.3762779  54.4988174   3.5756061  16.4638710  65.3023911  65.2178040
  16.3768673  65.5469437  66.1391373  16.1628094  66.0727844  64.7360458
  21.2702236  63.4331665  54.7104492  20.6012936  63.2402573  54.0535240
  22.0332432  62.9272346  54.4310455  67.6403351  34.4704781  16.2851238
  68.2931976  35.1099777  16.0004444  67.0465164  34.9683456  16.8470345
  23.5161896  34.9142036  80.0241928  23.3623714  35.0266113  80.9622421
  24.3921833  35.2722931  79.8805237  79.8485565  55.5270920  77.2149277
  80.4413834  56.2675591  77.3433609  79.0050659  55.8353233  77.5462036
  12.1971483  35.3431129  15.8197603  12.2750244  35.4763947  16.7644310
  12.3212051  34.4016113  15.6996803  51.5951500  55.1832733  39.5893593
  51.7741890  54.6681633  38.8026962  51.4521904  56.0727272  39.2658348
  86.3293381  44.5426979  84.5890045  85.9360352  44.1181183  83.8265915
  87.2275925  44.2126656  84.6101227   0.8534191  18.3719730   9.8263311
   1.3682371  18.5175381   9.0326023   0.2731640  17.6435184   9.6052198
  51.1411133  15.4112167  17.5642910  50.7251930  14.6231461  17.2147331
  51.1889381  15.2583017  18.5079861  20.1445084  27.6125374  60.2841873
  20.6279678  28.1278954  60.9298706  20.1369724  28.1591721  59.4984627
  44.6756935  52.3374100  88.4542160  45.1200180  51.6136818  88.8958359
  45.3369331  52.7006950  87.8651352   7.0826740  58.9053650  75.3264923
   6.3468289  58.3898544  74.9963150   7.4063487  59.3788834  74.5601730
   0.9711587  29.7318592  77.2011261   1.0554850  28.9921360  76.5995178
   0.1253069  29.5976772  77.6286316  16.4521618  69.3487091  17.5561810
  16.6570187  68.8536911  18.3494186  16.6399326  70.2586136  17.7864933
  32.8238831  53.5588341   3.3467922  32.0162010  53.3252068   3.8042865
  32.5593491  54.2365608   2.7247455  55.2943878  20.6024609   1.3689827
  54.7327156  20.6331062   2.1434610  55.0463829  19.7914257   0.9251941
  52.8376579  30.1508675  64.3698502  52.9373245  30.2528439  63.4233322
  53.7126846  30.3142357  64.7218094  24.9001846  39.5303307  69.3684158
  24.1084404  39.8126411  69.8263092  25.5503693  40.2006035  69.5787048
   3.2164929  69.8952332  29.0868568   3.1848114  69.6281281  30.0054893
   2.6606956  70.6733780  29.0443745  23.6351223  48.6052780  22.8008652
  24.0495052  49.0272484  22.0482311  24.1780434  48.8596725  23.5470238
  50.6129341  27.1556797  87.8366547  51.2036667  27.7778149  88.2611694
  49.7703896  27.2913818  88.2701645  77.6430588  20.4675312  69.9378510
  77.3358841  19.7199478  70.4506836  78.4446259  20.7478676  70.3795853
  78.1076584  18.9304695  77.7531281  79.0569687  18.8801498  77.8650055
  77.7853241  19.2655849  78.5898056  76.3595886  40.8688736  52.5414314
  76.0785446  40.3681717  51.7755661  77.2306442  41.1914330  52.3102531
  59.5735321  40.6899452  17.5207367  60.0117188  39.9807472  17.0503559
  58.8775711  40.2559204  18.0141869  64.1814804  38.8480225  24.0203152
  64.3105774  37.9529114  23.7067280  64.0210190  38.7521248  24.9590836
  41.1406212   5.4402804  25.1828136  41.5650673   4.8803825  24.5327435
  41.0250549   4.8752007  25.9467258  82.8361435  70.8881302  65.1493683
  83.4271011  71.4168472  64.6132202  81.9744415  71.0151138  64.7524109
  13.4170752  48.7485542  87.8286667  13.2376213  49.6887016  87.8162689
  13.2682972  48.4882927  88.7377090  60.8172989  15.1631689  48.1781731
  60.8842773  15.6545839  47.3594818  61.1452293  14.2904634  47.9612007
  27.6730137  68.7080231  77.4086380  28.4550323  68.3169022  77.7981262
  27.1741066  67.9629974  77.0735855  24.7808857  43.2003288   2.0841305
  24.4571037  42.5708046   1.4398520  25.0929298  43.9389915   1.5614070
  21.8431206   4.7012691  74.4924698  22.7230797   5.0625987  74.3859558
  21.3614845   5.3793702  74.9662170  25.9108829  30.5631828  64.1814575
  26.0799885  29.6462173  64.3978043  26.5995026  30.7930012  63.5575829
  72.2696381  62.8972626  75.0223007  72.5356293  62.6669960  75.9125061
  72.6569366  63.7596245  74.8721008  66.5716400  66.1887589  55.9184914
  67.4648666  66.2185135  56.2612648  66.6115723  65.5570831  55.2004242
  78.9644318  58.3517685  13.1159649  78.8036728  59.2891960  13.0081854
  78.4945755  57.9430504  12.3890381  63.2755508  16.7029190  20.5085430
  63.6900444  16.1057377  21.1312790  62.3392181  16.6295853  20.6932945
  19.5359516  10.3143702  72.0500946  20.1770344   9.6755028  72.3616943
  20.0383759  11.1208086  71.9340820  18.8210068  61.2450523  86.8814926
  19.7585030  61.3896179  87.0096893  18.6138668  60.5010338  87.4469604
  74.2212524  27.8067818  43.2579117  75.1290741  27.9980717  43.0223274
  73.7061844  28.4453297  42.7647629  32.1395035  28.4725342  17.0506115
  33.0199966  28.1186295  17.1759815  32.1691628  29.3383408  17.4577122
  76.1892853  25.5056534   6.1601725  75.9618835  24.9790478   6.9264684
  77.1107635  25.3048878   5.9964709  31.0159054  53.7656937  28.5521965
  30.6719055  54.3116913  27.8452415  31.0838909  52.8915100  28.1682568
  48.5857277  22.6200905  78.5300369  48.9975891  22.5842857  77.6667175
  48.1004066  23.4451332  78.5298462  24.1032009  32.3343582  10.7013302
  23.8560200  31.8235149  11.4721556  24.7187366  32.9874916  11.0341377
  71.2006836  57.9112434  83.2539749  71.9336777  57.3013573  83.1703491
  70.4615631  57.3627853  83.5168839  32.1388588  34.2014809  10.3732557
  32.1678963  34.5460091   9.4806814  32.9839478  33.7674065  10.4900522
  59.6420364   0.7264974  57.2302704  59.6974792   0.0243112  56.5821266
  60.5163651   1.1160361  57.2367630   7.0117879  44.9884720  74.6092834
   7.6336055  45.5887566  74.1979065   6.3995061  44.7612267  73.9095001
  44.8288574  21.0307541  17.3744659  44.1484413  20.3729763  17.2309628
  45.0944443  21.2966251  16.4941196  64.0177765  46.2802734  39.5972328
  64.9557800  46.3552628  39.7725906  63.6429176  45.9777336  40.4243889
  63.9040413  -0.0412119  18.9079494  63.8921394   0.8276626  18.5065193
  63.7098236  -0.6406377  18.1873951  24.3672752  23.2749348   0.6425736
  24.9517689  22.6789265   0.1742032  24.2302723  22.8570995   1.4927943
  61.0596657   2.8006136  42.6570053  61.2084923   3.7439024  42.7224960
  60.1547508   2.6803513  42.9449196  38.3111000  64.6161880  34.9429207
  38.7416496  64.1068192  34.2563324  37.4652290  64.1853943  35.0659981
  67.3825607  68.4468002  63.6363716  67.6271210  68.9345398  62.8499031
  68.2112350  68.1089020  63.9760132  83.3835144  70.3546448  60.6097374
  83.2106781  69.7937851  61.3659058  82.5724792  70.8480301  60.4871216
  72.8726730  66.0611191  53.0662956  73.7510529  66.3817520  53.2709389
  72.8754349  65.9449463  52.1161766   0.7554079  34.3259315  84.8304672
   0.8838133  34.0560455  83.9211273   1.4724733  34.9361572  85.0027313
  50.6110611  22.0532799  80.3110733  49.8902550  22.1775665  79.6936417
  50.4666710  21.1798725  80.6751328  37.6322861  54.0463715  33.1751709
  37.2720184  53.4972000  33.8714790  36.9972382  53.9766579  32.4623680
  49.9711533  12.4505377  37.7369766  49.2477646  11.8405485  37.5925598
  49.7865105  12.8433704  38.5900993  21.8714046  46.9386292  69.6509476
  21.5582752  46.0501022  69.8203735  22.4933472  47.1122093  70.3575516
  28.3923473   3.6183784  49.4121323  29.0064106   3.6056628  50.1462975
  28.7168503   2.9427760  48.8167381  26.4812393  11.0545416  18.4123211
  26.8604813  11.4965391  17.6526852  26.3639584  11.7495480  19.0599651
  57.6042442  36.8100319  10.0937109  57.3213768  36.6147728  10.9870701
  57.1207123  37.6014709   9.8569622  50.1437950  41.7886429  35.7865753
  49.9495888  41.3849258  34.9406853  49.5609055  42.5466766  35.8296432
  28.9138412   4.3788013  27.3927402  29.0968456   4.9554625  28.1344986
  29.7051830   3.8481505  27.3009682  78.1848297  15.5694284  48.5664253
  78.7496490  15.4075003  47.8107834  78.5741959  15.0524282  49.2716484
   3.8076775  60.4702606  31.3200207   3.4544089  60.5371475  32.2071304
   3.7458060  61.3589935  30.9699383  18.4094296   3.9384139  84.6454697
  19.0182495   3.7222157  83.9391937  18.2671928   3.1088753  85.1013947
  70.4264526   4.6681600  63.6999702  70.1780777   4.5377445  62.7848015
  71.3818970   4.7236514  63.6832657  28.1183987  63.6687813  84.5432510
  28.4982929  62.9976578  83.9762421  28.8632908  64.2086487  84.8076630
  46.3903122  46.5382652  11.8538809  46.9502754  46.1931190  11.1585073
  46.0795326  47.3783379  11.5163450  72.9655609  39.7259216  26.9211521
  72.1579285  39.6627884  27.4310341  73.1959305  40.6544952  26.9513836
  61.0448494   8.2836962  43.8416443  60.5806808   8.7967272  43.1801491
  60.8916359   8.7544889  44.6608620  81.1426468  48.8705254  32.0259819
  81.2119751  49.0841713  32.9564552  80.5055161  48.1570358  31.9908829
  33.8949471   9.0171452   2.2269404  33.6185341   8.6683464   3.0743871
  33.8225670   8.2746487   1.6271974  23.0644875  40.0461922  82.2999878
  22.3363838  39.5686073  81.9024887  22.8502235  40.9686737  82.1608810
  57.7898331  16.1490898  68.9120636  57.0067329  16.6622162  69.1112823
  58.3956451  16.3498821  69.6254425  17.1778622  68.1551666  82.7809753
  17.7198009  68.6110840  82.1370163  16.9356308  67.3344421  82.3520660
  84.3641663   6.3339705  82.7028198  84.0097046   6.0360870  81.8650513
  84.4062881   7.2866426  82.6199112  73.1434250  31.4762611  23.3487740
  72.5387802  31.1428871  24.0117149  73.9254761  30.9323864  23.4427376
  52.8556595   2.3259816  11.8896952  53.5331383   1.6815215  11.6849375
  52.1870079   2.1922457  11.2179403   1.8045890  43.7662621   7.9975371
   2.3861017  43.7305374   8.7570095   2.3406100  43.4498253   7.2703629
  83.8006821  23.2609558  55.2635078  84.1725616  22.4796734  55.6728210
  83.6718063  23.0133724  54.3479042  44.3329735  27.1538639   8.7922525
  44.8452492  26.3619804   8.6287727  43.7026634  26.8967056   9.4651642
  73.8141861  29.7173386  13.5925646  73.3956146  28.8768654  13.4064569
  74.6458054  29.6805859  13.1200275  24.3238163  14.8716908  79.7956009
  24.0453663  15.7545137  80.0391541  23.9679337  14.7422838  78.9164886
  84.9955750  11.6864548  61.0285072  84.5770493  12.5251951  60.8346367
  85.6544342  11.5831690  60.3418770  71.8688889  36.7839203  73.4407501
  71.2039490  36.1299782  73.6562653  72.3884354  36.8696480  74.2400970
  16.5551796  53.0945129  75.7064209  16.6858978  54.0427437  75.7048721
  17.2772770  52.7523346  75.1794281   3.6006682  26.3505878  88.9888840
   4.1096172  27.0565224  88.5903091   3.4566371  25.7275333  88.2766418
  25.5312004  14.0882912  67.1110306  25.9234753  14.7257643  66.5143890
  24.9849606  13.5387611  66.5490036  58.9021149  49.3629875  83.6138687
  58.0162888  49.2905235  83.2584915  58.8191528  49.9815331  84.3396454
  74.8281784  67.9640961  88.2751770  75.7464600  67.7133102  88.1746674
  74.3379440  67.1732407  88.0505524  27.3676853  21.9328041  74.4903183
  26.9259529  22.7819538  74.4832306  26.6628571  21.2971992  74.6146469
  18.7645817  37.0958214  21.5602951  18.6480751  37.9880714  21.2338734
  19.4617786  37.1683807  22.2121277  33.3514709  51.4394875   1.6222669
  33.5764046  51.6564445   0.7175195  33.6692963  52.1839180   2.1331918
  38.6416969  65.9540634  44.8482666  39.0155296  65.3974915  44.1651077
  38.9093285  66.8410416  44.6076813  67.0780182  26.1159744  36.8799171
  67.5314484  26.7525959  36.3273392  67.7797012  25.6560059  37.3406715
   2.6974566  30.6940022  15.4824305   3.2984650  30.0099697  15.7775879
   1.8292178  30.2976036  15.5549574  65.8770447  20.3456802  71.9418259
  66.6588440  20.7459621  71.5613098  65.1503525  20.8648243  71.5973892
  84.9311600   5.8099403  79.7634277  84.5228119   4.9570098  79.9117355
  85.4745789   5.6833324  78.9856796  57.2413139  13.0352783  86.3830338
  56.8178596  12.2338028  86.6905289  57.9569130  13.1806812  87.0019073
  26.9001503  71.2264938  74.4231567  26.2465706  70.5273972  74.4413223
  26.3886108  72.0302658  74.3309021  78.3468475   6.4216661  88.4323273
  77.9760056   5.7400537  87.8718719  78.4092407   7.1903119  87.8653030
  44.6234703  37.9848289  77.8172531  44.7880745  38.0207787  78.7595062
  44.3944778  38.8833542  77.5796661  11.1623716  39.5279884  57.5857735
  11.8976669  39.7721405  57.0236702  10.4185638  40.0161667  57.2326965
   1.8427242  59.3020630  76.3131485   2.7094650  59.4062309  76.7057571
   1.9042844  59.7562256  75.4728012  55.2115135  50.9815407  70.6610031
  55.4341812  50.0518112  70.7084961  55.3405190  51.3045769  71.5527649
  58.1421165  63.1498413  71.0668945  58.5126877  62.2809219  70.9123383
  58.3929443  63.3606873  71.9662552  54.3750000  35.1586266  26.9652901
  54.7299194  35.9191971  26.5050755  55.0241013  34.9632149  27.6410961
  42.9701881  48.5341606  13.3618898  42.7313995  49.2891846  13.8996201
  43.5950813  48.0461884  13.8981934  84.0090866  64.9787598  22.7057228
  84.7137680  64.9367828  22.0592709  83.2921219  64.4823380  22.3110600
  76.8852310  37.8305702  16.2137661  76.3084869  37.2600174  15.7057571
  77.7463913  37.4173622  16.1514549  39.7874908  60.9873123   2.3149724
  39.7971153  60.1231804   1.9033743  39.9602470  60.8137856   3.2403243
  35.5739212  68.7519455  43.7192345  35.6672134  69.2037506  42.8805428
  36.4357834  68.8269577  44.1288681  81.4799805  27.1673145   7.7873650
  82.1173248  27.5616474   8.3827906  81.2367630  27.8768902   7.1927423
  55.8357048  33.5758018  89.1464233  55.6967354  32.9148827  88.4681091
  55.9465446  33.0719147  89.9526749  48.5932159  27.0604706  68.6126328
  48.5573120  26.1327629  68.3796158  47.9192810  27.1649742  69.2842941
  15.1141701  55.8847580  87.6257324  15.7686167  56.1086006  88.2874146
  14.6232786  56.6953049  87.4905701  30.9737034  61.5793152  65.9635620
  31.1966610  61.4140282  66.8796387  31.4534378  62.3770103  65.7404709
  44.4370499   6.8736258  87.0408630  44.6521835   6.0080128  86.6934967
  44.6367149   6.8132153  87.9750519  49.9176979  36.1904335  64.7458038
  50.3449898  37.0223732  64.5420074  50.5932922  35.5301018  64.5916367
  18.9999866  24.6604404  14.2202358  18.6375179  24.0601597  13.5686903
  18.3520145  24.6689892  14.9247141  57.6562920  44.2547302  18.0075245
  56.8053169  44.6909485  18.0498199  58.1717415  44.6675262  18.7004490
  39.9698906  40.6100883  70.2521286  40.2984314  41.2197075  70.9129257
  40.2272568  39.7462158  70.5741882  53.9605446  39.0804176   8.3810816
  54.7934647  39.3988380   8.7290487  53.3089790  39.6941490   8.7202396
  10.7850027  61.8567848  31.8528481  10.4086895  61.2156334  32.4557953
  10.6492357  62.7001724  32.2847061   9.4863300  47.2569275   6.8287444
   8.8316364  47.9045410   6.5675864   9.0680513  46.7650185   7.5353546
  60.3788376   8.1485262  85.7217255  61.1018257   8.0076571  86.3330154
  60.6018715   7.6139302  84.9596939  84.4758759  26.1190300  10.6037521
  84.8726501  25.9173260  11.4511681  85.2148285  26.1584663   9.9966059
  81.3904648  17.6441383  50.7980766  80.8188248  17.8172226  51.5460739
  81.6642838  18.5115891  50.5001068  14.4721746  59.6478653  77.9447556
  14.0811605  58.9720917  78.4985275  15.2013407  59.9893761  78.4623642
  38.2725945  11.4416542  81.7295303  38.5528297  11.5963449  80.8274307
  38.4285622  12.2744370  82.1749268  75.5468140   1.5064846  38.4969215
  75.2961884   1.9090154  39.3284187  76.4858475   1.6763213  38.4220238
  67.5988846  24.9020500   5.7823510  67.0019913  24.4562702   6.3833690
  68.3703461  24.3364735   5.7475734  49.8433723  12.1903067  21.6923981
  49.2479019  11.4518623  21.8202438  49.7291183  12.7285118  22.4756680
  60.4500160   8.4902163  26.7208252  60.6244202   8.5194321  27.6615505
  59.9127312   9.2643528  26.5526848  59.5456276  39.6536674  68.2231674
  60.0981560  40.2963524  67.7783203  60.1525879  38.9679108  68.5016785
   4.8588834  32.8084221  17.6340446   4.4032183  33.5219727  17.1874523
   5.2594881  33.2216454  18.3988934  13.3729753  54.5854149  63.4978447
  14.0050926  54.4572144  62.7905769  12.5704622  54.1719055  63.1797028
  33.0554848   3.8619142  86.4344330  33.0048447   3.9049277  85.4795380
  32.2994804   4.3648801  86.7372665  37.2018967  69.8637238  76.0502167
  36.9226379  68.9485016  76.0253754  38.0024185  69.8841934  75.5258331
  38.7876015  65.4662018   8.6994352  39.4457779  65.6656113   9.3652220
  38.0283699  65.1620636   9.1967325  34.5225716  44.4945755  78.5235672
  34.6952209  43.5656891  78.3699570  35.3875885  44.8783913  78.6673203
  61.5075417  17.7647896  64.3172913  62.1897621  17.7800159  64.9885406
  61.9525375  17.4495487  63.5306282  72.0049057  34.1609383  63.8929710
  71.4102554  34.8951721  64.0463333  72.7786026  34.3656273  64.4180756
  72.3035889  66.8931885  88.9824295  72.0368271  66.5199432  89.8225250
  71.4949112  67.2425537  88.6079712  17.0056591  63.3942299  47.3789825
  17.6650906  62.8794060  47.8441048  16.7398396  62.8377075  46.6469612
   8.5595236   0.4047022  11.6910601   8.0444555  -0.3139979  11.3244457
   7.9431767   0.8821202  12.2464161  66.7331924  61.3687553  49.3754082
  65.9888992  61.3150215  48.7759323  66.5982590  62.1878548  49.8519554
  29.4181957  39.7213631  19.9423313  29.7865219  40.5708847  20.1849861
  28.5408306  39.9245300  19.6180058  14.4868670   2.6695309  27.4106083
  13.9365244   2.7595084  28.1885929  13.8663397   2.5926757  26.6858540
  39.6125641  67.6120758  32.2646866  39.2930489  68.3658371  32.7606544
  38.8633995  67.0177231  32.2230949  52.2063980  21.7070522  67.1072922
  51.2971840  21.4587860  66.9401932  52.2050629  22.6633492  67.0657578
  15.8577604  59.8471451   6.0686889  15.2215090  59.2165565   6.4059906
  16.1389141  60.3395424   6.8398771  12.4847479  12.1500263  18.0961246
  12.1598902  11.5457449  18.7636147  13.4353657  12.0396280  18.1153660
  52.2132874   3.3198683  18.7795944  52.3075256   3.3144119  19.7321281
  52.0470161   2.4055769  18.5501232   9.0588560  63.0839806  64.5989227
   9.0914955  63.2800674  63.6625900   9.6944427  62.3782539  64.7181396
  69.6216202  13.5181751  20.8633270  69.2255173  14.2919397  20.4625511
  70.5497513  13.7382898  20.9430294  59.3403168  20.1744232  43.8764267
  59.7127838  20.7511711  43.2094460  58.8840408  20.7648773  44.4759293
  18.3240814  61.5919075  62.6614113  18.6052437  61.2439041  61.8152008
  19.0923691  62.0531235  62.9979324   6.8283815  57.0471535  37.7849236
   7.5067186  57.5790939  37.3688354   6.2431526  56.8018875  37.0682755
  65.7277832  70.6697235  33.3365479  66.2952499  70.7010727  34.1067657
  65.3366852  69.7964554  33.3625832   5.0094800  12.9047203  70.5331192
   4.6889324  12.1682329  70.0124741   5.6430359  12.5145664  71.1352997
   9.5412998  31.8686943  74.9868088  10.3050251  31.8541489  75.5636444
   8.7919550  31.8897362  75.5820160  15.1149664  29.4732552  22.4395847
  14.8879805  29.8165760  23.3037834  14.3754501  29.7174339  21.8830547
  28.0666504  71.2146149  17.8128529  27.9408054  71.3137207  18.7565536
  27.4593773  71.8434067  17.4228954  84.2951508  12.3436337  75.4279861
  83.9955902  12.4401455  76.3319626  85.2043076  12.6426554  75.4437256
  39.4292450  44.1970444   9.3164635  38.6528664  44.5722466   9.7320271
  39.1207466  43.3787918   8.9272051  86.4172211  68.6508179  36.6292801
  87.3359299  68.5642700  36.8836632  86.4270630  69.2772980  35.9056435
  39.7612839   3.7350118  36.5797043  39.8000832   3.7272232  35.6233215
  38.9301910   4.1645560  36.7822075   3.9721682   2.9594309  86.7392426
   4.4009151   2.1932068  87.1204376   3.4301383   3.3075609  87.4472275
  28.1073017  46.0122414   6.7033339  27.5519962  46.2776337   7.4364333
  28.4782829  45.1728706   6.9754796  25.3519688  48.8434143  29.9852161
  25.3821754  47.9170837  30.2244473  26.1708088  49.2051430  30.3241596
  41.9408340  16.7130547  16.0789623  41.2678642  16.7762051  15.4012032
  41.8593292  15.8204889  16.4149914  58.4369278  15.5863199  28.5511646
  57.6175308  15.2583389  28.1806927  58.2022438  15.8757010  29.4328766
   3.3840547  65.1453629  80.6991653   4.1756401  65.1876297  80.1626663
   3.1029966  66.0564651  80.7835922   5.1804304  57.3491936  56.0416412
   5.3881083  56.4751244  55.7113342   4.7168484  57.1905975  56.8639374
  85.2375946  52.3592796  22.4675274  85.3582916  51.4598351  22.1631145
  84.5604019  52.7175140  21.8936787   7.8344464  27.3516674  51.0488739
   8.2642488  27.7402534  50.2869682   8.2331123  26.4855061  51.1329117
  83.6450577  33.0795174  60.4902115  83.6790543  33.1799698  61.4415169
  83.4582520  32.1506615  60.3539734  46.8880043  34.3850517  31.0991268
  46.6158752  33.7739296  30.4145031  47.8044930  34.1650505  31.2660866
  48.0345612  41.6662102  52.3388863  48.7133255  42.3404503  52.3689804
  47.8920860  41.4287186  53.2551460  21.8938541  43.5322495   7.5699248
  22.7813549  43.8585625   7.7185707  21.3752041  44.3183174   7.3986468
  65.1343613  31.1857204  32.2765770  64.5533142  31.8482170  32.6503525
  65.3039856  31.4912090  31.3854332  40.6508522  53.7396507  61.7606735
  39.7723618  53.7841911  62.1381683  41.0399666  52.9571533  62.1512146
  10.7575464  46.3456192  50.4156647  10.9085608  47.1865234  50.8472939
   9.9434681  46.4696579  49.9276848  26.8974247  46.6937218   4.0481887
  27.0843868  46.2289085   4.8638015  27.2230606  46.1122704   3.3610871
  65.0823059  10.6274672  82.7920380  64.6899796   9.8170977  83.1170197
  65.0897446  11.2110338  83.5507355   6.5511875  15.8765850  72.2722626
   6.6827488  15.0396643  72.7177811   5.6101775  15.9111004  72.1003876
   6.3624325  45.7181625  37.1787224   7.0138531  45.5469704  36.4985962
   6.0179834  46.5858994  36.9674835  41.8078766  43.4417419   2.6460791
  41.2846107  43.3086472   3.4364657  42.5564690  43.9613342   2.9391088
  21.8844051  18.4290905   4.4590864  21.8272820  19.3342438   4.1530380
  22.6524029  18.4174080   5.0302920  83.3247375  46.0375938  36.3410873
  83.3740234  45.6665916  35.4600906  84.2077713  46.3645821  36.5130234
  86.3549881  16.5504780  26.9418297  86.5726700  17.4713402  26.7974033
  86.4042587  16.1534805  26.0722351  22.4872494  22.7605438  84.9934006
  22.8525562  23.6247921  84.8040314  22.9598293  22.1675243  84.4092560
   0.7700998  71.2047348  41.1646423   0.6185185  71.2750549  40.2221413
   1.0330811  70.2940292  41.2976494  58.7184486  24.6838894  23.7077541
  57.9432945  25.2454662  23.7096729  58.9712181  24.6276989  22.7862453
   9.0099506  36.3299141   1.7099396   9.8167477  36.7610397   1.9917947
   9.2096205  35.9963264   0.8352494  18.9850197   1.3329358  67.5857315
  19.7825546   0.9387038  67.9389267  18.7669125   0.7927657  66.8262024
  73.6107788  57.0742302  64.8958969  74.0268097  57.8540077  65.2634583
  74.1583405  56.3477516  65.1936188  41.8627167  10.7231264  66.9143677
  41.0185547  10.4108601  67.2401199  41.7446404  10.7879190  65.9666901
  15.8554754  58.4830971  51.5124054  16.4411564  58.8575211  52.1704483
  15.7243757  59.1888084  50.8791428  68.2630844  28.2383823  75.2718964
  69.2167969  28.1877594  75.3359528  68.0492096  27.7398338  74.4832611
  11.2898321  18.1191616  56.5041847  10.4552879  17.7856197  56.8336067
  11.2730761  17.9232311  55.5674019  15.3494549   3.6904230  75.5885468
  14.7947674   4.4109049  75.2894516  16.1404514   4.1176453  75.9172363
   0.7186505  43.9023285  31.4571362   1.5465380  44.2595253  31.1358185
   0.9693027  43.3362808  32.1872025  11.4261723   0.6280310  59.9205589
  12.1684494   0.1733835  59.5223694  10.7456007  -0.0412755  59.9918480
   6.2833104   1.2786932  49.2244415   6.6506925   2.1548288  49.1076164
   6.9803033   0.7818957  49.6529541  56.1033859   7.7044582  70.5696259
  56.6099854   8.5014429  70.7258377  56.4775658   7.3357930  69.7694321
  38.1526794  23.7322960   4.0433478  38.0088196  23.0548840   3.3825541
  38.7757683  24.3347282   3.6370623  56.5841293  43.8516350  82.8832092
  57.0366135  43.9859924  83.7159348  57.2124023  43.3712463  82.3440170
   9.5024872  33.5644608  72.9222260   9.7740421  34.2730789  73.5056229
   9.4004507  32.8063316  73.4976044  51.0643997   6.6711092   0.3431520
  51.5474358   6.8844066   1.1415347  51.0233459   5.7148142   0.3363195
  77.9023438  64.2855835   4.8195052  78.7772598  64.0405197   5.1206565
  77.8422852  63.9213829   3.9363377  42.1017876  34.2023010  23.7928905
  41.2968140  34.6222534  24.0960331  42.7236519  34.9226646  23.6899929
  30.2064438  42.8330383   4.8826742  30.7531452  42.7832413   4.0985384
  30.3198185  43.7299728   5.1971331  19.2033920  70.8458633  26.4762268
  19.3931332  71.7794037  26.3828125  19.6849537  70.5808182  27.2598610
  15.3855610  40.4788170   6.3441372  14.8814821  39.6654625   6.3683696
  14.8821325  41.0887527   6.8833694  13.6990061  56.4501610  55.2303391
  13.4296713  56.3629951  54.3159599  14.2462959  57.2353287  55.2450142
  38.1229515  70.8705750  11.1739302  38.8145180  71.4802551  11.4313393
  38.5896072  70.0816574  10.8981199  60.8920593  41.5980225  48.5216522
  61.4205284  40.8890800  48.1551170  60.2658043  41.8121033  47.8301315
  27.3874531  21.7279911  70.1638412  28.1183472  22.3415356  70.0890732
  27.6370296  20.9893475  69.6085434  84.2709122  36.6188622  68.1624374
  83.8413849  35.9722557  68.7224731  84.5543213  36.1209908  67.3956070
  52.1097031  11.2538338  74.0499115  52.8372154  11.5621881  73.5096588
  51.3290138  11.6118498  73.6273270  33.7154121   0.5882080  64.1065445
  34.6444740   0.7424263  63.9353981  33.5651321  -0.3122913  63.8188858
  56.1366577  62.8731689  25.8455715  56.1270638  62.2417412  25.1262379
  56.8568153  63.4669724  25.6334419  44.5602531  64.5988541  52.6979103
  43.9478302  64.8279190  53.3969841  44.0940742  64.8157043  51.8905144
  52.4212761   6.7514653  38.4292870  52.4102745   6.9037948  37.4843521
  52.1103516   7.5737038  38.8080788  53.9826469  34.9631310  39.9736977
  53.1525726  35.4164734  39.8264084  54.6348572  35.6628838  40.0083618
  38.3316917  21.1390038  -0.2478021  39.2587013  21.3729458  -0.2942881
  38.1580009  21.0331364   0.6875347  80.1973572  14.9811935  16.1599369
  79.3933487  14.6093235  15.7972956  80.1696091  15.9040413  15.9073248
  23.1898308   0.7726204   2.7550976  23.0821476   1.6420974   3.1406441
  22.3293304   0.3629207   2.8440700  19.1394711  20.6741657   0.4649494
  19.9332199  20.1814117   0.2566542  19.3929729  21.5914021   0.3617584
  72.3115768  19.6039352  52.9503708  72.9246902  20.0480633  52.3646469
  72.7102661  19.6805515  53.8172112  44.1843300  22.7633953  79.1830902
  44.0032387  22.7910671  78.2435837  45.0538559  23.1538124  79.2710114
  78.6900253  60.6416245  76.9333038  78.0444641  60.7612305  77.6298523
  78.2466125  60.0913544  76.2876892  57.7222824   7.7857814  86.2413254
  58.6214676   7.9758701  85.9738159  57.7537537   6.8852353  86.5642166
  15.0577469  60.1941147   0.3767313  14.8004084  60.8876648  -0.2307234
  14.3760786  59.5286789   0.2831747  35.3363266  24.1967850   6.6473804
  36.2798080  24.1539879   6.4916892  35.2239685  23.8528671   7.5335679
  46.7976456   2.4114354  45.8776169  46.3229446   1.5828835  45.8113289
  47.6852036   2.2029560  45.5860558  10.1011190  21.6579628  64.3894653
   9.3224754  22.1746445  64.1821289  10.1605616  21.6870155  65.3443756
  75.9966125  14.1445627  57.3770256  76.7522812  13.8090277  56.8947258
  75.4463043  14.5508785  56.7074699  40.7725487   0.1934779   9.2181959
  41.0704117   1.0329597   9.5685978  41.1118317  -0.4567414   9.8332863
  84.0347290  35.2638969  76.8557510  83.8428345  36.1554184  77.1466141
  84.3122025  34.8073463  77.6499786  71.0395889  33.6398926   6.8979874
  70.7193680  32.8012581   7.2302270  71.8429947  33.4197121   6.4265118
  60.6095886  34.9312477  53.5307083  60.6235466  35.2541771  54.4316826
  60.1000748  34.1220894  53.5741653  12.8847303  63.6214600  60.9503670
  12.8555918  63.5979729  61.9068336  13.7877092  63.3903770  60.7325058
  66.4191971  41.4588928   7.4444642  66.2163773  40.7124100   8.0082541
  66.1970139  41.1603279   6.5625782   8.8908587  29.7310905  82.3583374
   8.7393141  30.6579838  82.1735916   8.0507984  29.3100510  82.1759796
  65.0271988  57.8820457  68.1707382  64.2361221  57.4544678  67.8426895
  64.7953415  58.1697044  69.0537643  37.3145256  32.5982819  68.0773926
  37.9179306  32.6315880  67.3350754  37.5510445  31.7958012  68.5424881
  77.8848190  44.9929428  17.1372910  78.7375717  44.6453133  17.3984566
  77.4735947  44.2783432  16.6510048  37.8068390  50.8967400  64.4811707
  37.3461723  50.7993355  65.3145599  38.7303352  50.7767868  64.7025299
  85.2907791  31.5125999  21.6323967  85.8787384  30.8335609  21.3015804
  84.8434448  31.8425388  20.8531265  63.1304054   5.6315699  54.9204712
  63.1416283   6.0277281  54.0491714  62.6341248   4.8207607  54.8085480
  43.1255112   3.3574498  79.6664658  43.0455704   4.2719760  79.3953857
  42.3993111   3.2238290  80.2755737   0.4827386  48.0716324  47.2793121
   0.0792502  48.0503349  46.4115715   1.2018583  48.6975594  47.1937714
  35.3825684  46.2483482  80.9057770  36.0367966  46.4752808  81.5666275
  35.8431892  46.3392677  80.0716324   2.3348274  36.2321701  48.8672600
   2.6453350  36.9373779  49.4351463   2.9260249  35.5013428  49.0478477
  56.8852425  13.4199944  42.7260895  56.9147072  14.1885757  43.2958679
  56.0526848  13.4988518  42.2604027  62.9620132  44.5871887  25.3189087
  63.7812271  44.5891151  24.8238144  62.5032082  45.3745003  25.0258751
  69.9041290  23.5574894  18.4647732  70.0507965  23.5331993  17.5191879
  70.4295578  24.2971935  18.7697201  35.9062843  38.7455521   1.8171060
  35.7149582  39.5115509   2.3582826  35.2723160  38.7934456   1.1015495
  21.3178520  38.0616188  52.9099884  20.4931660  38.0001068  53.3920021
  21.9727364  37.7032089  53.5090714  19.3925190  37.7770576  60.3106918
  19.8812904  37.0644913  60.7225037  19.1530437  37.4364243  59.4488029
  25.2640285   5.7416282   1.4498246  25.9159565   5.3634644   2.0399210
  24.5740013   5.0801258   1.3997154  38.2134972  62.4121017  43.4544106
  37.7928429  63.0346298  44.0474892  37.9546814  61.5524979  43.7865677
  10.8948574  11.5672522  10.2628927  11.7282047  11.4290276  10.7130690
  10.5476913  12.3737984  10.6439314  18.3130131  58.3866959  14.7741947
  19.2004089  58.5508041  14.4550886  17.7436371  58.7201195  14.0807476
  28.6477509  63.8360519  80.8802261  28.3916283  64.7539520  80.7902832
  27.8514214  63.3443985  80.6793060  68.7706757   6.7526217  73.8285217
  69.6248093   7.1379957  74.0239105  68.1861725   7.5039878  73.7283554
   8.7777424  38.2141838  20.2427521   9.5460701  37.9870377  19.7190056
   9.1252575  38.7430573  20.9609165  78.7857437  39.1301117  85.8222122
  79.3187866  38.4346313  86.2074432  78.2097626  38.6771584  85.2063217
  70.6710052  40.0893135  16.3275070  70.7953415  39.6524048  15.4849625
  70.2885361  40.9376450  16.1032619  80.5150070  66.8390579  36.5405083
  80.3752823  66.7840652  37.4858551  81.1010056  67.5875244  36.4281464
  68.3250656  20.7156277  17.9652157  69.0407867  20.0820217  18.0154133
  68.5910568  21.3232517  17.2750931   7.7232566   1.2343578  74.2712326
   7.1040387   1.3915516  74.9840393   8.4637594   0.7953033  74.6897049
  19.3073063  65.1150284  71.7594833  19.3959064  65.2074814  70.8108826
  18.5557480  65.6634674  71.9844208  58.4936142  44.8581314  84.6251526
  59.0871201  45.3910027  84.0959702  57.9553604  45.4946365  85.0956573
  60.2252960  39.8612099  57.5041771  59.7834015  39.1741791  57.0052299
  60.7853317  40.2998276  56.8637047  23.4240723   9.9597254   5.8194656
  24.2867088  10.3745546   5.8222561  23.4771519   9.3013439   5.1266823
  71.0257721   1.0132675   8.4453526  71.0063858   1.9305284   8.7182779
  71.0596008   1.0484803   7.4893985  36.1031189  62.1636467  55.0008774
  35.3644485  62.7244759  54.7640800  36.8590889  62.7507896  55.0014572
   1.3739035  40.6707077  75.7153397   1.9686053  39.9225693  75.7687149
   0.7284554  40.4170036  75.0555954   6.7734675  45.7911911  77.3220520
   6.7823124  44.9434853  77.7665176   6.6810684  45.5742683  76.3943481
  83.2263870   7.1726556  11.1172724  83.0310287   6.5916524  10.3820839
  84.0827103   7.5452108  10.9071445  35.9680252  22.3932991  71.0426254
  35.3090057  22.2181721  70.3708649  35.7880325  21.7500019  71.7281952
  43.7118607  65.4895706  24.3588333  44.0159187  65.9184113  25.1587543
  42.7802620  65.7042465  24.3112507  61.8505325  10.9452715  51.9060898
  60.9083443  10.8028536  51.9968338  62.0544319  10.6423616  51.0212708
  78.1214218  20.3590317  56.2457581  77.4773102  20.1681900  55.5638924
  78.0954971  21.3112316  56.3399696  22.8060036  65.6535721  63.5337029
  21.8601990  65.5695419  63.4127769  23.0150509  66.5224533  63.1908073
   8.9357834  51.7844467   6.1570525   9.2661762  51.4023666   5.3439803
   9.5203209  51.4463158   6.8354440  24.8519726  68.0662079  42.4201889
  25.0615997  67.2308350  42.0025330  24.3270683  68.5337601  41.7704887
  65.1723251  44.3183136  12.5252953  65.3447113  44.5489616  13.4381552
  65.9569168  44.5999184  12.0548277  44.3914909  65.7018051  11.4436550
  45.1692276  66.2591324  11.4163294  43.6616211  66.3013687  11.2885847
  56.7268295  68.7247238  14.1245689  57.2576675  69.4714203  13.8472776
  56.2978973  68.4249802  13.3230686  42.1157150  67.7121429  78.0098572
  43.0487671  67.5398712  78.1362152  42.0844955  68.3526077  77.2991791
  79.9315872   5.3196216  36.0129318  79.1592331   5.3060126  36.5781860
  80.5096283   5.9693904  36.4128075  27.8826981  51.6337814  65.9414062
  27.1636715  52.2505035  66.0788269  28.1566620  51.3847580  66.8241043
   8.1448278   0.3619069  46.9702797   7.4467487  -0.1125166  47.4217644
   8.3841438  -0.2048481  46.2369652  48.8225174  -0.1668575  85.5155945
  48.6115189   0.7150692  85.8220520  49.1920586  -0.0350115  84.6425018
  14.8617487  54.9739838  45.1970139  14.7050486  55.7384949  44.6427574
  13.9938269  54.7285461  45.5174866  76.7907639  67.2739105  55.4729729
  77.7392426  67.2432861  55.5982132  76.5462799  66.3703232  55.2730293
  53.3161583  38.1706543  24.4122181  53.0257912  39.0817833  24.3701668
  52.5994453  37.7108002  24.8493519  49.8836975  69.3820648  22.6598644
  50.4556808  68.8910446  23.2497520  50.4644203  69.6889954  21.9635983
  79.3310165  10.2401419  76.6982727  79.0586853  10.0032253  77.5848007
  79.0609283  11.1532507  76.6007233  55.2515602  15.6686535  80.0903091
  55.1460266  16.3907261  80.7097549  54.4280281  15.6489859  79.6028290
   6.6880350  36.8426628  63.2882805   6.6750813  37.5577049  63.9245033
   6.8058686  36.0535889  63.8171616  53.8168640  23.1226311  74.8425522
  53.2958755  23.3322144  75.6177139  53.7257195  23.8902245  74.2779999
   2.8782284  54.2250977  66.1870804   2.5841577  55.1232262  66.3391266
   3.1154931  54.2044754  65.2599792  10.8412771  49.8294487  49.9866066
  11.6056890  49.3129272  50.2417717  10.5997410  50.3076935  50.7798080
  75.1915359  60.1257210  88.5896072  75.4064331  59.9779968  87.6686172
  74.3622208  60.6032372  88.5684433  82.9915237  34.1193123   9.9241629
  83.6533203  33.9621353  10.5976267  82.1628113  34.1393242  10.4027681
  69.1806717  12.9436398   1.6296345  69.0579453  12.5688705   2.5018258
  69.4946823  12.2129421   1.0969919  71.6479263  30.3419666   3.1928461
  71.4583817  29.4547119   3.4979451  71.0987701  30.4506855   2.4164164
  54.0268021   5.2016635  56.1668167  53.8365211   5.7769718  56.9077911
  53.4490623   5.5107899  55.4690399  74.3010712   2.9284832  59.7856598
  73.6352005   3.5048397  60.1607056  73.8019409   2.2477913  59.3342628
  34.0681114   2.7617383   2.6602190  33.8354874   1.8417429   2.7856252
  34.5178795   3.0074117   3.4686649  63.3442192  67.2786102  47.9781342
  62.9899521  67.4270782  47.1013870  62.5765648  67.0897217  48.5178223
  68.8392792  13.8538151  44.8058243  69.1184845  14.6341324  44.3268852
  69.0387115  13.1267014  44.2161102   8.6361313  64.0910339  78.8524704
   9.3411474  63.7693710  78.2905807   9.0810566  64.6140823  79.5193176
  45.0951118  34.0192719  75.8612061  45.4817886  34.8670731  75.6422424
  45.0965691  33.9953308  76.8181076  44.4718895  50.3345070  45.8474541
  45.0654259  49.9315376  46.4811440  43.8321114  50.8034973  46.3831444
  17.0186806  59.9105263  24.9313965  16.2712002  59.3807678  24.6541595
  17.5806522  59.9551926  24.1578178  47.1447563   7.8347855  21.4147263
  47.4099655   7.5515995  20.5396824  47.2115211   7.0456462  21.9523449
  13.7909679  69.2531738  79.0438461  14.6379261  69.0773849  78.6339722
  13.1911287  69.3808670  78.3089142  60.2109909  69.5440063  12.1621237
  59.7981110  68.8843460  11.6048021  60.5477066  69.0495148  12.9093370
  55.8012085  58.1357841  80.5393219  56.1635933  58.3858871  79.6894073
  54.9433632  58.5594749  80.5679779  25.3536339  39.0099335  74.3082504
  25.3544807  38.2516556  74.8924103  24.9243488  38.6980667  73.5115814
  84.4405060  65.6736984  89.3828583  83.7472000  66.0041275  88.8115540
  84.4948273  64.7401886  89.1783218  17.3396015  43.0645370  88.1501007
  18.1979961  43.0598793  87.7265778  16.7392426  43.3726311  87.4712219
  61.4950066  31.9149208  45.3892899  61.4930611  31.2878838  46.1125145
  61.9871979  31.4776287  44.6944847  52.3975525  23.5054188  54.2252235
  51.4502068  23.5107346  54.3621140  52.5156403  23.0626450  53.3848457
  24.2111607  51.9339256  22.3488503  24.8008919  51.4865799  22.9557514
  24.2650375  51.4223213  21.5416374  28.1558304  36.3526573  16.5877342
  28.7357368  37.1012306  16.7276611  28.7358112  35.5917168  16.6164913
  70.1953430   3.8147533  22.5552444  69.6883469   3.4886982  21.8116894
  70.8654099   3.1466320  22.6996632  18.5874596  26.7478542  20.2206192
  19.4357929  26.8991241  19.8038692  18.1022377  27.5605354  20.0780010
  57.4097252  29.8473015  63.7780991  57.3906708  28.9366627  64.0723877
  56.7968063  30.2992859  64.3579865  41.2974892  29.5478573  20.5294113
  40.4093971  29.6545944  20.8701916  41.4308128  30.3097229  19.9654808
  77.4162140  56.8387642  75.0538940  78.1509705  56.6672897  75.6429367
  76.9417801  57.5604553  75.4665756  16.5811348  40.0845184  55.3660011
  16.1168003  39.2556038  55.2496719  17.3176022  39.8682861  55.9379196
  29.9540749   0.3269824  29.2617512  29.6816330   0.9418495  29.9428864
  30.1338730  -0.4871311  29.7319889  74.6780319  31.2816925  10.4647503
  75.6329346  31.3315315  10.5083618  74.3765030  31.8159695  11.1995010
  20.9220867  59.7083282  25.6399460  20.4603195  59.1116600  25.0508881
  20.2452526  60.0266838  26.2372551  45.9193726  66.7876129  16.3569050
  46.7125931  66.3855896  16.0027752  45.7921410  67.5741348  15.8264151
  24.1284389  17.8447380  70.4349442  24.4137211  18.7152920  70.7123947
  24.7862911  17.5692806  69.7965164  21.8333187  62.1449242  17.0022621
  22.2021351  61.5376892  16.3608017  20.8946171  61.9577255  16.9971581
  84.9560394  37.3225517  55.8679771  84.4949570  38.1584778  55.9376678
  84.5814056  36.9063759  55.0916519   0.2267178  66.7905197  23.1879902
  -0.2769701  67.0661774  22.4221287   0.2583367  67.5674667  23.7461910
  10.2062645  64.7415085  18.6669655  10.8151102  65.0335388  17.9885426
  10.2120380  65.4470673  19.3137894  85.3390121  67.6448364  15.4429626
  85.5391998  66.7334518  15.2295694  84.8103867  67.5938110  16.2393227
   0.1687735  33.6262169  87.8613129   1.0364101  33.8165894  88.2179565
   0.2944179  33.6270294  86.9123917   1.1119401  64.3083878  41.4722633
   1.8682184  64.7231293  41.8873177   1.0325323  64.7477417  40.6255684
  74.9158936   8.9880247  31.8456841  74.3805618   8.6455946  31.1298656
  74.5155106   8.6285820  32.6373405  86.0856323  34.4863281  13.9942064
  86.5929871  34.0602837  14.6850834  86.0923920  33.8594818  13.2708454
  10.1597748  70.1204147  34.5484390  11.0177288  70.1325378  34.1241760
   9.6469030  70.7720032  34.0702972  63.0902138  60.4674110  22.7280540
  62.4541779  60.0458260  22.1501637  63.7811050  59.8145523  22.8406467
  81.8550110   5.1984859   9.2072668  81.2830887   5.1113262   8.4446774
  81.3681793   4.7851167   9.9202557  82.9078751  52.5150108  64.7554932
  82.4674454  51.6836205  64.9316635  83.7237701  52.4640541  65.2534409
  60.8306656  29.7344017  50.5099106  60.4143791  28.9580135  50.8842888
  61.5925217  29.8903294  51.0680275  30.1272354  16.9702091  86.1127777
  29.7470589  16.1320133  86.3756943  31.0233040  16.7558899  85.8532410
   8.3488722  46.1073036  52.2777252   8.3310995  46.2892456  51.3381424
   8.4404488  45.1562653  52.3358345  45.9601669  54.5028687  27.4857311
  46.1824722  55.4074326  27.2653179  46.5829239  54.2636299  28.1721478
  64.3676376  43.0757408  57.7299843  65.1059265  43.4961014  58.1709595
  64.3856888  42.1710815  58.0422325  85.9522476  65.0572128  24.8232822
  85.1160736  64.7800217  24.4488335  86.4375534  65.4208069  24.0826664
  43.6532021  21.4223156  74.0075150  42.8085136  20.9799957  73.9233627
  43.6184692  22.1295013  73.3633728  65.1738739  47.1309738  44.8637581
  65.8721848  46.6353645  44.4360085  65.5838394  47.9609108  45.1074028
  22.2181034   8.3991213  83.3994522  21.4702282   8.5838013  83.9676132
  22.4020309   9.2330151  82.9669876  57.7252655  56.2413864  52.0554543
  58.1192474  56.5120239  51.2261391  58.0633469  56.8666306  52.6965523
  82.6132965  64.9094315  70.0391235  82.3210373  65.7346420  69.6520233
  82.2027512  64.8917542  70.9036331  31.3469734  64.7344589  80.3203735
  31.6091385  65.0702438  81.1775513  30.5012169  64.3141785  80.4762192
  58.6906967   2.4331169  78.1323776  57.9415970   2.9477627  77.8320007
  59.4522972   2.9734592  77.9220810  50.1651459   2.2650247  79.2850418
  50.3674622   2.2570767  80.2205811  50.6536751   1.5233263  78.9280319
  56.0037117  30.0686893  71.5957642  56.5656548  29.2947044  71.6331635
  56.1839218  30.5351772  72.4119415  63.9727936  51.9284325  40.5576820
  64.8831787  52.1608963  40.3749619  63.6534386  51.5492821  39.7388458
  35.5104408  24.7804527  17.4002151  34.8414955  24.8829460  16.7232819
  36.1465721  25.4712582  17.2148590  30.3738270   1.4093325  21.3243275
  29.8015652   1.8530043  21.9503498  30.3243656   1.9454817  20.5329189
  52.3672829   4.8778715  81.9181900  51.8372192   5.6605902  82.0685806
  52.7107658   4.9879274  81.0315475  67.0324860  44.5660973  46.3455200
  67.7380142  43.9656258  46.5861435  67.0503922  44.5855179  45.3886871
  24.1729546  45.9268188  53.1993790  24.1499577  46.6665459  52.5923309
  25.0284462  45.5232239  53.0528259  77.6923523  69.3009872  15.2956657
  78.6373749  69.2377167  15.4340734  77.4651260  68.4994965  14.8242798
   4.0085630  64.6992188  39.8184280   4.3332191  65.4772110  40.2718201
   3.1516631  64.9592056  39.4802513  42.1800499  15.0850286  43.6739044
  41.8839874  15.1068840  42.7639008  42.3182869  14.1560364  43.8585510
  42.6991119  44.3426895  83.8821945  43.0262909  45.2420731  83.8649445
  43.3926086  43.8275909  83.4699249  44.2781715  10.4053402   5.5255017
  43.7930984  10.5905800   4.7213759  44.5894241  11.2612686   5.8200240
  56.9124832  15.4941912  34.5248871  56.2650032  16.0295429  34.9835815
  56.4516182  15.1723928  33.7501106  19.8307076   9.6882515   7.1973872
  19.4153290  10.4925337   7.5085492  19.2879982   9.4080486   6.4603772
  11.4785757  54.9163361  25.4822254  11.0993013  54.2323227  26.0340481
  11.2368002  55.7349815  25.9153442  78.2093353  37.2617607  83.7115021
  77.2823257  37.0893707  83.5466690  78.5156479  36.4896545  84.1871719
  16.0992012  67.4489822  26.7500076  16.0758419  67.5328827  25.7967777
  16.4434032  68.2881317  27.0559406  56.5194511  58.0279388   3.3001335
  55.7337303  58.5503578   3.4612341  56.1882858  57.1515884   3.1037352
  68.9572525   1.1371468  39.1429405  69.4087143   1.5242637  38.3929062
  69.6423416   0.6673217  39.6184883  33.1471443  26.1254883  72.1218567
  33.3114128  25.2082214  72.3406448  33.9825478  26.4433422  71.7793655
  62.4919472  11.1757212  18.8546906  62.1091690  11.7099905  19.5505848
  63.0293999  10.5314817  19.3154831  79.2763901  20.9019470  28.3116703
  78.9170456  20.2744846  27.6844597  79.5914230  20.3621826  29.0366802
  31.9782238  24.6424809  17.7508240  32.4725800  24.5859776  18.5685349
  32.5528793  25.1247940  17.1563683   1.5401392  45.8474960  49.5428238
   2.3351855  46.3796692  49.5732574   1.8209364  44.9804611  49.8354568
  83.0010147  37.0941162  22.7755413  82.2764053  36.5028305  22.5716972
  83.3291779  37.3742599  21.9211044  47.8133926  32.2400169  69.3457336
  47.8486900  32.3173828  68.3923187  48.3134346  32.9909134  69.6656342
  60.8686142  26.2507744  73.6540298  61.6725845  26.1368999  74.1608810
  60.2588959  25.6132793  74.0256195  37.8649178  31.9939346  72.2323608
  37.8682556  32.7658348  71.6663284  38.6064606  31.4706612  71.9281693
  70.2344818  27.1650562  46.3902588  69.3056183  26.9841290  46.2463417
  70.6490250  26.3022804  46.3924179   6.4742236   1.2835765  12.9796686
   5.5739274   1.0407687  13.1958714   6.8692503   1.5122526  13.8210325
   4.2502952  68.5099335   6.4227018   3.7118483  69.0081558   5.8078184
   4.8934784  68.0643845   5.8713102  37.2610092  41.0758553  18.8295727
  37.3696861  41.8713722  18.3084412  37.3459511  40.3620262  18.1975422
  77.8010864  26.0356045  67.7895737  76.9647827  26.2443256  67.3733215
  77.7217560  26.3875103  68.6761932  77.7982483  52.4323349   8.9726791
  78.4147949  52.4804001   9.7032957  77.9337997  51.5603485   8.6018658
  44.2374725  40.3516350  28.1126137  43.8159370  40.8615723  27.4208736
  45.1657982  40.5741310  28.0423527  33.5896378  60.8028069  44.2513885
  33.6216011  59.9645195  44.7123451  34.2483368  61.3420677  44.6890488
  60.8690681  57.1978836  79.4769745  61.5407333  56.6803551  79.0328293
  60.6538925  57.8941803  78.8564072  50.5717010  67.3611069  45.5979652
  50.4775314  67.4283600  44.6477852  50.8974457  68.2197952  45.8677406
  60.5265541  31.7296448  14.8477697  61.1909256  31.0545654  14.7095213
  59.6938629  31.2604637  14.7955542  43.8255806   9.4430361  68.4783020
  44.6443634   9.5395317  67.9919739  43.1637878   9.8444462  67.9151611
   1.1895927  17.8192921  77.0017776   1.0573785  18.4513321  76.2951813
   2.1022716  17.9403038  77.2637024  80.5986557  12.0789528  25.9818687
  81.1864548  11.3448076  25.8036652  80.2383423  11.8923101  26.8488007
   0.4078341  24.0154667  56.4665031  -0.3250991  24.6079865  56.2992859
   0.5644365  23.5850525  55.6259956  41.9128075  38.2634659  23.2818909
  41.4118385  37.7705040  22.6320839  42.1418152  39.0802803  22.8384933
  70.3700943  12.7137823  54.3607674  71.1967010  13.1923199  54.2978897
  70.1639557  12.7135944  55.2955093  61.8341064  23.3480339  60.8110962
  61.2616653  23.2259960  60.0537033  61.4956322  22.7393093  61.4676971
  23.2322292  20.9710312  87.0528107  22.8326187  21.4786091  86.3464813
  24.1736145  21.0382328  86.8930893  81.7260742  38.4130287  63.7717361
  82.4486618  37.7907143  63.6891594  81.6397171  38.5561028  64.7142334
  70.6384735   8.0466614  10.5318918  70.6175003   8.9902973  10.3726959
  71.1593094   7.6935925   9.8105745  62.1686211  65.6445999  82.7731628
  63.1158791  65.5987854  82.6434021  61.7987976  65.4221725  81.9187698
  83.0386353   2.6558037  16.3756847  82.4540024   2.2411363  15.7412596
  82.6490173   3.5156524  16.5340805   8.3951349  41.6500893  21.9011726
   9.1117220  42.2802162  21.9765263   7.6445537  42.0924149  22.2976685
  18.7276611  32.6225929   1.9353137  17.9206867  32.2052994   1.6338389
  18.5655975  33.5602646   1.8316759  72.9669800  48.4694290  50.3670273
  72.3349228  47.8459816  50.0091743  72.6810837  49.3192902  50.0320168
  54.6891174  14.9770308  70.5747375  55.0637054  15.8138638  70.2997360
  55.1157455  14.7866459  71.4101868  41.2168732   7.6693740  43.1592102
  41.3921242   8.5715723  43.4267120  40.6367111   7.7523494  42.4024010
  34.5782585  23.3914089  79.4977798  34.7535706  22.9410496  80.3240204
  35.1878662  24.1293697  79.4932022  10.0922871  56.9850922  26.5891190
   9.3751793  56.5469131  27.0473633  10.0109024  57.9049530  26.8410435
  41.6629868   3.7572615  76.4733276  42.3249931   3.9739261  77.1298599
  41.3304138   2.9008784  76.7420959   5.2187858   5.5927181  27.0241756
   5.3039651   6.5305333  26.8524818   6.1205449   5.2767272  27.0808506
  41.5582581  62.8200722   5.4254408  40.9168053  63.5136681   5.5793695
  41.9076958  62.6199799   6.2938237  44.5227470  28.7213612  72.4181213
  44.1400681  28.8214970  71.5464783  44.7621193  29.6108952  72.6782379
   7.0008059  42.3617554  14.6501780   6.4739780  42.9847260  15.1507664
   6.6682496  42.4315681  13.7553234  80.7373428  56.8575897  36.6700554
  81.6608353  57.1082993  36.6467590  80.7181320  56.0635338  37.2042236
  14.1691389  50.9203720   5.7512069  15.0421848  50.9792595   6.1392212
  14.3286562  50.6855621   4.8370676  71.2593918  33.9943504  12.0728426
  70.8011780  33.9031715  11.2374039  70.6487198  34.4775581  12.6294613
  76.6834259  16.9109631  18.7892857  77.3806152  16.5839367  19.3578053
  76.2502289  17.5892601  19.3074398  61.6191711  37.5809860  50.1976776
  62.4138603  38.0729065  49.9910049  60.9789124  37.8775024  49.5508575
  74.8768692  70.1411514  71.1466675  74.7464371  70.8995361  71.7159424
  75.5366440  69.6140442  71.5973206  61.6424217   1.2771839  73.3156204
  61.9136429   0.3999423  73.0452118  61.1591187   1.1380594  74.1300507
  84.1434174  11.8915005  32.5127602  84.7123260  12.3653984  31.9061298
  83.3631287  11.6855392  31.9980202  71.2396927  63.9932518  53.7909050
  71.7907028  63.3577385  54.2477913  71.7552567  64.7997360  53.7891350
  12.5136013  43.8190193  72.3642197  12.5621605  43.7374306  71.4117355
  11.6561661  44.2119064  72.5275497  25.2892666  21.4313717  67.3482285
  25.4893169  22.2700768  67.7639008  25.2000523  21.6401653  66.4183426
  82.6058655  56.6224480  75.0124741  82.7778168  57.4093361  75.5296555
  82.8867035  56.8519363  74.1266479  86.4849930  65.6403732  55.5342712
  87.3293762  65.3126373  55.2246742  86.6544571  66.5519714  55.7719765
  79.8254166   8.3300533   5.4174361  80.1054916   8.3943129   6.3304839
  80.6149826   8.5200500   4.9107666  69.4561691  17.1266117  83.6088181
  69.3996429  17.4612122  82.7137833  68.6952591  17.5008125  84.0529175
  17.2414894   7.0672216  13.2383232  17.6200848   6.3909030  12.6766376
  16.3247471   7.1178045  12.9676647  85.7168884  13.0189085  53.6472702
  85.1266632  13.0610638  52.8948784  86.5715408  13.2680216  53.2954979
  74.6891251  58.1999092  23.7178307  75.2125549  58.9928665  23.8338966
  73.8580856  58.3960381  24.1504250  65.6654739  40.4706459  35.7416306
  65.0552521  40.2547874  35.0364571  66.0197372  39.6257210  36.0188141
  71.7292252  22.5568562  70.9070511  72.6658325  22.3599110  70.9215546
  71.6224747  23.2604103  71.5472412  33.1492119  36.2931671  23.9981556
  32.9052925  36.2319145  23.0745831  33.7967644  35.5991058  24.1213970
  34.7489319  47.4499779  61.1075134  35.4895935  47.0705109  61.5804405
  33.9968758  47.3002586  61.6804237  71.4361801   7.4056149  74.5934601
  72.2922211   7.5779462  74.2013779  71.1924591   8.2325001  75.0095062
  60.7455139   5.1234241  31.4392776  61.6990013   5.1418824  31.3570862
  60.5276527   4.1928544  31.4922733  77.0251541  33.9834633  82.0149307
  77.7207031  33.9423447  81.3586121  77.4606094  33.7666893  82.8393173
  74.9325104  12.9400578  38.7402878  74.9702606  12.3000374  39.4510498
  75.8072586  12.9188986  38.3522148  57.6662636  53.4944916  59.2700577
  57.1248970  53.4952011  60.0594559  58.4484062  53.0007629  59.5164719
  25.7816010  60.3112793   0.8416867  25.0752392  59.8249283   1.2668284
  25.4517021  61.2077026   0.7797973   4.3182535  70.2956924  51.2863731
   4.7369223  71.0806732  51.6395912   4.6572227  70.2243729  50.3940468
  51.0643616  53.1668205  51.8655090  50.3050690  53.4209900  52.3900146
  50.8208694  53.3909149  50.9673309   0.6062888  31.4118690  23.7879162
   1.2062707  31.4625988  23.0438194  -0.0263392  32.1134720  23.6337528
  38.8635788  41.7222939   8.2769165  38.2194176  41.3498497   7.6747746
  38.4520264  41.6565094   9.1386175  56.9136467  39.2196503  11.8407278
  57.2745476  39.7669449  12.5381889  56.0200882  39.0275536  12.1251259
  48.8315620  56.7429619   4.3342361  48.4582596  56.8831863   3.4640548
  49.6649284  56.3019753   4.1691298   4.3586135  39.0770454  36.8068352
   3.6249018  39.5722618  37.1710663   5.1309261  39.5998459  37.0223541
   1.0761698  68.6007690  88.5362854   1.3482023  68.1664429  89.3447342
   0.6608660  69.4122086  88.8283768  50.6034927  57.9934502  82.8803482
  50.2895050  57.4642296  82.1471634  50.9880028  58.7677612  82.4694748
  15.4754496  17.0013237  12.7295828  15.0677433  16.3698902  13.3222876
  15.6263485  16.5093613  11.9224682  58.7587090  32.2318954  83.0231400
  58.4499779  31.7709389  83.8031616  59.7008514  32.0639915  83.0028992
   4.0412664  56.2293701   8.8590975   4.0303750  55.2810745   8.7293053
   4.6455264  56.5554695   8.1921940   0.0742662  27.7895279  45.0846863
  -0.4174127  27.8757935  45.9014130   0.5301292  26.9518738  45.1668930
  55.7952309  10.1359777  53.4226303  55.6385269   9.2454882  53.7368011
  56.4013977  10.5119610  54.0609322  41.6364288  33.4016304   5.0605526
  42.3726654  33.0888100   4.5348840  40.8633308  33.0325890   4.6335158
  72.0408936  55.5870056  47.0351143  71.4802399  55.7260284  46.2718506
  71.6273575  56.0964470  47.7320328  85.7922211  10.0937614  42.6636848
  85.7194748  11.0480280  42.6814232  86.6118240   9.9074793  43.1217003
  23.4008865  38.2944107  88.4587860  23.1750278  38.3119087  89.3887939
  24.2186661  38.7885742  88.4015808  51.3985672  14.1568985  74.9313431
  51.0402031  13.3070631  75.1874390  52.2831001  14.1638985  75.2971115
  51.3375206  45.7294312  46.1350632  52.0535660  46.1148911  46.6399689
  51.7683105  45.1215057  45.5341644  30.8832741  47.6820374   3.9797871
  31.8236256  47.6074181   3.8172967  30.5107117  47.9126282   3.1287539
  33.1216011  49.7248001  34.3210182  32.9454613  49.8620453  35.2518082
  32.5531387  50.3523407  33.8746071  30.9483166  10.5500946   3.3134856
  31.2256870  10.4126940   2.4077160  30.6097603  11.4453182   3.3271215
  63.7806358  62.8061600  24.0622444  64.6112137  63.1152802  23.7005596
  63.4726410  62.1547737  23.4321079   8.1901808  53.6858139  43.7524643
   7.3120751  53.6672592  44.1330147   8.6550779  54.3545456  44.2553596
   3.9420831  25.3486290  31.3904305   3.5934794  24.4594612  31.3264904
   3.1967421  25.9133759  31.1860809  62.0233841  63.1477776  28.1476650
  61.9230309  63.4857178  27.2577457  61.1420212  63.1858177  28.5191212
  79.7106476  37.1054840  15.8070011  79.9566040  36.6076202  16.5866604
  80.2914352  36.7776489  15.1203842  81.9645004   7.5083404   0.2704847
  81.8964386   7.2516804   1.1901177  81.4449844   8.3097296   0.2063986
  13.2307777  35.2615204   9.4796839  12.6705999  34.5057755   9.3028154
  12.7280502  36.0117569   9.1624432  74.1509323  20.7376747  44.9959297
  73.8327713  20.3576126  45.8148079  74.3236847  19.9831200  44.4328728
  67.2289963  18.0835838  39.5340538  66.3801193  17.6688213  39.6877174
  67.6793594  17.4914436  38.9317474  30.1408291  67.7766571  77.6720276
  30.2675419  67.5077057  78.5818787  30.6948547  68.5507584  77.5717163
  69.4030304  64.0533829  46.8742599  69.4786453  63.4589462  46.1278305
  68.9664688  64.8281479  46.5201721   1.1418028   3.2908061  10.4756384
   1.7189115   4.0544500  10.4806509   1.7113192   2.5586355  10.7118769
  29.9968891  65.4089279  30.1291809  29.7893257  65.9490356  30.8917007
  29.5325794  65.8285522  29.4049091  77.4875717  29.8642178  50.7122955
  77.7420654  29.0124607  50.3573685  77.4076538  29.7168064  51.6546936
  31.4906425  36.8939323  82.4133453  32.0674782  36.1310883  82.3737869
  31.2197647  37.0366707  81.5064392   0.9622440  59.9866371  10.9661913
   1.5288037  59.2151604  10.9580441   1.5570328  60.7189026  11.1282034
  41.5643387  38.2847672  29.5174255  41.8857498  39.1695862  29.6906986
  40.9496422  38.1094246  30.2299118  74.2572556  21.9171581   7.6539083
  73.6455231  22.6532574   7.6407642  73.8020706  21.2190170   7.1831250
  74.7066879  49.1356354  52.5311394  74.2023773  49.1926994  51.7195663
  74.4859619  48.2762909  52.8903618  71.7134171  37.0396843  54.6741409
  71.9403229  37.1730957  55.5944405  71.2490997  36.2027512  54.6608315
  63.6680679   9.5272436  75.2796402  63.6513901   9.2288990  76.1890030
  64.0448914  10.4060936  75.3227768  37.2770081  65.1372299  32.0277786
  37.3225861  64.2047424  31.8165417  37.5819321  65.5776901  31.2345295
  77.2683105  24.1429138  84.0604553  77.9260101  23.5303535  83.7311630
  77.7716370  24.7968655  84.5454712  41.9100037   3.7934446  23.1167564
  41.9044380   2.9925959  22.5925026  41.3247948   4.3896451  22.6495228
  12.3630390  30.1962605  77.4756546  13.1341648  29.7297249  77.7980499
  12.2919970  29.9356556  76.5573502  47.1768990  12.1949148  51.7411728
  46.8138351  12.1813908  52.6267395  46.4194107  12.3386869  51.1739235
  55.4783783   0.7830293  11.9711885  55.7730446   1.3047879  12.7176285
  55.8893204   1.1971703  11.2123432  30.5659466  48.2946815  71.2702026
  29.9702950  48.0792847  70.5525436  30.1164227  48.9868660  71.7550125
  40.0396271  56.7408905  32.1175957  40.6556549  57.4726143  32.0811844
  39.9251328  56.4785156  31.2042046  52.3663406  30.4390430  85.6963882
  53.0946884  30.2226887  85.1142120  52.3845520  31.3940811  85.7580490
   7.7560592   6.8333874  53.6209869   8.5810537   6.3707952  53.4739342
   7.3889136   6.9526544  52.7450790  56.2084160  58.9083252   9.5189486
  55.5974312  59.5403137   9.1401167  56.2973328  59.1792488  10.4326925
  86.3636017  29.2676659   3.1612847  87.0579453  28.7416306   2.7645366
  86.6206512  29.3501453   4.0796289  36.1755295  62.5546532   5.3344374
  35.2653427  62.3993797   5.0820937  36.6806908  61.9459534   4.7954273
   6.5208106  33.8240013  63.1823311   5.8975844  33.3548470  63.7370529
   5.9892240  34.1727867  62.4667931  41.3207512  68.9839478  88.2726440
  41.1781731  68.1121902  87.9039383  42.0878220  68.8831024  88.8362656
  41.6316566   6.0290337  88.2346878  41.0786858   5.8241615  88.9886703
  42.0067825   6.8857493  88.4385300   0.3288374   6.5661559  82.3265610
  -0.5833521   6.3609929  82.5316238   0.7685046   5.7160025  82.3137817
  24.3809261   2.2435830  47.5696907  23.9550991   1.9432997  46.7667351
  24.8444881   1.4729717  47.8975601  30.3041496   4.8133874  79.6671982
  30.3763428   3.9283946  79.3096924  30.7822495   4.7767849  80.4956360
  67.4624786  51.3838692   6.5466495  68.2893600  51.5229492   7.0083375
  67.7209091  51.0474663   5.6885805  79.8829117   4.4226418   7.5519047
  79.3113251   3.6548846   7.5602489  79.4216766   5.0586939   7.0051570
   5.3042970  43.0993881  37.5746689   4.3588004  43.2058220  37.4700737
   5.6439338  43.9937439  37.6064377  58.8074837  62.8806000  28.9569969
  58.7136269  62.1791649  28.3124733  58.9304543  62.4255104  29.7900677
  47.3358307  54.2400055  64.4239807  46.7452812  54.0490150  63.6952782
  47.6542130  55.1254807  64.2484970  12.3319006  37.7126732   8.6561060
  11.6964960  37.9945717   7.9980578  12.8111162  38.5095634   8.8831491
  45.9109459  62.7260361  54.7856369  45.0094261  62.4191475  54.8821297
  45.8250694  63.6378937  54.5074730  31.1341438   5.5206475   7.7023997
  30.8620834   5.0187244   6.9340973  31.6504612   6.2434597   7.3457627
  60.5195580  19.6966801  88.2376328  60.2035828  20.5908146  88.3676758
  61.4261856  19.8025780  87.9494476   6.9367824  45.8850441   2.7580080
   7.5179944  45.3845024   2.1853971   7.0089788  45.4531708   3.6091855
  79.5491714  10.4678917  57.5559769  78.8662415  10.1657724  56.9571762
  79.0992661  11.0709753  58.1476784  28.1406746  60.9509468  17.7248859
  28.3090782  61.3555450  18.5758667  28.9467716  61.0927048  17.2285557
  23.5932159   7.6408844   0.6603380  24.3553162   7.1602592   0.9835012
  22.8791447   7.0040283   0.6877066  37.1126480   9.4939861   1.9537987
  37.6642876  10.1465540   1.5224246  36.3344078   9.9803696   2.2258413
  17.8856316  39.9874191  76.1079483  18.7459660  40.2884369  75.8156357
  18.0369473  39.6510620  76.9912338  75.0900269   7.3370905  67.3857346
  75.5889130   7.5126767  66.5879135  74.2788925   7.8331242  67.2750473
  20.4905853  41.6882668  77.7695618  20.5799637  41.3307686  76.8861313
  20.0624409  42.5349884  77.6431122  71.6529846  33.2774963  61.3987656
  72.0615463  33.9743385  60.8852310  71.8242493  33.5189056  62.3090477
   7.0850730  43.0564995   0.4859830   6.3721752  42.5962219   0.0430889
   7.1919060  43.8674774  -0.0111421  77.1190948  57.7613525  38.2218895
  77.4217758  57.4145126  37.3826523  76.8759537  56.9860077  38.7278099
  37.6618690  17.8995647  84.7678528  37.0037498  18.4734955  84.3757935
  37.2311325  17.0468292  84.8273468  71.4117737  50.9711952  20.5763168
  71.9073944  51.7166595  20.9152451  71.5758743  50.2685776  21.2053070
  22.3482285   2.0575197  59.4646988  22.3537388   2.7961729  58.8559380
  22.6955185   1.3250433  58.9556808  16.4322338  53.3315086  33.2499352
  15.5398493  53.5329971  33.5315094  16.3233871  52.8849182  32.4103241
  69.5482483  48.2798309  81.6015167  69.8859329  48.0739136  82.4731827
  68.5971832  48.2895279  81.7092438   4.2186866  71.4352570  79.4917679
   4.8945689  71.2293091  80.1375275   4.5460038  71.0597610  78.6744003
  48.7893791   7.3294806  40.0138092  49.5710449   7.8678851  39.8899117
  48.7273102   7.2119069  40.9617310  76.1724548  14.6335096  35.1102371
  77.1256714  14.5754013  35.0451775  75.9948807  15.5701933  35.1958237
  47.5034065  11.9819145  68.2037201  46.7495346  11.4049692  68.0810699
  47.6911316  12.3201246  67.3281631  63.4119568  17.0071354  45.0090523
  62.4992714  16.7467728  45.1333427  63.5529938  17.7008457  45.6533394
  10.3888350  61.5552025  68.0654297  10.6467543  61.9377403  68.9041061
   9.8525000  60.7985344  68.3021469  59.1181488  18.8233318  14.9713564
  58.6577225  19.6560001  14.8669434  58.4248810  18.1633987  14.9613285
  63.0511742  44.0147057  45.2858696  63.4873962  43.3930359  45.8685112
  63.6516113  44.1121445  44.5468063  11.5474482  51.1510735  84.0880051
  11.3978910  50.4754181  84.7493362  12.3335247  51.6085091  84.3864517
  80.9640503   0.2085299  25.2559242  81.4356537   0.6649488  24.5591431
  81.4599075  -0.5988942  25.3916664   0.5583426  20.5269585  59.2722397
   1.1668710  19.8055801  59.1124344   0.5362112  21.0092030  58.4456940
  63.7056351  23.8807240  26.5030308  63.8908081  23.1613922  27.1067715
  64.5682983  24.2117157  26.2530689  31.7353363  65.1774216  14.5909138
  31.3663330  64.3480530  14.8945932  31.4368153  65.8217010  15.2327995
  79.4926376  68.9275208  21.3607845  79.8167496  69.1142960  20.4797058
  80.1286545  69.3430710  21.9430447  53.8418961  59.1009979  64.1465988
  53.3845825  58.9907188  64.9802246  53.7704468  58.2473679  63.7194595
  68.1032562  50.8522301  74.4618301  68.0105667  50.2181778  73.7507553
  68.7274017  51.4967194  74.1282043  82.5234299  25.1049671  87.9445267
  82.9169312  24.9477730  87.0862274  82.3699722  24.2301788  88.3014908
  60.1266785  18.1490860  50.3834839  59.5723991  17.3870125  50.2154083
  59.9955978  18.7133274  49.6214600   3.3075006  65.4846725  43.3026276
   3.9159284  65.8340073  42.6514664   3.3986900  64.5345840  43.2302055
  61.3720169   3.9990387   5.3362474  61.1752586   3.1131055   5.0318780
  62.1724014   4.2402573   4.8699565  19.1713753  68.4168854  74.5270462
  19.6589928  68.5400925  75.3414688  19.3744488  67.5205307  74.2595596
  62.3265533  27.9309864  28.3007545  61.4449043  27.7938175  27.9541836
  62.8133392  28.3154640  27.5717506  19.8286037   9.3216057  13.6096668
  20.4219646   8.6674099  13.9786959  20.3711300  10.1026392  13.5006599
  51.8180695  41.3312531   2.7189596  52.6801338  41.4314728   3.1227334
  51.2202034  41.2127419   3.4570291  55.3529739  52.2565155  73.0171432
  54.9842567  53.0684853  72.6693115  55.3908310  52.3966637  73.9632721
  40.9241905   3.3046446  81.4680023  40.9327507   2.3509653  81.5495834
  39.9971466   3.5300937  81.3905411  75.6263428  39.2767792  12.7432671
  75.2611542  38.8751411  11.9548807  75.0094986  39.0454025  13.4376707
  47.2081108  46.3823013  39.2477608  46.9063797  46.7727013  38.4275284
  47.9706383  45.8602409  38.9982834  70.2275543  18.9496384  18.4910316
  70.2994919  18.0048199  18.6265869  70.6281586  19.3346176  19.2704792
  68.6742783  57.7433128  22.4224358  69.4543304  58.2914734  22.3371868
  68.8453598  56.9930840  21.8531208  84.5941086  43.7203217  53.0103569
  85.2548676  43.8974152  52.3408279  84.8648682  42.8890495  53.4001122
  31.6915493  52.6061516  60.9449005  32.5776749  52.3127899  60.7328796
  31.5870705  52.4006233  61.8739204  49.9304771  62.3038864  79.5363159
  49.8733406  61.3505936  79.4715118  50.7418137  62.5267754  79.0799332
  76.8734894  25.6103039  72.5796204  76.5977173  26.1913624  73.2885284
  76.9453659  24.7487144  72.9903870  11.4035225  54.1535416  70.9381027
  11.0776834  53.6965981  71.7135162  10.7732124  53.9381905  70.2506714
   3.4953837   6.7923446  62.9234390   3.8833385   6.0684896  63.4151268
   2.9670901   7.2635584  63.5677185   9.7067547  36.4148750  61.2221565
   9.4758759  35.8085060  60.5184212   9.7804928  35.8620453  62.0000839
  79.3073959  34.1338959  22.0428467  79.3452911  34.8186989  21.3751335
  80.2120056  34.0401611  22.3414021  20.7611885  68.9448166  51.9730873
  21.2766781  68.2349701  51.5901680  20.0440311  69.0809937  51.3539162
  38.0639267   7.1967969  35.7708244  38.1053123   7.9205828  35.1458015
  37.2993088   6.6891050  35.4990807  71.5251083  53.9337311  14.1350241
  72.3514404  53.4513359  14.1614666  70.9070969  53.3279266  13.7260008
   3.5788980  28.0579319  76.6031876   3.4872913  29.0071602  76.5206833
   3.8359079  27.7652149  75.7288284  56.1397438  61.9174232  87.4087753
  55.2800522  62.3380928  87.3947144  55.9711571  61.0393257  87.7504654
  37.7071075  64.3726349  54.3945427  37.1329002  64.9252396  53.8643112
  37.9948044  63.6828613  53.7964783  49.3511658  61.8464928  54.5980148
  49.9809113  61.4551353  55.2034035  48.5075264  61.7619858  55.0422630
  30.6267738  26.4150581  70.6546402  31.2061996  26.6804562  69.9404526
  31.2079239  26.3092785  71.4078369  50.9626503  39.6915588  74.6952515
  50.7667923  39.8940735  75.6100540  51.4003220  40.4760323  74.3646774
  39.6608582  57.4605141  26.2051125  40.4194641  57.2236176  26.7386169
  39.6793976  56.8423462  25.4745293  62.6736221  19.2474976  78.0911026
  62.9150848  19.5493469  77.2154236  63.4850235  18.8926182  78.4543152
  29.1158199  43.5816536  76.6476593  28.7823124  42.7557678  76.9982529
  30.0586853  43.5469933  76.8090057  36.7740364  66.7700043   5.3153291
  36.6828690  67.6807480   5.0351877  36.2887230  66.7230682   6.1390386
  13.7398710   3.2563715   7.1543255  12.9730482   2.6879137   7.0831213
  14.1104279   3.0522587   8.0129623  59.9410019  55.6442833  11.5089283
  59.8909302  56.1577454  12.3152037  59.1083450  55.8105049  11.0670195
  54.2170372  55.3207130  40.7810287  53.2928886  55.3276176  40.5317764
  54.6702347  54.9773331  40.0110054   6.4898205   8.4011850  73.7913971
   6.5497909   7.4469733  73.7454071   7.2999606   8.6715288  74.2236252
  25.6875191  45.3447838  13.9729290  25.0009117  45.1023750  14.5942516
  25.3750000  46.1576767  13.5757322  58.3889198  31.7751160  62.0090523
  57.8173485  31.3046074  62.6158104  59.2734032  31.6072617  62.3342400
  52.7716217  69.0444870  77.6311493  52.3226242  69.5499496  76.9535446
  53.6867981  69.0284424  77.3510971  65.8189011  60.3951645  84.6373367
  66.3579865  60.0043793  83.9496536  65.3784866  61.1289062  84.2085114
  21.0525455   3.3392141  24.6591244  21.3779716   4.1349440  24.2382393
  20.1038074   3.4599380  24.6985168  62.1079063  63.4461288  62.9507217
  61.4615784  63.0293236  62.3808403  62.2842407  64.2903824  62.5355492
  64.8687210  12.8050032  72.5722656  64.5792160  12.0016584  73.0047684
  65.4235229  12.5032129  71.8529968  64.5324936   5.7707996  39.3173294
  65.3167114   6.0580349  38.8496437  64.7266312   5.9428344  40.2387123
  66.8737793  43.7083664  33.9269142  67.6868057  43.8783760  34.4026451
  66.1977615  44.1468239  34.4436264  76.4443054   3.2070796   2.8942928
  76.4939270   2.3212173   3.2534831  77.2911148   3.5994825   3.1068151
  85.2082901  35.1061020  34.1941032  84.6252136  34.9377174  34.9343071
  86.0882416  34.9782295  34.5484467  40.3902283  51.8634644   7.7519512
  40.3525505  51.6627693   6.8167868  39.6271973  51.4203262   8.1229534
  62.2883224  70.4004898  68.0470657  62.6850777  70.7393341  68.8495560
  62.9352341  69.7855911  67.7011719  86.3427277  12.4484787  56.1827812
  86.1738586  12.6239100  55.2570724  85.6796951  12.9585257  56.6480484
  38.3199768  50.2434769  41.5065002  39.1250229  49.7282028  41.5576897
  38.4026222  50.8874130  42.2098846  22.2300396  37.4795036  24.0918159
  22.2160950  37.1919899  23.1789227  22.5018520  36.7041931  24.5829811
  68.5063019  64.3262100  84.3709412  68.3778305  64.0783386  83.4553604
  69.1788788  63.7244225  84.6898880  41.0391808  39.6686630  11.5743628
  40.5037766  39.9735909  12.3068895  40.4049339  39.3924522  10.9127979
   2.8148675  67.8325577  81.4441299   3.5411882  68.4473190  81.5478439
   2.1673081  68.1157990  82.0896301  65.3248520  47.7143135  12.2773676
  64.9712143  47.0414124  11.6956692  65.2030411  48.5336647  11.7977295
  56.2848625  52.1780663  82.1106110  56.4736443  53.1164246  82.1192474
  56.9212570  51.8113632  81.4967957  82.2636871  16.1442852  13.9261780
  81.9679184  17.0535450  13.9708710  82.1105118  15.8870049  13.0170174
  15.6280298  33.5350189  12.7926588  15.2919121  34.1621094  13.4329815
  16.5721607  33.6918335  12.7766371  26.3167839  45.1127014  68.4311829
  25.6328678  44.8435440  69.0444107  26.2776623  44.4636002  67.7287827
  86.1249466  36.5728111   0.5226324  86.8021927  36.0735741   0.0661940
  86.2256622  36.3277168   1.4424248  66.0301208  12.0117226  60.1789932
  65.7194977  11.1820164  60.5413971  66.9139252  11.8201427  59.8652878
  47.6587334   7.3070579  58.3362427  47.8110428   8.2098761  58.0570412
  46.7098961   7.1951284  58.2778320   8.9609995  13.9055243  81.5411987
   9.1687927  14.7696819  81.1858292   9.4215813  13.8742981  82.3797150
  64.4257812  28.4588127   3.6164529  64.7194366  29.3038673   3.9568636
  65.2297668  28.0203133   3.3379681  58.9126892  50.5564003  74.3123703
  58.7705269  51.3808022  73.8471985  58.8077240  49.8816986  73.6415558
  31.3239136  56.0834541  52.5578651  31.9633923  55.4610748  52.2115402
  31.7172146  56.9422264  52.4027634  37.1517563  62.5825157  31.1462803
  37.5494843  61.7653313  31.4466972  36.2546310  62.3415337  30.9153461
  59.3320961  58.7158661  29.9379158  59.7260971  58.8456841  29.0752773
  60.0590324  58.4342117  30.4933167   0.0094318  34.8049316  46.1528549
   0.1204060  35.7456284  46.0149727   0.7337214  34.4051971  45.6713486
  27.4184456  32.9297447  10.4071684  28.1807098  33.4781647  10.2216492
  27.7425423  32.0329666  10.3235960  62.2747231   7.1509504  33.8226509
  63.1959076   7.0730567  34.0708046  61.7937393   6.9957185  34.6355400
   3.5113332  13.6297388   2.6023688   4.3075738  14.0144730   2.2360194
   3.8255391  13.0142336   3.2646830  18.9770679  57.3370705  76.8653259
  18.7473450  56.9440346  77.7073364  19.5838966  58.0430107  77.0881271
  55.6869202  19.5021915  39.0388298  55.8502617  19.7922344  38.1413765
  56.2302170  18.7207184  39.1406097  65.8737030  35.0421906  76.6171417
  64.9661255  35.1900902  76.8829498  65.9736328  34.0902596  76.6254959
  10.8089170  27.7387886  64.5759201  11.1409473  27.7874908  65.4723663
  11.2407417  28.4618130  64.1209564  51.2361908  47.5491524  59.8535919
  50.7216339  48.0930862  60.4499092  51.8576660  47.0932922  60.4212112
  38.1708641   5.3474627  82.0099564  38.8869514   5.9513192  82.2069550
  37.6782684   5.7795768  81.3122025   2.1689599   1.3506079  61.2733917
   2.3165734   0.5488490  60.7717705   2.1053700   2.0390348  60.6113853
  65.7872772  39.4636307  75.3357620  65.8589859  39.1581001  76.2400513
  65.1603317  38.8650551  74.9297180  72.2755890  13.0469904  38.7665443
  71.8535614  13.5150108  38.0460663  73.1757355  12.9124880  38.4701118
  14.2599745  25.9694691  23.1882458  14.9614592  26.4300442  23.6487026
  14.4507475  26.1085339  22.2606144  81.6951447  18.5776768  88.8886795
  82.4863052  18.6608505  88.3563385  81.2874298  19.4427738  88.8485718
  56.7863846  26.3660450  46.0306282  56.3032417  25.8094902  46.6414108
  57.5519524  25.8457813  45.7867775  86.4433823  32.8432083  59.2741013
  85.6517944  33.3139038  59.5349846  86.1325073  31.9744263  59.0195274
  25.4981518  70.9256744  13.2634716  26.3215656  70.6010895  12.8989592
  25.0087109  71.2427750  12.5044413  75.9841080   2.4203155  52.4758759
  75.8892517   2.2840526  51.5331841  76.8147125   1.9987867  52.6964264
  59.5966110  22.8603687   3.0475330  59.2707214  23.7297306   3.2804229
  60.2995071  22.6920300   3.6750960  -0.0414611  21.2802715  62.0722084
   0.0862847  21.3566875  61.1266556   0.7167439  20.7816982  62.3768120
  56.4936485  22.2805195  28.1155071  57.1833916  22.9008751  28.3513966
  56.6256371  22.1194592  27.1812305   6.1919379  66.5178757  81.8289032
   6.7613020  67.2115555  81.4959335   6.0947847  66.7143784  82.7606659
  63.6875916  66.0280228  13.6857195  63.9009743  65.6582870  12.8289852
  63.9842606  66.9366760  13.6350660  28.8038101   6.1160774  73.5888596
  28.2457371   6.2665877  72.8258820  28.3571854   6.5675144  74.3050766
  45.0591774  44.7432480  16.0767002  44.4435501  44.0562744  16.3322449
  45.8448601  44.5651817  16.5936375  44.2736549  42.5084381  10.7697639
  43.3372192  42.3402977  10.8748684  44.6253014  42.4694710  11.6591787
  86.7669373  47.5776520  67.2469101  87.5604172  47.0797119  67.0502472
  86.0534821  47.0315323  66.9168167  28.0454254  70.9259796  45.8213806
  27.9760647  71.3438187  44.9629936  28.9845600  70.9123993  46.0059700
  36.1435165  51.8396988  76.2888412  35.5181732  51.8905792  75.5659409
  36.2669411  50.9015274  76.4331818  42.6460762  60.8721008  70.2181320
  42.2902451  60.0497856  69.8813629  42.0528755  61.1166916  70.9284286
   1.7864008  41.1125412  53.8312759   1.8161163  40.3230133  54.3716354
   2.6961415  41.2603111  53.5728798   8.3245592  60.4365578  14.0268650
   8.3016415  59.6771202  14.6090698   8.5563698  61.1690903  14.5977354
  55.2769051  65.1233521  59.8561134  55.5115776  64.1962204  59.8958893
  54.5954742  65.2266464  60.5203514  69.2126312   7.3391223  13.0004644
  68.7862701   8.1597023  13.2476339  69.7101669   7.5557594  12.2119474
   1.8487847  43.9609146  46.1427345   0.9786310  44.1761475  46.4785042
   1.9820696  44.5689583  45.4155846   6.9496584  13.5018253   9.1300068
   6.1593409  12.9707289   9.2278137   7.0187130  13.6572666   8.1880398
  58.4751358  51.7315216  80.6189117  59.2285919  51.8374863  81.1996918
  58.8573608  51.5250549  79.7659683  22.8327789  42.9409370  15.9120541
  22.4254570  42.4120674  15.2260399  22.4553032  42.6086807  16.7265186
  14.3657246  59.5880928  63.3040199  15.0189734  59.5171585  64.0000534
  13.8166056  58.8113785  63.4108429  75.6730347   7.7637143  28.2269077
  74.9433136   7.7697711  28.8463440  75.5692673   6.9446473  27.7425613
   8.6825867  45.8472176  63.7222939   8.6663542  45.6783714  62.7802429
   9.2295685  45.1486092  64.0814438  83.5019608  62.6081085  72.4671021
  83.1698151  62.4639778  73.3531799  83.0309219  63.3817978  72.1576462
  37.7085800   2.0992515  24.8131962  37.7062378   1.1436677  24.8687477
  38.5400391   2.3601537  25.2092247  79.1037445  18.5951653  67.2659225
  78.3212204  18.6150570  66.7150192  78.8340073  19.0192699  68.0805435
   0.6849110   5.7729893  36.9753304   0.9519585   6.4724483  37.5717163
   1.1682810   5.0037246  37.2766876  63.7562790  70.7690201  56.2075500
  64.0105515  71.4476013  55.5821686  63.1783333  70.1898804  55.7107506
  40.0002136  63.8139458   2.9882135  39.3174820  63.9634743   3.6422393
  39.9079857  62.8908310   2.7524550  30.3301220  55.1715126  26.3358459
  30.7047405  55.5463181  25.5387173  29.4891052  54.8088226  26.0576744
  67.5342178  49.1290779  72.3050537  68.2064819  48.7031822  71.7731628
  66.7062912  48.8318672  71.9276505  70.4406738  41.3883896  79.5196304
  70.1615372  42.2401199  79.8555908  69.6292191  40.8886719  79.4299088
  22.0376968   5.5812793  68.8351364  22.5423355   4.7840600  68.6738510
  21.9065647   5.5940371  69.7832260  67.5847473  56.1654854  45.2330971
  66.6538696  56.2803001  45.0420303  67.6384048  56.1933899  46.1883850
  55.3583794  56.1687355  45.8529739  55.8252716  56.9404907  46.1733475
  54.6353836  56.0531197  46.4695244  65.0508881  43.7683258   0.5697905
  64.2231750  43.2881241   0.5930863  64.9142303  44.4493599  -0.0888054
  14.6633158  20.2666721  32.6188049  13.8260584  20.7087116  32.7596397
  15.3192101  20.9548988  32.7300606  46.2480659   6.0077319  15.7216835
  46.2813797   5.0840750  15.9706421  47.1003685   6.1786671  15.3209429
  59.6016502  45.5431747  19.3960228  59.9216614  46.1960335  20.0185986
  60.3811569  45.2725830  18.9108562  31.7509136  37.2462616   4.8076530
  32.3337669  37.9881248   4.6459241  32.1208191  36.5331497   4.2872014
  18.8828049  26.7331009   1.2318163  18.6157589  26.0028057   1.7900165
  18.1498680  27.3473091   1.2740327  82.5894012  66.7685013  47.3074722
  82.7155991  67.1114502  48.1921692  81.6768417  66.4801025  47.2902985
  33.4504204  71.5815659   9.5103369  34.3927040  71.4434738   9.6065950
  33.0517578  70.8857498  10.0329599  64.7994690  42.7462082  55.0105782
  64.0027161  42.3156776  54.7006607  64.6992722  42.7793159  55.9619446
  75.5852814  38.2372971  51.4298592  75.1516418  37.9103508  50.6416321
  75.2127991  37.7167358  52.1415520   4.7053337  12.0005274   8.9428577
   4.4577570  11.5410471   9.7452393   4.0030432  12.6360064   8.8043432
  32.9137878  26.7505360  80.3188171  33.5163574  27.4397717  80.0393677
  32.6718445  26.9919415  81.2129211  68.2184448  18.5512753   0.2816944
  68.7900543  17.9341640   0.7385029  68.1596756  18.2082767  -0.6100064
  20.9251804  23.5595932  78.8849487  21.2629852  24.0088882  79.6597061
  20.3088245  24.1810055  78.4974060  51.9639511   8.9640808  45.6560478
  52.6532326   8.3689508  45.3611908  51.4161453   9.0980320  44.8826141
  74.2358627  41.6935806  69.3931274  74.8735046  41.8156967  68.6897583
  74.7663040  41.5042343  70.1670837  44.4164543  64.2678986  71.0818253
  45.3448181  64.3603592  71.2958832  44.4084587  63.7942619  70.2500610
  70.8746948  36.5460968  64.0223846  70.1426239  36.9247856  63.5356636
  70.6556091  36.6986122  64.9416046  74.0105591  40.0942268  75.1422119
  73.8115997  40.8521614  75.6919250  74.0076447  40.4386978  74.2491455
  73.3955383  55.4313164   2.7279243  74.3361969  55.5506096   2.8589125
  73.0775681  56.2972565   2.4724350  82.7641296  30.6720066  50.3325615
  81.8339310  30.4895134  50.1996994  83.1994324  29.8379898  50.1560402
  73.5019760  45.9336586  72.0436783  73.1423721  45.8555984  71.1600342
  74.4137115  46.1922951  71.9092407  67.7287903   3.7889173  67.1359711
  67.4485779   4.2953324  67.8983688  68.2920303   4.3871307  66.6449127
  51.6454773  43.2463226  31.9196377  51.5214729  44.0158119  32.4752846
  51.7024574  43.5988541  31.0315475  39.8024635  12.7666368   4.9758086
  39.4380302  12.6998730   5.8583975  39.0487022  12.6554308   4.3964000
  82.9848633  10.2179394  49.4504776  82.4937134  11.0311556  49.5674553
  82.4346085   9.5458393  49.8526344  35.8732643  14.7150917  19.9663868
  35.6979942  14.9845762  20.8679905  35.7374496  15.5085754  19.4485340
   9.1032009  34.8386497  63.5170326   8.2245617  34.7567101  63.1462059
   9.0271368  35.5439873  64.1596451  80.1018753  56.3808517  71.2322083
  79.3666382  55.7705345  71.1758118  79.7494278  57.1378365  71.7001648
  18.3565712  52.7508354  70.9095001  17.6783409  52.8440704  71.5784912
  18.6636429  51.8491440  71.0037842  13.5409880  62.3424950  63.3645477
  13.8152742  61.4309845  63.2638016  13.0006790  62.3440933  64.1546707
  55.8205566  58.2022133  35.5821991  56.1968765  57.5428658  34.9992104
  55.8385391  57.7945824  36.4480782  75.5036545  25.8836803  28.2531624
  75.9773941  25.2286701  28.7657719  74.6332169  25.5058174  28.1275120
  19.7744560  19.0587120  72.5215607  19.4034634  18.9622974  73.3986588
  19.7702179  18.1720600  72.1609192   4.1950269  32.0079422  13.7681704
   3.5389497  31.6482697  14.3651886   3.7887342  31.9509678  12.9033518
  21.7714329   2.4467299  62.0150261  21.2500610   1.6442448  61.9944916
  22.1746826   2.4926124  61.1481247  63.7381210  42.4459763  36.6437340
  64.1136627  41.6982269  36.1788979  64.3276978  43.1730347  36.4436951
  68.7835999   7.5367579  60.1339149  69.4223480   7.8803077  59.5092506
  67.9462509   7.5882626  59.6730232  71.7741699   1.1699705  24.8593540
  72.6195984   1.5724070  24.6605511  71.3020859   1.1807303  24.0267372
  43.6505470  55.5165939  33.0402069  43.9785271  55.4770889  33.9385948
  43.8307457  56.4135323  32.7586708  49.4170990  17.0919247  38.1983566
  49.4815063  17.7741795  37.5300636  49.0627213  16.3339577  37.7334518
  40.0964928  57.1203117  76.2004929  39.5390053  56.4829636  75.7541351
  39.4857292  57.7682266  76.5517883  24.8084297   0.5907158  53.5173073
  23.9435158   0.4104269  53.8856163  24.7763977   1.5154703  53.2722855
  60.7681885  41.0820312  38.5936775  60.7006378  41.4870300  37.7290154
  60.0846138  41.5073357  39.1114349  67.2015457  50.2537537  82.2799835
  66.5677719  49.5470772  82.1568298  66.6657257  51.0323029  82.4315948
  65.0412140   4.3040814  73.1455536  64.0892563   4.2217956  73.0886917
  65.1829834   5.1279273  73.6118240  28.4980259  60.5105095  65.1830750
  29.4210720  60.7295494  65.0556412  28.0333519  61.0496902  64.5430756
  75.7295837  69.1692734  59.8071175  75.8888092  69.3748932  58.8859215
  74.9862366  69.7209549  60.0506477  47.2244530   6.9793983  64.2030029
  47.8227692   6.2566376  64.3923950  47.2311401   7.0520372  63.2485847
  31.9363728  32.1768951  83.0520859  32.2795296  31.8565445  83.8862686
  31.2416859  31.5585670  82.8255692  80.2763901  57.5475388  51.4947701
  79.9589996  57.8147125  52.3573875  80.8989868  56.8434753  51.6761398
  58.4126015  67.1060104  56.4754944  58.8542747  67.1343842  57.3242302
  58.1332397  68.0083389  56.3205872  47.2135201  57.7356606  46.1308441
  47.3271408  57.8473434  47.0746918  46.7029877  56.9305725  46.0446663
  57.6960754   0.5856442   1.4403212  58.1978302   0.0017567   2.0091338
  56.8758240   0.7323275   1.9113921  75.9649429  46.4571266   6.7966504
  75.4542542  47.0305252   7.3681822  75.5534821  45.5979195   6.8898721
  75.3377304  71.0696106  41.4320602  75.9506989  71.0022354  40.6999664
  75.8164902  71.5590057  42.1010323  62.9453812  56.0870781  67.5347748
  62.0023918  56.2494965  67.5099258  63.1619034  55.7971001  66.6486206
   6.2825031  58.7454567  88.6958923   6.5086188  59.4341202  88.0707169
   5.3983049  58.9676323  88.9875488   2.7787223   2.7221231  21.9558849
   2.7582505   3.3881094  21.2686615   1.8652449   2.4548731  22.0577087
  70.9408112  68.7618942  23.7017803  70.8241119  69.5652237  23.1945496
  71.3080521  69.0561600  24.5353127  20.6415558  38.6611443  81.1411819
  20.0751934  39.3020821  80.7114563  20.8709831  38.0417175  80.4484329
  46.2663994  16.3841267  74.6010666  46.6792946  17.1995621  74.3167877
  46.9804878  15.8751860  74.9848404  62.2639236  49.1548576  40.8378944
  61.6274109  48.5114403  41.1494980  63.0885620  48.8939705  41.2479477
  33.5515137  39.3096046  63.4118958  33.9790573  38.9067154  64.1676254
  32.7459526  38.8058205  63.2956924  29.1963501  44.3347130  42.9066811
  28.9644928  45.0095444  42.2686577  29.9728737  43.9134216  42.5382271
  10.5017796  53.1711464  82.1459351  11.1403589  53.0371704  81.4455795
  10.5243111  52.3574142  82.6494904  74.6094208   1.7820915  24.0110550
  74.8915253   1.5815080  23.1186314  74.7053604   2.7316074  24.0848618
  40.5083160  70.9297638  47.4430580  40.5870399  71.5893402  48.1322594
  41.1610489  70.2673721  47.6697769  73.7764359  57.7683449   1.2553483
  73.1430969  57.4862785   0.5953811  74.5824356  57.9235687   0.7629098
  44.4907951  59.3743858  83.1540756  44.3447571  58.8004112  82.4021072
  43.7471428  59.2052078  83.7325134  80.5021057  71.0265503   7.5306406
  81.2334137  71.3705215   7.0177078  80.1839218  70.2798691   7.0232291
  79.8256378  44.6642647   4.1492786  80.0226746  45.5529747   4.4452639
  79.7370682  44.1571617   4.9562693  55.4012260  20.0371666  68.5813828
  55.2552567  19.7811127  67.6706924  56.3168144  20.3150291  68.6082458
  69.9803696  20.5310802  84.1965637  69.6321945  21.3785877  84.4735794
  69.2735596  19.9112759  84.3768082  69.9252548  45.9895668  24.7894745
  70.8468018  46.1719513  24.9731216  69.7577591  45.1492538  25.2161503
  80.0905380  65.8657837  47.0109940  79.7570190  64.9723816  46.9283562
  79.6820679  66.3417664  46.2879257  74.1706924  43.6357269  39.1410522
  73.9539719  44.4750366  39.5470314  74.7962494  43.2328339  39.7431984
  60.8327370  58.6687737  68.1359787  61.1294746  58.5522003  69.0385208
  59.9045219  58.4359512  68.1570663  74.8725739  11.2631235  63.0922394
  74.5645676  10.4174776  62.7662849  75.1463318  11.0875187  63.9924889
  59.0087776  22.3866253  35.9310989  58.7777176  21.7159939  36.5738258
  58.1854935  22.5841579  35.4845390  41.4147148  65.3315430  84.3946609
  42.2642097  64.8968735  84.4698029  41.3392906  65.8500595  85.1957092
  27.7471542  15.5581408  68.8723984  27.5770683  16.2560635  68.2397842
  26.8777390  15.2566605  69.1359482  72.4976349  52.8716698  47.4459457
  71.8970642  52.3593483  46.9045830  72.2508011  53.7818336  47.2819214
   0.3480912  62.3400421  19.9277344   0.3878892  63.1186905  19.3724384
   1.2631376  62.0895729  20.0549660  36.7583694   5.2671866  73.0245743
  36.0569153   5.6230931  72.4791183  37.5534439   5.6872764  72.6965332
  43.4920082  62.8528404  63.7100677  42.9497337  63.2308578  63.0177727
  43.7064362  61.9751396  63.3940125  11.9442530  23.3507366  19.7474174
  11.9100866  22.4396725  19.4558220  12.5447674  23.3413029  20.4927540
  30.9745064  68.9071503  85.9711304  31.6584225  69.0531540  86.6247177
  30.3934193  69.6626205  86.0596542  86.7247467  16.9128361   1.5632190
  87.4263153  16.3459740   1.2427444  86.1922989  16.3439693   2.1192036
  76.9232941  48.8330116  60.9101372  76.9819946  49.4302940  61.6558189
  77.7396545  48.3340111  60.9381142  55.3166046  24.6915455   2.8904827
  54.6826706  24.9493580   3.5597279  55.7209206  23.8962479   3.2372706
  59.7523956   4.3408456  85.3573685  58.9457932   4.6985741  85.7283859
  59.8559151   4.7986140  84.5231247  15.7653618  49.7493210  71.5647049
  14.9160767  49.9697685  71.9472580  16.3145275  50.5123291  71.7448959
  85.5354080  63.8226013  62.2248459  85.9006958  63.5054588  61.3988800
  86.1216431  63.4729958  62.8959160  37.3589172  23.1022892  11.7071543
  37.2470932  22.3477535  11.1288767  37.7111053  22.7332096  12.5170774
  46.2697639  18.8128891  21.3384151  46.5830765  18.9289856  20.4414253
  45.9303894  17.9181232  21.3596535   8.4876108  14.6070423  70.4766159
   8.6568851  14.9372015  69.5942535   7.8574514  15.2251596  70.8468399
  40.5744438  63.1202621  54.1638527  39.7308311  62.6914215  54.3075447
  40.6042824  63.2801056  53.2205658  52.3604889  57.1949806  87.2817841
  52.6423073  56.4456787  87.8065262  52.6541443  56.9897804  86.3941498
  72.5239792  57.2737350  70.2384949  73.0413132  56.4718704  70.1635895
  72.7158203  57.6013336  71.1171875  85.5253525   2.7584233  40.5944214
  85.9441757   3.4471416  41.1106453  84.6090622   3.0284667  40.5334396
  50.2034721  38.4732475  54.2709618  51.0780907  38.1007957  54.3830147
  50.3493385  39.4182739  54.2276001  73.0560760  25.9222832  21.3109493
  73.4431076  25.0939255  21.5942497  72.9982452  26.4454556  22.1104374
  57.3463669   1.1870188   6.7713261  58.2104263   0.8538433   7.0134540
  57.4355049   2.1389966   6.8163171  65.4999008  17.0570946  75.9594116
  65.3187714  17.0546341  76.8993149  64.7358627  17.4817619  75.5693665
  12.7566328  54.3397217  77.6649933  11.8170748  54.1726112  77.7394028
  13.0406113  54.5145073  78.5622330  39.4538422  68.3010483  58.0119171
  39.7797279  67.4123001  58.1538963  38.5939026  68.1793976  57.6095085
  76.8378830  66.2932053  73.9495163  77.1266861  67.0805893  74.4108734
  77.4171524  66.2347412  73.1897430   9.7610064  61.3736572  60.7889786
   8.8315773  61.1611938  60.7038193   9.7727461  62.2882080  61.0712738
  23.0094070  47.7042198  72.8068008  23.1469784  48.2772064  72.0524826
  22.1042423  47.8690720  73.0708694   1.3892130  38.1320305  47.2222328
   2.0532322  38.4844742  46.6296997   1.8318952  37.4175568  47.6802635
  80.8797989   3.0695233  67.4143066  80.6434021   3.6925235  66.7271271
  80.1507568   3.1077557  68.0333939  65.9468536  10.9430075   0.0160875
  65.0866165  10.5364752   0.1207595  66.1515884  11.2966099   0.8816994
  22.5377464  68.7650604  62.4138489  22.9217949  68.7173691  61.5383682
  22.5844040  69.6925964  62.6456528  27.6116104  53.3737984  83.0967407
  27.9922543  54.2297935  82.9002228  26.6763630  53.5466499  83.2047424
  49.9484367  32.6143188   5.1238136  49.0151520  32.6333237   4.9120207
  50.2729301  33.4732971   4.8534613  36.7499619   2.2202625   0.9671293
  36.3992882   2.9712303   1.4459898  37.2513809   2.6068764   0.2492591
  78.4655609  33.8445511  53.2648621  77.9347229  34.3479233  52.6475601
  77.8694992  33.6462173  53.9870911  82.2064056  36.0245705   2.8431149
  82.4049454  35.5814362   2.0182250  81.3017197  35.7781944   3.0356500
  42.0338173  58.3347969  69.7435303  41.2398453  57.8200340  69.5990982
  42.7178650  57.8565865  69.2748871  67.5885620  36.4524994  64.6156998
  67.8905258  36.9814034  65.3541489  66.6402130  36.3967552  64.7329636
   7.2660990  57.3563004  18.4348221   6.6188622  57.1270714  17.7679100
   7.2756233  56.6048241  19.0276356  53.4346428  66.8718338  34.7819710
  53.7439766  67.0443878  35.6712227  54.0598106  67.3275070  34.2182655
  77.6076736  41.2713623   4.0183296  76.9714890  40.8085938   3.4730387
  77.9376221  40.6040993   4.6200981  86.6758728  33.2155113  68.5320129
  86.1874619  33.4273911  67.7365265  86.1954422  32.4844017  68.9204636
  21.2830849  60.3110809  49.9091415  21.7977848  60.4922066  49.1226845
  20.4311600  60.0271606  49.5777168  68.1946106  70.8271790  57.9804726
  67.8583145  70.0684052  57.5036087  68.2182617  71.5281906  57.3291283
  22.7675743  40.2074699  55.9542351  23.4318790  40.5674438  55.3665733
  22.4918270  39.3929939  55.5337372  58.5642395  21.0498314  60.5609322
  58.8705864  21.5143642  61.3397751  58.9925156  20.1950779  60.6079254
  64.0264130  63.9068336  86.1767883  64.9187469  64.0463104  85.8597488
  64.0746536  63.0924034  86.6773987  54.2299385   0.7375709   0.7113402
  53.5617294   0.1848203   1.1165519  54.3581352   1.4535270   1.3335978
  13.8104267  44.9852066  21.8044395  14.1345663  45.8842163  21.7501545
  14.5864563  44.4420662  21.6665649  52.8590202  65.8204575  48.5040779
  53.2649345  65.0622025  48.9242134  51.9292297  65.7436905  48.7181625
  83.0552368  21.2820034  58.0123177  83.3037186  20.8941917  58.8514214
  83.7848358  21.0761452  57.4279022  84.7468185  62.1729774  70.0578918
  85.7037125  62.1534233  70.0720520  84.5015335  62.5163574  70.9170532
  62.4509544  29.5016022  68.7929611  62.0959930  30.1107731  69.4403763
  62.5343056  30.0226059  67.9943161  84.6554565  58.3824768  30.5692253
  84.5896988  57.4360466  30.6964016  85.0972672  58.6998520  31.3568249
   1.3456264  62.9987068  24.0135002   1.4860115  62.4132996  24.7576942
   0.8955939  63.7566757  24.3865719   1.2565928  17.7254505  68.1099701
   0.4046383  17.6068172  67.6900482   1.6487721  18.4679508  67.6504898
  22.2300205  55.6819687   5.8391390  22.4780445  54.9663620   5.2537951
  21.6191940  55.2835159   6.4591055  32.8247261  54.8022995   0.8129699
  33.1924858  54.1817741   0.1837380  32.7109146  55.6108475   0.3134426
  48.4868889  21.9710522  21.2572041  49.1839714  22.5727024  20.9958229
  47.6911392  22.3495731  20.8833904  42.8588181   3.0141366  42.3302994
  42.1904526   3.3836591  41.7532616  42.8874130   2.0855370  42.0998268
  70.7098389  19.2300625  12.8705082  70.7579498  18.3736172  12.4457493
  69.7765274  19.3631325  13.0362148  29.4689026  64.4757919  48.3939018
  30.1210670  64.9092407  48.9443932  29.2915783  63.6475067  48.8396912
  65.2195587  59.3865967  74.3634338  65.7788620  58.6352768  74.1661224
  65.5563126  59.7244987  75.1932831  84.3362885  29.1230793  14.0874596
  84.0180054  28.2350216  14.2495708  83.7199783  29.6873550  14.5543451
   9.0333529  40.8156738  56.1466446   8.9174891  41.7300072  56.4051094
   9.0073061  40.8320732  55.1899376  79.5039520  52.9040222  39.9122314
  79.9879990  52.0797424  39.8622551  79.1311951  52.9098053  40.7938461
  78.7888031  51.9922028  23.7875061  78.8820496  51.7332344  24.7042789
  77.8435287  52.0059814  23.6374741  55.5172653  11.4345846  62.8580666
  55.5054703  12.3916979  62.8527641  55.1957321  11.1959047  63.7274818
  11.5711937   9.6618700  66.7396698  11.4544363   9.3761692  65.8335876
  11.3958187   8.8792067  67.2620773  67.2491226  10.1306772  23.6823444
  67.1623077  10.4337082  24.5861511  67.6885071  10.8505011  23.2295437
  59.0416756  65.4455338  35.3093452  58.3025818  64.8888474  35.5544357
  59.4633331  64.9796371  34.5872765  37.4308777   6.8809309  84.8348770
  37.1256371   7.5849061  85.4071350  37.9574585   7.3242679  84.1697464
  19.2840385  40.5463181  23.6558819  18.4648628  40.1412735  23.9407043
  19.8621864  40.4773064  24.4156284  23.5567684  47.8770676  79.7600861
  23.2828903  48.7221451  79.4036255  24.3144341  48.0823746  80.3078308
   7.2019191   1.6123619  88.1077271   7.7392974   0.8867926  88.4255447
   6.3162503   1.2522180  88.0616913  47.6775436  68.4655609  59.2162971
  46.9413757  68.6798096  59.7893448  48.2837105  67.9805527  59.7762680
   1.4545962  45.4725342  80.5538177   0.5718950  45.1176376  80.4483795
   2.0157492  44.7006683  80.6283951  55.5757828  65.6818771  13.4666891
  55.4962463  65.0074921  14.1413021  54.7289162  66.1279831  13.4729652
  16.2336388  43.5064888  21.1805916  16.4839554  43.1416359  20.3317966
  17.0645752  43.7322083  21.5987186  49.5104942  42.4376106  46.7284622
  48.9621696  41.8326187  47.2280159  50.1674156  42.7392654  47.3559113
  22.2023602  62.9429398  59.7462997  21.3916721  63.4311180  59.8901749
  22.3236885  62.9546051  58.7968903  79.7359390  18.5146389  52.7981453
  79.0871429  19.2110176  52.8998642  80.4318008  18.7437553  53.4141884
  76.8808899  33.0809517  42.7635002  76.5271912  32.4850388  42.1031799
  77.3026352  33.7756844  42.2578239  85.0965195  32.9372139  56.2308083
  84.7721329  32.3398514  56.9047241  84.3245316  33.1475105  55.7054214
  65.0815048  16.2680855  18.0100288  64.9391327  15.9209232  18.8906193
  65.7001572  16.9879837  18.1335087  18.9908352   4.9392185   6.9033289
  19.4684811   5.6276994   7.3660178  18.0685177   5.1652336   7.0236535
  65.6205139  63.7343216  26.7007618  65.3827591  63.0533180  26.0715218
  64.7857361  64.1281281  26.9543190  86.2099533  47.2826157  84.2472076
  86.5614548  46.4290085  84.5002594  86.9355545  47.8912163  84.3862915
   2.4058313  57.2356644  63.3350334   2.4992759  58.0709496  62.8769989
   1.7241645  57.3953781  63.9877586  54.1442795  31.5815678  61.5821762
  53.8031082  32.3841972  61.1876907  55.0041542  31.4631138  61.1786728
  39.3080673  44.5092850  80.7807541  40.0198097  43.8694954  80.7625961
  39.4160423  44.9640236  81.6160889  53.0515060  66.2778931  77.1632843
  52.7351990  67.1812820  77.1717834  52.3030663  65.7649231  76.8584442
  55.4306335  16.4028454   6.3616457  55.4015617  15.6041517   5.8348861
  55.8525467  17.0484447   5.7947040  19.2417297  11.3331966   3.4127331
  19.8747730  11.4468212   4.1216617  19.5292606  11.9445143   2.7346117
  70.4603806  52.7528076  73.7657776  71.3229904  52.4367065  74.0345078
  70.2488861  53.4390335  74.3987045  70.2513351  10.9732800  38.8543892
  70.9507751  11.5266905  39.2018776  70.6588593  10.4990101  38.1296616
  64.7265167  18.5975513  32.4099236  64.8705902  19.0577908  33.2367592
  64.2584839  17.8002796  32.6579857  86.0898972  52.9617691  33.4708519
  86.8532410  52.3993874  33.6022377  85.7207947  53.0731201  34.3469772
  63.5572128  62.2487526  35.6334076  62.9057808  62.5883369  36.2470398
  64.3793335  62.6551018  35.9076881  54.2478294   6.6077447  65.7022934
  55.1410713   6.3777041  65.4465027  53.8556976   6.9667892  64.9063339
  30.4618168  45.4726410  29.3639946  30.1175766  45.7432671  28.5128231
  30.0269279  46.0489540  29.9924603   2.3801558  34.3829842   4.7296705
   1.9688529  35.0370636   4.1646519   2.9367890  34.8917618   5.3191957
  11.3131657  59.0636597  65.6257019  11.7599478  58.7117691  66.3956299
  11.4716234  58.4152565  64.9396286  82.8737564  24.1565552  61.8968811
  82.2108459  23.4785557  62.0276451  82.9408188  24.2457771  60.9462128
  59.5582275  61.0870628  22.4809189  60.1886559  60.7169189  21.8630333
  58.7032051  60.8783569  22.1046047  64.0075684  57.5008507  89.0123444
  64.5495529  56.7146072  88.9467163  63.2994690  57.2546463  89.6074982
  66.3253708  46.4531250  27.0470428  65.6488571  45.8345299  27.3225384
  67.1189346  45.9230003  26.9732285  70.1866989  45.3809319  62.9298172
  69.9838943  46.1259956  63.4954872  69.4498901  44.7817574  63.0495644
   0.4829244  31.1458282  11.5690851  -0.0244289  31.2105751  12.3781786
   1.0779755  30.4109344  11.7176743  48.7607880  50.7350578  11.8916626
  48.6536102  51.2384605  11.0846119  49.0730515  51.3737106  12.5326328
  75.1277313  53.7690735   0.1531625  75.6245880  53.2355423   0.7734148
  74.2159042  53.5149422   0.2953607   9.0355349  43.9940338  12.1283998
   8.2770405  44.1993217  11.5817966   9.0663776  43.0374870  12.1457815
  18.0209827  20.6871128  53.9907379  17.1085243  20.9214745  53.8212509
  18.2586555  21.1951580  54.7663879   4.9900069   4.8855262  58.4034042
   5.0034895   4.0298243  57.9746590   4.5836425   4.7207298  59.2542534
  70.4370041  11.6313181  62.8245888  70.7213364  11.6080971  61.9108925
  70.7032928  10.7833452  63.1799240  54.3695297  28.9635315   1.5311195
  53.6556587  29.2239456   2.1131892  53.9385910  28.4854622   0.8226181
  85.2183151  20.9790668  55.8359528  86.1626816  20.9932842  55.6804047
  84.9655533  20.0671520  55.6918983  73.6189041  29.6202469  86.3729553
  73.4891434  28.6737347  86.3137360  72.7897644  29.9547443  86.7148209
   6.9337621  59.9467964  72.6092911   6.4957280  59.6606865  71.8077316
   6.7828898  60.8915138  72.6405487  48.1406059   2.0787110  69.8141327
  47.5145111   1.5234874  69.3494186  48.5566559   2.5982442  69.1262207
  52.1317902  21.4864044  78.0913696  52.5079765  22.2819996  77.7148819
  51.5718498  21.7992306  78.8018875  38.7976189  47.4231682  68.9640503
  39.0350304  47.8330002  68.1322479  39.2249718  46.5670052  68.9398117
  66.2894745  23.7217293  65.8574982  65.7356796  23.3334618  66.5348434
  65.7251358  23.7710972  65.0859299   7.7949576  58.5823135   8.9983673
   8.1909370  57.9191399   8.4330082   8.3605585  59.3484230   8.9013739
  75.3867950  12.8213644  31.2459526  76.1679230  12.4612932  31.6659813
  74.6566925  12.3773909  31.6773071  49.1525383  20.2302914  31.1741219
  49.8146820  20.6834316  30.6521454  49.1831017  19.3246021  30.8658600
  22.9878826  38.4181557   2.1319201  22.7363129  39.3243484   2.3101339
  23.1838799  38.0501289   2.9935300   5.4773459  63.3868713  10.2108412
   6.1991920  63.2379456  10.8215723   4.9902892  64.1186981  10.5895777
  28.5474758  69.4082031  13.9449873  29.4241142  69.4677811  13.5652647
  28.3038921  68.4882507  13.8420572  36.9385643  50.4100037  67.4132690
  37.5457153  49.6937180  67.2274399  37.4841957  51.0901070  67.8082123
  53.4360657  25.1884041  73.0472717  52.8565521  25.8986282  72.7716293
  53.8222961  24.8648796  72.2333984  55.4790993  44.1219864  59.9623070
  56.4028435  44.1224556  60.2131691  55.0086784  44.2824593  60.7803459
  76.0616989  29.1786041  36.6019402  76.5567703  29.6517220  35.9331360
  75.1536102  29.4472828  36.4626007  54.6639900  66.0223694  41.6601639
  54.6196480  65.2689362  42.2488976  55.3699417  65.8084564  41.0501633
  50.9112816   7.0454030  15.2538300  51.4465408   6.5852132  14.6073351
  51.2130852   6.7091484  16.0976791  38.4178581  55.4607239  56.4752121
  37.6138344  55.8850861  56.1757164  39.1171227  56.0581284  56.2099380
  51.2454643  62.5475922  72.8997955  52.1848106  62.3914986  72.9972458
  50.8358231  61.7329674  73.1910248  13.6228113   6.2373562  82.3604050
  13.3320179   5.4056196  82.7344208  14.3680639   6.0036120  81.8070526
  19.9229431  31.6499004  74.1399078  19.2102337  31.3176613  74.6856995
  19.4910870  31.9565697  73.3426056  53.9783363  35.0861206  63.9326668
  54.5299377  35.4626389  64.6183777  53.1845894  34.8079033  64.3896027
   9.6847410  53.2824059  36.9847336   9.5515347  54.0283508  37.5695877
  10.5964727  53.3585052  36.7033310  76.4191132   0.4885173  27.9740257
  75.5052338   0.6394913  28.2153816  76.5395813  -0.4560930  28.0711441
  33.3156662  59.4757729  28.2723503  33.0416870  58.6125145  27.9625950
  33.9295082  59.2914276  28.9832993  13.3476706  49.6698456  17.2490082
  13.4835062  48.9695702  17.8872833  13.2966080  50.4674416  17.7757587
  66.5401154  12.1769104  86.6299896  66.3133545  11.7795782  87.4707870
  66.8045654  11.4393930  86.0801163  59.8771477  25.9817429  58.0483360
  60.2482109  26.7691021  58.4465904  60.3942719  25.8486862  57.2539101
  40.2353973  43.4613533  64.6070786  39.8518257  43.3901672  63.7329865
  41.0276985  42.9258690  64.5652924  12.4658070  24.1483421   7.2299271
  12.1743240  24.7053394   7.9517460  13.1932812  24.6290970   6.8351002
  76.2291870  52.4420586  23.1053715  75.3119583  52.6615295  23.2689247
  76.4025040  52.7773209  22.2257175  25.6035767   1.7174174  63.7879868
  25.6904831   1.7505352  62.8353157  25.9337139   2.5642459  64.0881882
  60.5923157  28.3998985  37.9763374  59.7626381  27.9467831  37.8261642
  61.1800728  28.0518951  37.3057632  63.7284355  43.2136459  22.1371479
  64.3203506  43.0922852  22.8795338  64.3085556  43.3498306  21.3880520
  81.8577194  46.3268509  22.4190617  81.5866699  46.3772316  23.3356991
  82.8083115  46.4363632  22.4440212  74.5862732   1.4904664  82.4166336
  74.2893982   1.9842598  81.6522598  75.3760376   1.9478283  82.7052917
  65.0327454  55.9068260  17.0408669  64.4405670  55.4204292  16.4673119
  64.8567505  56.8265266  16.8423538  83.2519913  22.0079708  78.3805466
  82.7461548  22.5786629  78.9590530  82.8715591  22.1480389  77.5134277
  63.1735687  14.6058159  57.0069122  63.9254074  14.5836964  57.5989304
  62.4137421  14.6591921  57.5866013  43.6482239  44.5923882  74.6206131
  44.3817825  45.0795212  74.2453461  43.4300652  45.0678101  75.4222412
   7.6237555  67.2586212  71.4201050   6.6710405  67.3160934  71.3475647
   7.8664412  66.5461502  70.8287354  38.8203201  68.3312302  54.6381645
  38.7840958  68.0521927  53.7232552  38.4986076  67.5767365  55.1315956
  10.1960154   1.9307308  83.9654465  10.2677650   2.8646591  83.7683105
  10.7488146   1.5045284  83.3104630  41.3480492  65.1243362  34.4530754
  41.7702866  64.5556717  35.0969505  40.4806900  65.2977295  34.8189392
  55.6610031  53.7980194   0.9362540  55.8142662  54.4107208   0.2169895
  55.8497200  54.3042336   1.7264227  68.1177979  28.1142445  35.1918526
  68.2299728  28.2853584  34.2567749  67.3631363  28.6464062  35.4438820
  32.2345848  48.9170456   8.9359150  32.3399162  49.4404182   8.1414213
  31.3729191  48.5107727   8.8426094  14.4488754  55.4575081  18.7967854
  14.2781668  56.3918533  18.9154911  13.5806522  55.0652733  18.7042007
  36.2481499  70.6708527  56.9495125  36.5732689  70.6080704  56.0514069
  36.9849586  71.0260620  57.4466782  24.5259590  43.5686607  30.8877468
  25.2150517  42.9810371  30.5777779  23.7320766  43.2571220  30.4530907
  73.0756989  28.3119869  79.4721375  74.0321960  28.2785721  79.4567108
  72.8123932  27.4672852  79.8373489  54.0100365  11.2534361  82.9903259
  54.0413933  10.3169594  83.1859283  53.2916946  11.3434000  82.3641281
  60.6500053  21.4882812  41.9552116  61.4200745  22.0430641  42.0794792
  60.6873360  21.2294674  41.0344200  32.3375130  67.3120804   8.2708502
  31.6686592  67.2066498   7.5942750  32.2696915  66.5176849   8.8005390
  27.2454891  56.8474617   6.9060688  26.5301018  57.0151443   7.5195303
  26.8090878  56.5938301   6.0927691   6.1352673  59.2801666  20.2278919
   5.4523745  59.5410995  19.6099892   6.6558309  58.6339798  19.7507305
  50.9508858  43.0991135  12.8582020  51.7812119  43.4362411  12.5218525
  51.1978722  42.5614433  13.6106253  77.6904068  59.4135246  81.7503891
  77.9812393  58.9403000  82.5299454  78.4997177  59.7128334  81.3360596
  18.8890610  43.7262230  76.8323593  19.2760887  44.3844299  76.2551270
  18.2357445  43.2855568  76.2890167  86.2960663  39.3076057  74.3503418
  85.3886032  39.0754242  74.5474091  86.2402420  39.8394089  73.5564270
  21.6108456   4.1432223  79.5460663  22.3888111   4.6810088  79.3984604
  21.2100353   4.5126877  80.3328781  26.0984173   4.0597873  27.6683273
  26.9075108   4.5472088  27.5133381  26.2434521   3.6140616  28.5029087
  84.8361130  68.5716476  82.6281967  84.0142899  68.7888412  82.1881104
  85.0779114  67.7154617  82.2750549   8.0205269  46.9971275  46.0923882
   8.5718460  47.5820198  45.5725975   7.7152863  47.5393066  46.8197823
   0.2925347  39.0295372  28.7129974   0.3424630  38.6356583  29.5839729
   0.7751814  38.4253426  28.1488743  55.7990036  10.2501345   2.4616029
  55.0879173  10.7969389   2.1275520  56.2719688   9.9677038   1.6788074
  16.1680775  27.0912857  11.3681335  15.7017279  26.6917915  10.6338615
  17.0628166  26.7596912  11.2925034  76.7996979  51.7511787  39.8394051
  76.9334183  51.0177460  40.4397621  77.6838608  52.0299988  39.6012115
  57.5487137  50.0144844  76.5976334  56.8442078  50.6605568  76.5477676
  58.0890388  50.1893539  75.8271103  57.6850853  68.7412338   8.6307650
  58.3432503  68.2131577   8.1788940  57.0392380  68.9483871   7.9553385
  72.0299454  43.9949875  61.5490685  72.4182129  44.5263977  60.8540268
  71.3667374  44.5623016  61.9421883  70.5269699  52.4334183  55.9127312
  71.0514450  51.7012138  56.2368279  70.8802490  53.1996536  56.3647385
  67.3426819  17.3262939  44.2036133  67.1162872  16.6234989  44.8127556
  66.5466461  17.4639244  43.6901779  51.5388298  20.5294762  13.8753748
  51.9508667  20.2688599  14.6991091  52.2703362  20.7740669  13.3085365
  16.8770695  56.2148094  22.9473362  17.0307655  55.6543312  23.7079124
  16.5626659  55.6171188  22.2689953  49.5660210  63.4752655  22.9766750
  49.9526787  63.9238777  22.2246952  49.3097229  62.6174469  22.6380157
  61.2360725  23.7440701  30.9842281  61.0261192  23.4862614  31.8818283
  62.1598854  23.5163918  30.8795033  53.9660645  58.2708511  32.0882835
  53.5936203  57.4491463  32.4081573  54.3171463  58.0544662  31.2244835
  10.5463896  36.0607338  74.0148697   9.9516659  36.5007973  74.6222229
  11.4093246  36.1467590  74.4200516  27.2591553  23.9000816   4.5570908
  27.8429279  24.5463142   4.1598191  27.1219845  24.2178516   5.4495244
  28.4154930  42.3012695  26.4737110  28.8085785  41.9346352  27.2657318
  28.6611481  41.6899338  25.7793369  28.6694813  49.1267319  39.7463722
  28.5863590  48.5154648  39.0144768  29.1288166  49.8811188  39.3773956
  73.7027817  11.4839735  83.5911560  74.0685883  12.1011791  82.9575348
  72.9928131  11.9672174  84.0138168  56.0114746  27.5978756  81.1698837
  56.9463997  27.5627804  80.9676132  55.5788116  27.4345150  80.3318176
  71.5422516  20.5335331  41.5431747  71.0612183  21.1853981  41.0333595
  71.1033401  20.5231724  42.3937531  50.9034653  24.3357716  10.1574326
  50.9185677  23.6107616   9.5326395  49.9733696  24.5219879  10.2858019
   0.3412095  13.3180885   8.3296757   0.0421476  12.6889992   8.9862118
   1.2293041  13.5466623   8.6040363  46.8728180   2.9098620  83.9260101
  47.3563194   2.6366582  84.7056351  46.0532913   2.4170313  83.9674911
  59.1001816  22.8115520  28.6831608  59.9765320  23.0704193  28.3981552
  59.1671295  22.7482281  29.6359158  12.3362827  41.5376930  62.4598007
  12.3120146  40.5940971  62.3008385  12.5937834  41.9156914  61.6189423
  73.6911163  46.3455696  40.1374626  73.1263046  46.8356667  40.7349739
  74.4801788  46.1645012  40.6481705  46.1349373  60.0596428  42.3248749
  46.3147163  59.1364746  42.5028381  45.2563019  60.0636673  41.9451218
  55.7445259   5.4510822  78.9319992  55.8210945   5.1789794  79.8465042
  56.0288658   4.6871548  78.4301987  14.9665899  37.1361656   2.4403133
  14.4218779  37.9022026   2.6211672  15.2420187  36.8288307   3.3039782
  62.6502304  50.5752106  31.8927536  63.4885216  51.0369339  31.9103203
  62.1600838  50.9954529  31.1860828  57.4710999  16.4968567  78.8912125
  56.6179314  16.2071323  79.2143097  57.2780151  16.9288120  78.0591278
  64.2075424  67.2119293   4.3328695  63.4254265  67.1170349   4.8764863
  64.6090164  68.0280457   4.6312070  84.1618881   9.4183407  66.4227066
  84.6181488  10.0471926  65.8635941  84.1747971   9.8177433  67.2925034
  14.6456852  50.5368385  66.1545486  15.4947453  50.8470535  65.8397522
  14.3343191  51.2348137  66.7308426  85.0127563  35.7841606  23.8803616
  84.2340546  36.1634254  23.4729137  84.7378235  35.5739403  24.7728024
  34.7299652  36.1170998   2.8753059  33.9220810  36.4165268   2.4582951
  35.4246330  36.5955849   2.4228473  56.3452415  33.5475388  82.4696503
  56.0723038  33.6041603  83.3853607  57.2954865  33.4393806  82.5092087
  83.6718674  51.1678619   1.0060397  83.3398895  51.6050720   0.2219023
  83.1039124  51.4775696   1.7115471  54.0380402  56.3099251  53.7129021
  54.1398087  55.3798141  53.5109978  54.1464233  56.7511597  52.8704071
  29.6204739  42.4613380  80.4094009  29.8422985  42.6341896  81.3243561
  30.2264328  41.7700958  80.1425095  25.6018810  11.8191843   6.8832264
  25.9697514  11.0274563   7.2757444  26.3523006  12.2597294   6.4844508
  27.6002808  49.0895195   5.6324253  28.5437641  49.2321625   5.5567660
  27.4511166  48.2442169   5.2088127  86.6893921  10.4381313  20.4107723
  85.8365250  10.4920340  19.9795589  86.4962769  10.5628281  21.3399620
  77.1006927  10.6878710   7.8349714  77.3583908  11.2647667   8.5540094
  77.8287048  10.7374010   7.2154765  31.5833149  64.1232834   1.6166564
  31.7539101  63.1944542   1.7728732  30.9463463  64.3661346   2.2886150
  52.1192551  23.9717045  85.9780426  51.3126907  24.3825340  85.6667480
  52.6953278  24.7059174  86.1908875  53.3615875  51.0627861  75.9576187
  53.7056198  50.2290840  76.2782745  54.1361885  51.5482826  75.6738663
   3.9015381  11.0453091  80.5944366   2.9476695  10.9659910  80.5857697
   4.2117577  10.1769772  80.8513336  84.8352814   8.8257761  14.7430210
  83.9997101   8.4959307  14.4124908  84.7332764   9.7775240  14.7447281
  27.3860474  26.8971481  70.7247238  27.4822369  26.3980942  71.5358505
  27.9504852  26.4455318  70.0972824  33.9133110  52.3882790   5.5758252
  34.3791924  52.9574280   6.1884036  33.9106979  52.8748169   4.7515059
  71.0048065  66.5258102  67.2339401  71.7433243  67.0216141  66.8803864
  71.0803986  66.6273880  68.1827240  64.9421158  34.0448265  61.6210213
  64.1226196  34.0369301  61.1264572  64.8251114  34.7411118  62.2673416
  84.8996582  65.8459625   8.1320286  83.9543457  65.7059784   8.0770569
  85.0468292  66.1363983   9.0321522  74.3302765  68.4683609  14.3066778
  73.6924362  69.0403137  13.8797636  74.2240753  68.6465683  15.2411261
  80.5158844   6.1440239  20.7366142  80.7500458   5.2308469  20.9024620
  79.7009506   6.2741861  21.2215710  66.4473114  56.5744247  42.0231972
  66.0056534  56.1552162  41.2846603  66.0527802  57.4449730  42.0754128
  52.3604202  13.3465118   6.3552589  52.0447044  14.2385054   6.2106714
  53.0689278  13.4434004   6.9915447  39.4636993  60.6951828  17.6644802
  39.4251709  59.7598534  17.8642445  38.5609665  60.9320831  17.4519196
   4.0262837  36.4777451  37.1107178   3.5272021  35.9725113  36.4689331
   3.9887044  37.3782196  36.7882767  32.5994644  57.0598869  30.5497417
  32.7042999  56.8550911  29.6206017  32.8341103  57.9852943  30.6189899
  27.6016750  46.7575226  11.5381117  27.7092991  46.5397377  12.4639730
  28.4929905  46.9039154  11.2213202  49.9473877  34.3184166  30.8947220
  50.8175392  34.6700592  30.7065125  49.9055824  33.5027351  30.3955746
   6.6972690  62.7457123  36.3456421   6.3672285  63.5354462  35.9171295
   6.5971246  62.0569801  35.6884842  55.3781509  62.1346436  60.3186111
  54.8848686  61.9319611  61.1134834  55.9827919  61.3994484  60.2179527
  49.0725822  40.3710136  22.0921230  48.2863388  39.8439636  21.9497490
  49.7975731  39.7600555  21.9604168  38.0646629  69.5079956  13.7327747
  38.2564354  70.1150665  13.0179863  37.2745209  69.8612671  14.1415606
  50.3890724  18.1482029  17.0086765  51.0634346  18.8272629  16.9900436
  50.7854195  17.4305420  17.5027485  35.1364212  54.9587517  47.4829063
  36.0240936  54.8871498  47.8338280  34.7203217  55.6332054  48.0197563
   0.3885542  63.0964127  59.9888954  -0.0322014  63.2016487  59.1355934
   0.4824495  62.1497040  60.0945168  86.5338516  55.5068321   9.6065903
  87.2504959  55.0924416   9.1260424  86.4980545  55.0339661  10.4380636
  46.9788628  69.1041565   6.1864305  46.7083359  68.7992706   5.3203521
  46.3053322  69.7355576   6.4392557  70.2686462  51.7849388   7.2764406
  71.1381378  51.4602585   7.0423393  70.1605453  51.5391121   8.1951981
  33.2975655  26.9245300  84.4818497  33.3330193  27.5473881  83.7558823
  34.1620255  26.9816647  84.8888855  24.6569481  27.1252251  71.3957291
  25.0908947  26.5265331  70.7878723  25.3557205  27.4235363  71.9779282
  30.2382851  42.3037109  87.7727051  30.1936779  43.2596703  87.7922287
  29.3330574  42.0190849  87.8983307  77.1489182  10.4193716  56.2649689
  77.0205002  10.5208588  55.3218651  76.3230209  10.7100372  56.6517982
  27.7041054   5.4226122  38.7346153  26.7953911   5.3853774  39.0330849
  28.1378288   6.0036840  39.3594933  77.3094864  32.8072395  25.0743656
  76.7882385  32.2270279  25.6292400  78.1587982  32.3714981  25.0033894
  58.8523750  31.0011463  29.5782547  58.6802864  30.0728893  29.7362347
  59.7054482  31.0161324  29.1443501  18.7750912   8.9089499  11.1125774
  17.9716263   9.3074846  10.7781429  18.8881493   9.2917118  11.9826021
   7.0113077   9.5957642  17.2256775   7.2061095   9.6043940  16.2885494
   7.8398623   9.3553772  17.6403389  44.1950645   6.4660640  43.6437759
  43.3133926   6.1348948  43.4728470  44.7189331   5.6810784  43.8037529
  76.5124359  33.2796097   6.5612650  76.4412003  33.4160576   5.6165218
  75.6155548  33.1046867   6.8462944  71.9977417  40.1945419  24.3084431
  71.1907425  40.6826973  24.4718227  72.2456970  39.8479462  25.1655445
  76.0988007  34.4413872  28.1540947  76.1824799  34.4536629  29.1075516
  77.0004578  34.4709206  27.8341293  60.2607079  36.6206474  11.2095947
  60.2080154  37.3926620  11.7730188  59.5121574  36.7037392  10.6188288
   3.9715273  26.4503212  59.3831215   3.5960507  26.1897488  58.5420799
   4.8979235  26.2196999  59.3135834  18.6994934  62.6289711  49.7024040
  18.7229900  62.0464096  50.4615479  18.0998478  63.3302422  49.9571114
  20.3130817  58.3810806  46.6824455  20.0046463  57.6768036  46.1122742
  21.2563553  58.4211540  46.5247765  16.4734116  30.2861576  60.3660698
  16.6346397  30.7543964  61.1852074  16.1742878  29.4193211  60.6405678
  40.5419617  14.2327147  79.9796600  39.8525772  13.9918823  80.5985107
  40.7358665  15.1480951  80.1814270   9.4030180  14.6348743  10.1458492
   8.5853634  14.2702961   9.8070927  10.0774240  14.3006792   9.5544767
  51.4968719  69.5772552  50.0153275  50.5652924  69.7600250  50.1377411
  51.8635788  69.5999985  50.8992043  21.3396130  53.3956985  68.0059357
  20.5065899  53.8417244  68.1588058  21.2372036  52.9846115  67.1475906
  63.3676453  67.4996567  18.6251183  64.3240280  67.5183258  18.5901718
  63.1147614  66.8848724  17.9364128  56.8280373  35.6528244  21.3481884
  56.0043335  35.6223068  21.8348217  57.4558868  36.0314713  21.9635448
  75.4880066  20.4708958  35.5396843  74.6431656  20.7835045  35.8633499
  76.1145935  21.1361580  35.8243637  76.4603043  14.7673883  85.4495010
  77.3922424  14.8910027  85.6295853  76.2510147  13.9195690  85.8414612
  58.2215576  37.1794281  23.2718086  58.5260239  37.0073776  24.1628380
  57.4938087  37.7914810  23.3813648  44.0857658  16.5694122  82.2644730
  44.1363335  15.6896515  81.8907166  43.9133682  16.4248333  83.1948547
  54.4907722  44.0010223  72.2115860  53.7735329  44.6109390  72.3842087
  54.1336823  43.3867416  71.5701981  67.8384094  18.8901863  84.7794800
  67.6376953  18.2838612  85.4924393  67.0423584  19.4118462  84.6774521
  56.4556541  60.7356758  34.8958359  57.1115570  60.5369644  34.2276039
  56.1192207  59.8803177  35.1630554  65.3621140  28.0012913  53.0656586
  64.7336578  27.9089794  52.3495903  65.1932755  27.2476768  53.6311607
  50.8592377  68.7991638  57.7993774  50.8146248  69.7294388  58.0203514
  50.5687523  68.7551804  56.8883820  77.8413010   9.4161386  65.8206177
  78.3734665   9.3777409  65.0259094  78.4770203   9.5073309  66.5303879
  14.1865358  58.7310333  57.3767433  13.2471504  58.6781807  57.2006912
  14.2780514  59.4799080  57.9658432  40.6794167   2.0171566   2.8752201
  41.4748535   1.8355681   3.3757565  40.6824532   1.3640730   2.1754313
  31.3288097  24.8944263  14.0186815  32.2541885  24.9405804  14.2590427
  31.0725117  23.9953766  14.2242336  40.4151535  67.8173599  13.2859993
  39.7173882  68.3783112  13.6246538  40.7468910  68.2842941  12.5190887
  70.5899200  34.9634018   9.4973917  70.7784195  34.2160797   8.9297552
  70.9160614  35.7211685   9.0119457  45.1580238   9.7607460  65.4012375
  46.0373383   9.7885084  65.0240479  45.1520195   8.9673214  65.9366531
  78.9633636  26.7885895  29.4480896  79.5476761  26.2928181  30.0216942
  78.3072433  26.1512966  29.1659546  46.9964333  49.4499092  40.6871605
  47.1492004  48.9497223  39.8854713  46.3310547  50.0938492  40.4445801
  46.1799507  22.5144291   4.8428302  46.8401680  23.2067490   4.8106422
  45.4758987  22.8796024   5.3787322  70.3509293  64.5648651  49.7736168
  70.1913681  64.4787750  48.8337440  71.2807312  64.7823792  49.8397751
  51.8670692   5.7211881  45.1961174  52.2021065   5.9474525  46.0637474
  52.5496559   5.1711259  44.8117447  40.1061440  31.2547951  67.8462982
  39.6226196  30.9606342  67.0743484  40.9639091  31.5118313  67.5080566
  17.1415291  18.7857742   1.2607899  17.9836426  19.2303581   1.1637293
  17.1770573  18.0654125   0.6314660  16.2352390  47.3018532  41.9384804
  15.8023500  46.9042244  41.1830139  15.5449381  47.3785248  42.5971451
  83.8255768  45.8563232  47.8674469  83.7041626  46.3907166  48.6522484
  83.2967758  46.2903633  47.1979599  29.3742237  22.6057262  88.7230148
  29.4056835  21.9767323  89.4438553  30.2332134  22.5358448  88.3065033
  83.1339874  69.7920380   1.1655324  83.3676910  69.0245667   1.6876479
  82.7970276  69.4304810   0.3457951  35.8548698  42.2716637  75.0032501
  34.9382324  42.5470276  74.9898987  35.8345718  41.3895149  75.3742371
  58.2698021  15.3524017  83.6233215  58.8841324  14.6720114  83.8988190
  58.2258415  15.9514380  84.3686142  39.7695961  27.4050941  80.6973419
  38.8515778  27.2685528  80.4631882  39.9525146  26.7313404  81.3521881
  36.9230690  53.0450974  14.2434521  36.1202736  53.5408096  14.4047585
  36.8041420  52.6745872  13.3689175  74.1775742  38.4218597  47.2307205
  73.9500275  37.9958801  48.0571556  73.6131897  38.0020370  46.5815239
  57.2741966  69.1549301  66.0010452  57.6221733  68.8198471  65.1746902
  58.0180130  69.5938797  66.4137115  34.6526108  64.4044571  19.3195324
  34.2189827  64.3267365  20.1693325  35.5514488  64.1183701  19.4822330
  84.2613144  28.4148045  50.1443291  83.8861847  27.6021290  49.8051186
  84.1755219  28.3398190  51.0947227  10.6083241  68.4335556  41.4351234
  10.1865807  69.2058258  41.0583458  10.3190594  68.4238586  42.3475151
  21.5908031  20.4075584  71.1114655  21.7942333  19.8541660  70.3574066
  20.9935741  19.8798676  71.6416473   7.9409881  30.5317307  78.7845840
   7.9561977  31.4765987  78.9369736   8.7719040  30.2181358  79.1416092
  74.2991409  13.8052759  16.9160442  73.3538055  13.8006372  16.7658634
  74.5247650  14.7322531  16.9937553  23.0743351   2.4465625  84.4519501
  22.4583588   3.0491679  84.0352097  23.6659145   2.1832998  83.7469940
   0.9141979  60.3889122  87.0714111   0.2209078  60.9760132  86.7699203
   0.9254413  60.4998779  88.0220871  80.3137589   4.8079939  27.2797527
  80.6398697   4.8097615  28.1796856  80.2160645   3.8809726  27.0622196
  27.4878902  63.3635445   9.0300026  28.0003147  63.1097298   8.2623892
  26.8727989  64.0191650   8.7012777  46.6762161  58.7624168  63.5115471
  47.0275116  57.9640465  63.1172981  46.8039970  59.4357758  62.8433495
   1.7013482  13.1298428  68.3059464   1.5287224  13.7698679  68.9964523
   0.8400825  12.9415960  67.9330978  44.7514992  38.1033516  29.6364975
  45.3920517  38.7140846  30.0010948  44.3545876  38.5796242  28.9072151
  64.0788727  40.7214890  67.8892517  63.9546280  40.7559204  68.8377304
  64.9626083  41.0622368  67.7509308  37.1502686  14.2994165   5.8779130
  37.9088898  14.6429911   6.3498111  36.8800011  13.5334015   6.3842793
  73.8463593  19.5007076  47.7377090  73.9562225  18.9565182  48.5174637
  73.1238098  20.0892601  47.9562454  36.6181908  59.1051636  30.5303650
  36.8439064  58.1803360  30.6302605  37.2008514  59.5608826  31.1378651
   3.6261017  63.2171860   6.8421593   3.4150295  62.3710327   7.2367549
   2.8662295  63.7669182   7.0335197   6.1921306   5.9094815  55.5870743
   6.6273255   5.2704329  56.1513901   6.8207340   6.0760741  54.8846931
  80.0874252  34.4923096   3.3731964  79.1406403  34.4841003   3.5137546
  80.3085632  33.5815849   3.1784918   6.7989368  35.9587746  17.1187172
   5.9768929  36.0056114  16.6305771   7.2098889  36.8117676  16.9781666
  82.0786972   0.0428921   2.8331256  82.5358429  -0.4808642   2.1751511
  82.6202927   0.8255549   2.9348366  51.8698502  44.7166290   2.5442224
  51.5979309  44.9014244   3.4431896  52.6350327  44.1491165   2.6373072
  51.3767204  70.5389786  31.8026924  50.8299828  70.6443329  31.0240993
  52.2741623  70.5951691  31.4745541   2.8730183  14.8975916  20.5102654
   2.2262650  14.2978535  20.8820934   2.9091907  15.6255445  21.1307545
  51.1393700  15.7313108  48.6153755  51.2317047  15.8601875  47.6713982
  50.7354851  14.8677101  48.7008324  53.0144157  13.5858002   2.7734337
  53.1999664  14.1474409   2.0208633  52.8743172  14.1951017   3.4982481
  68.5207977   5.3096271  34.2079964  67.8464127   5.8897681  33.8546257
  68.7229233   5.6742454  35.0696411   4.3609715  20.4129658  59.3830948
   4.4752846  21.1215267  58.7497635   3.7495337  19.8100395  58.9601822
  13.3784332  27.6922817  78.8559799  14.1494665  28.1149998  79.2341919
  13.6376743  26.7777519  78.7434616  30.3059635  38.1494675  67.6614456
  29.4829006  37.7391815  67.9269028  30.1073742  39.0852547  67.6283951
   8.8672857  49.5643654  55.4147072   9.8043127  49.4349098  55.2682343
   8.7844944  49.6628761  56.3632164  64.8708954  23.5440254  85.0263367
  65.1326675  23.9101791  84.1815643  64.4973679  24.2851696  85.5032120
  37.7695122   4.1457191  38.1373024  38.1614494   4.6280174  38.8653145
  37.6959457   3.2466977  38.4575806  23.5323753  54.9278412  66.7409668
  22.7439384  54.7626343  67.2579803  23.4366627  55.8315582  66.4403458
   0.3615861  48.6918983  52.4351349  -0.3854641  48.1402855  52.6672325
   0.2133496  48.9223747  51.5179977   6.3970985  43.4527130  22.7177334
   5.5188594  43.2540855  23.0425014   6.7410102  44.0973778  23.3360920
  25.5062523  71.0139618   2.7550600  24.6161900  71.2953033   2.5432279
  25.6998005  70.3292847   2.1147609  85.0739365  69.6324234  25.9209118
  85.1089172  69.6164551  26.8773384  84.5420074  68.8714905  25.6879654
   6.8691378  14.1387482   6.3836441   5.9326506  14.0998011   6.1894617
   7.2943258  14.0584621   5.5298285  83.5408478  46.9023323  85.2858047
  84.3212814  46.7170105  84.7634811  83.0017853  47.4574356  84.7223282
  21.7145233  40.7314835  52.1411552  22.6529999  40.8326378  52.3000946
  21.5232201  39.8305092  52.4016914  77.5532761  33.8643265  30.7653103
  76.8882141  33.5205879  31.3617725  78.2797089  34.1156120  31.3357353
  35.4158401  65.7069016  36.3007431  34.8032494  65.8883133  37.0135193
  35.8342094  64.8823929  36.5485115   0.8908932  11.7679987  79.1600876
   0.0427242  12.0654221  79.4892960   1.2669979  12.5392542  78.7358856
  31.2255154  49.5334549  24.4808807  31.1981087  48.8657951  23.7955246
  32.0529175  49.3760071  24.9356899  54.4805679  58.6546326   5.5314360
  54.5683861  57.9405975   6.1628437  53.5416908  58.7004890   5.3507776
  18.6693707  50.4429436  44.2345848  19.2094440  51.2319107  44.2802353
  17.9103718  50.7021484  43.7121239   1.7116048  66.5728607  59.5962715
   1.6919689  66.3559265  58.6641846   2.5579517  66.2453079  59.9006424
   8.4581709  39.2732353  40.9625282   8.0026197  38.7407875  41.6146049
   9.3544130  38.9371109  40.9626122  13.7963610  63.1587181   7.2775898
  13.0439186  62.5958138   7.0953846  14.5531597  62.6466637   6.9924817
  81.6868134  29.5470562  47.0333595  81.7617188  30.4813175  47.2277222
  82.5568314  29.2965641  46.7226067  60.4096985  31.9195232  38.1416855
  61.1704674  32.4511604  38.3758354  60.5204811  31.7410622  37.2078171
  62.7808342  51.0841522  11.4548626  63.7310562  51.0005112  11.3754358
  62.6158676  52.0239029  11.3781538  53.3929367  35.4694519  75.8355789
  53.5453262  35.0023537  75.0141068  54.2092857  35.3664703  76.3246613
  61.6443596  71.7520294  12.8692741  61.7209129  71.4683685  13.7802668
  61.2083778  71.0234146  12.4273767  24.4654045  43.9755135  33.5277824
  24.4689808  43.8419495  32.5799522  23.9485970  44.7710037  33.6556129
  27.9317513  32.0590363   5.2693906  28.5998383  31.5137863   5.6848340
  27.1016960  31.7090378   5.5930290  84.5572891  61.8680229   4.9874945
  84.6301956  62.7768860   4.6961427  84.9963608  61.8531723   5.8379235
  81.3033295  71.3840408  74.0620728  81.8158569  72.1884537  74.1424866
  81.8024826  70.7318573  74.5537415  29.2361603  53.3652229  49.3177719
  28.9073334  53.9527054  49.9981880  30.1748886  53.2980881  49.4924545
  68.9875107  58.0430412  29.4642334  69.2121735  58.9146271  29.7899570
  68.2098389  57.7938423  29.9635906  78.9869766  63.4026489  77.1949234
  78.7804413  62.4923210  76.9830856  78.1732254  63.7553329  77.5549927
  84.7882385   2.2153337   5.9482827  83.9816208   2.5717673   5.5760584
  85.3724365   2.9700916   6.0209661  29.3135414  64.3703995  35.3248940
  29.9319534  65.0910873  35.2048531  29.7196465  63.8146019  35.9900246
  56.5215263  30.1720791  32.1238022  56.5540504  29.3455906  31.6420460
  55.5921707  30.3034077  32.3116379  62.0136414  25.8900433  13.9940262
  61.1464844  26.2829380  13.8945265  62.6224022  26.6171837  13.8639784
  50.5689087  28.0136719   1.9193544  49.7970276  28.5710621   1.8206071
  50.9018211  28.2181911   2.7931807   6.5207915  53.8143654  47.5477028
   6.3258266  53.7602882  46.6121292   7.3058491  54.3597298  47.5976295
   8.2404308  71.2620010  76.7572021   8.0328617  71.4127350  77.6793900
   8.2985363  70.3099136  76.6772995   3.2748122  21.6980381  81.1374893
   3.0467730  22.5324402  81.5473709   4.1316333  21.8527889  80.7398148
  54.1201553  32.3832283   4.7366395  54.4196243  32.3319931   5.6443424
  53.9403915  33.3127937   4.5958438  55.8852997  32.9831772  63.8037262
  55.2545395  33.6700821  64.0194397  55.4127464  32.4029121  63.2068863
  80.7680359  33.0171356  56.4798050  80.9309387  33.9234314  56.7411880
  81.1051865  32.4938545  57.2069473  66.1692963  36.1167068  13.5967751
  66.0648880  36.5989990  12.7765779  65.2797852  35.8573112  13.8370018
  70.3490524  52.8766479  86.9892654  70.8641739  53.0327873  86.1977386
  70.7104645  53.4847908  87.6340714  82.0894775   2.9252949  41.0580711
  82.3198624   3.4062047  41.8529816  81.5135651   3.5195739  40.5770416
  44.3855972  26.0622444  68.0948944  43.9692116  25.9403973  68.9481277
  45.1528549  25.4904366  68.1189728  33.4273605  36.8677635  77.7353439
  32.8895454  36.6865005  76.9645462  33.6486855  36.0032845  78.0816422
  82.3995819  52.3282356   3.2567830  82.5641708  51.8067474   4.0423980
  81.8283234  53.0361977   3.5545859  70.4315643  27.6572075  67.0307617
  69.7189102  27.9748173  66.4762650  70.0084457  27.4329243  67.8595581
  45.7742691  16.6125546  69.3295593  46.1473618  17.1659451  70.0157013
  46.5343590  16.2507763  68.8739166  36.5194931   4.0136466  83.7009964
  37.0292931   3.2046552  83.7442474  37.1524582   4.6818585  83.4381638
  82.9790802  11.8814487  78.1281128  83.0960693  12.7056494  78.6005936
  82.4603958  11.3372583  78.7206039  41.2938271  46.6587448  67.9602432
  41.6653137  47.5408783  67.9516144  41.0441628  46.4950981  67.0507812
   0.3108331   7.6730328  27.9341774  -0.3174151   7.4697165  27.2412148
   0.2070122   8.6128111  28.0834122  44.7108574  68.9594955  40.5011787
  45.1446762  68.1407471  40.2610245  43.9808006  68.6893082  41.0581779
  56.9396210  48.0124207  54.6109543  57.7497406  47.5145874  54.5009499
  57.1677246  48.7078056  55.2279167  23.1351509  49.5027084  75.2141876
  22.6489925  48.6819496  75.1351929  22.8899078  50.0022621  74.4353867
  58.6494370  38.2504311  56.0145340  57.8743401  38.2046623  56.5743179
  58.3020020  38.4095573  55.1369209   9.6723232  47.5703316  37.2905388
  10.2948284  47.4438705  38.0065880   9.3368063  48.4575882  37.4187469
  53.7563782  45.3505020  64.6903000  53.6761475  46.2597198  64.9785995
  53.2937050  44.8454933  65.3589783   4.0137372  71.6974258  55.8387871
   4.3750005  70.8589859  55.5511284   4.6494479  72.3474579  55.5395126
  42.7480621   6.2320294  40.7229004  42.4727058   7.1105943  40.9846916
  42.3991470   5.6584291  41.4051552  53.4049683  65.1964569  22.9695339
  52.9301033  64.5007401  23.4241924  54.3102264  64.8871002  22.9373951
  20.4737167  60.2788925  82.4621887  20.2169266  61.1518211  82.7593155
  20.5953255  59.7775841  83.2685013  79.0668030   1.4097484   8.3973780
  78.1568985   1.2838460   8.1281919  79.5380249   0.6783729   7.9982963
  70.3813934  20.7955170  51.1068954  70.6055450  20.0836525  50.5075302
  70.7345963  20.5172997  51.9519272  43.2752075  41.0304260  59.7456093
  43.6089821  41.3529587  58.9084740  43.7173119  40.1909485  59.8723106
  84.3951035  35.6559639  48.0796204  84.7160110  35.9683723  47.2336617
  84.8605804  34.8319283  48.2228928  74.4064102  47.6289215  45.5760880
  74.7217026  48.0328293  46.3845940  73.7027054  48.2056885  45.2788162
  60.4140930  11.5104990  17.0873280  60.7635574  11.2816868  16.2260780
  61.0808449  11.2087002  17.7042484  84.3857040  33.3406372  25.9634132
  84.7626801  32.8149872  26.6689720  83.7462845  32.7615318  25.5486774
  40.8022003  15.3730221   9.2951889  40.1827850  15.6815100   8.6338329
  41.6223793  15.2513638   8.8169250  33.0243988  43.0926971  74.9255905
  32.4655151  42.5541153  74.3654022  32.5177193  43.2080345  75.7294617
  84.9233093  64.0279007   3.0227466  84.4961853  63.7942123   2.1986160
  85.8578186  63.9161873   2.8482819  79.9682846  46.4283905  41.4031563
  80.0705185  46.2969856  42.3457642  80.7468109  46.9214211  41.1442299
  61.8462029   3.9214151  87.1778030  61.8650322   2.9673269  87.1030121
  61.3842621   4.2141690  86.3922195  66.0108414  52.7062263  22.1696110
  66.8699570  52.4473000  22.5029335  65.6237106  51.8922844  21.8473473
  81.8813553  19.4154549  64.4734726  81.2378922  18.9168606  63.9699020
  81.3744125  19.8164463  65.1794815  25.8186779   8.2613239  13.4827499
  25.0879784   7.6437616  13.4523144  25.9184055   8.4687710  14.4118633
  59.0423203  63.6464081  74.0124893  58.9478645  63.1468964  74.8235397
  59.8780975  63.3552933  73.6478577   8.2552814  16.5526218  63.1934509
   8.8084965  16.0967026  63.8277435   8.2584600  17.4644489  63.4846458
  49.5293388  50.4783707  46.6420364  49.0512466  49.8961334  46.0515671
  50.3573036  50.0266609  46.8053322  52.0675621  69.5831223  84.8414688
  52.0397530  70.5260620  84.6792145  52.5640030  69.4946289  85.6550674
  61.9502983  33.2158585  42.3762932  61.9207268  33.3648834  43.3213577
  61.9594345  34.0940170  41.9955215   3.6055977  47.3218231  58.4043121
   3.5041826  47.1088715  57.4766273   4.1283779  46.6028709  58.7593269
  36.7420883  16.1757393  71.9359818  37.0545769  15.3019142  72.1705322
  37.1034203  16.3331795  71.0636978  31.4336567  61.8917999  15.2427139
  32.1350899  61.3182678  14.9340258  31.4367638  61.7834587  16.1937580
  71.8546906  16.8405190  42.3104439  72.0362015  16.5703983  41.4102669
  71.0292282  17.3218536  42.2542381  69.6537170  47.1887703  51.4089050
  69.1251907  46.3921585  51.4568520  69.0165329  47.9018402  51.4508209
  60.2390213  20.0552616  24.9485493  59.7092781  19.9358196  25.7367992
  61.1434593  20.0105038  25.2587471  65.9885101  20.2123051  34.4884567
  65.4982834  20.2049255  35.3105583  65.6395111  20.9631672  34.0082130
  56.9909439   8.9059229  89.3741226  56.2426491   8.3272772  89.2276459
  56.9640579   9.5221796  88.6421814  29.2842903   2.5259616  15.8494530
  29.6070480   1.7537719  16.3139782  28.5256844   2.2103672  15.3583851
  37.0268745  63.0049706  82.8408432  36.7290115  63.8186302  83.2476120
  37.2650108  62.4420929  83.5775223  73.9871902  50.8897362  34.9862938
  73.1610107  50.6374855  35.3986359  73.7626343  51.6444664  34.4420624
  45.9656143  54.3773422  24.4391708  45.6729126  54.3589058  25.3503342
  46.2787323  53.4887352  24.2701645  67.4469070   1.9208703   0.6123335
  67.3661423   1.2312762   1.2712486  67.3198242   1.4703978  -0.2226258
  69.4514389  58.8619308  50.5347481  68.5468597  58.8111916  50.8436050
  69.6234894  59.7997589  50.4504280  77.8754120  65.8232498  85.6005936
  77.0642548  66.3312302  85.5859604  78.5638199  66.4663315  85.4309616
  68.6742783  48.6645546  22.5377884  68.7658234  48.6809654  23.4904594
  69.5683517  48.7602005  22.2095795  65.0427628  52.1710014  31.9786987
  65.7173309  52.8452797  32.0595169  64.2335205  52.6588974  31.8259754
  67.0053635  66.6090546  69.1966476  67.1354599  65.6940918  69.4459305
  66.0549393  66.7105255  69.1453934   2.6045203   3.2054026  55.3463402
   2.1931777   2.3424716  55.3951149   3.5441253   3.0228271  55.3399620
  57.2570992  70.0888672  48.4349976  56.5986824  70.4087067  49.0517807
  57.9743004  69.7804565  48.9888382  50.4533234  49.1821289  15.5771255
  50.0579834  48.3225670  15.7223654  49.7403717  49.8024559  15.7291956
  83.6048508   5.4376464  23.9488125  82.8120728   5.9520731  24.1008091
  83.5051880   5.1015763  23.0581074  81.2158051  69.7938995  52.1397362
  80.9842682  69.9652481  51.2269058  82.0977707  70.1535568  52.2346916
  38.9448204  29.7446537  14.6507063  39.8032646  29.8960953  15.0461407
  39.1383896  29.4870377  13.7493763  62.2872086  56.7237320  86.6069946
  62.7536125  57.4244308  86.1512375  62.9475517  56.0437355  86.7403412
  60.8749313  55.8960266  42.5458450  60.7420654  55.6989479  41.6186218
  61.7237015  55.5057526  42.7544289   3.9400873  30.8245163  75.3776474
   4.1361532  30.8149624  74.4407883   4.5251741  30.1656380  75.7515259
   7.2024412  45.6853447  69.0773773   6.8506546  46.5743408  69.0307999
   7.1456189  45.3579407  68.1797104  70.5434647  20.0231285  28.8446636
  70.0294266  19.4246731  28.3025894  70.5818405  19.5974560  29.7011452
  82.0453644  27.6367512  83.1532669  81.9761658  26.6993675  83.3342590
  81.1542816  27.9034634  82.9272614  30.4693146  70.9870453   8.7797518
  29.5180168  70.9937744   8.8856783  30.6964817  71.8988876   8.5976353
  29.2849903   1.8504263  47.5882263  29.2780895   1.2832862  46.8171654
  30.1904964   2.1535747  47.6544800  73.3408356  69.1538773  42.0463448
  73.9760742  69.7567444  41.6600037  73.1536789  69.5237198  42.9091454
   3.8061519  68.1177063  11.9229002   4.6084242  68.6384430  11.9607019
   3.1072028  68.7395935  12.1252861  15.6548681  29.4766273  12.3743582
  14.7732010  29.5299053  12.0054998  15.9752903  28.6156101  12.1056376
  65.7209549  33.6352768  58.5521965  66.0620117  34.0568161  59.3409996
  64.8608780  33.3039436  58.8104935  49.7531853  13.0799637  78.9378433
  50.5151672  12.6050396  78.6060867  49.1825638  12.3987083  79.2935333
  71.3479614  58.4594574   2.1068501  71.2435226  58.2488098   3.0347264
  72.2917252  58.5694847   1.9909700  19.1816502  58.4723625  74.2190094
  19.4297676  57.8202286  74.8742905  18.5191269  59.0090218  74.6540833
  63.6293030  54.0396996   0.2928002  63.5896111  53.0862465   0.3675351
  63.0033951  54.3572273   0.9436786   0.6409239  67.3772278  69.0566330
   0.2187511  66.8588028  68.3716202  -0.0259556  68.0099106  69.3234940
  34.5484886  27.2106438   8.5253372  35.0277023  27.5979710   9.2578411
  33.7704849  27.7601871   8.4307528  52.6856880  24.8371067  29.0956459
  52.8248901  23.9750004  28.7036953  52.0024300  25.2372417  28.5577984
  47.8553581  27.3867950  88.3541031  47.3445396  27.4416885  87.5464630
  47.9561310  26.4478359  88.5104141   7.4435515  50.7692032  76.5912704
   7.0177603  50.3982506  75.8183975   7.3030443  51.7127457  76.5124435
  20.2002106  70.5981827  83.4803848  20.6807346  69.9350586  83.9759598
  20.0281601  71.2936401  84.1151810  21.2228832  49.0300102  41.6783333
  21.7358952  48.8468857  42.4654274  20.4109612  48.5383263  41.8018608
  54.9930305  71.7757416  32.2102814  55.7295647  71.1889038  32.0388794
  54.6039124  71.4419327  33.0186081  67.6590500  15.5582056  70.0016937
  68.0158615  14.9710522  70.6681519  66.9584961  15.0536823  69.5882721
  47.5278282  17.5505657  84.2329788  47.8316956  17.5806484  85.1401672
  46.6601639  17.1496124  84.2841873  46.9179916  55.5350456  76.9415894
  46.2290192  55.4695396  77.6028442  47.6515045  55.0429420  77.3104019
  72.5723495  60.7656708  73.2053528  71.6965561  60.7682915  72.8190613
  72.6146393  61.5788803  73.7084732  84.2086792  15.6275921  50.7431984
  84.7340546  16.3850079  51.0011368  83.6884384  15.9381294  50.0021515
  15.6747313  66.2869034  74.7767868  14.8095999  66.0225754  75.0896912
  15.7257013  67.2219849  74.9749374  12.0621204  41.2981186  51.5352783
  12.6627970  40.8763695  52.1497269  12.2013340  42.2355766  51.6695251
  47.8661270  66.0598373  75.3939667  48.2904243  65.6870728  76.1667862
  47.0009766  65.6507111  75.3749619  25.6752033   9.9095144  15.9105244
  25.9715557  10.2826176  16.7407055  26.2341137  10.3196812  15.2505131
  80.0248260  50.4824524   4.6841903  80.8731995  50.5449295   5.1230445
  79.6303406  51.3466797   4.8013458  29.1999035  58.2109642  72.9969788
  28.3273449  58.0875740  72.6232834  29.0764275  58.8683052  73.6817322
  81.4648361  67.1017303  52.8227882  81.3657684  68.0537262  52.8343773
  82.3477707  66.9486923  53.1592903  75.4289856  56.3399429  88.6188660
  74.5795059  56.4088249  88.1831207  75.4005203  55.4945297  89.0668564
  38.7282448  64.6917114  19.4939613  39.5166283  64.9619980  19.9647369
  39.0507660  64.3671646  18.6532001   0.7985004  18.0388565  12.6187916
   1.3328440  18.3032284  11.8699141   0.9352646  18.7301712  13.2665653
  56.5234680  11.2572403  81.6241531  56.5457993  12.1801529  81.3712311
  55.7553482  11.1825943  82.1904068  74.9495544  29.5215931  23.4430542
  75.3551636  29.5190964  24.3100643  75.4306793  28.8558140  22.9516315
  22.8054752  49.3406448  53.1059837  23.6568375  49.1481590  53.4988747
  22.9441795  50.1536827  52.6202278  16.1583900   5.3137693  83.8267059
  16.3905640   6.2301536  83.6764832  16.9208870   4.9432702  84.2711868
  12.5620146  36.1716614  24.3309002  12.0328217  35.4408112  24.6503448
  12.2009916  36.9400253  24.7730656  47.6451111   8.3716640  25.5965271
  46.8312187   8.8746805  25.6246223  48.3027039   8.9969110  25.2917824
  56.0818443  28.6673622  54.1926727  55.3831329  28.7309628  53.5415306
  56.5761375  29.4810791  54.0938416  75.0887299  42.3703346  62.5939560
  74.5129089  42.0933075  61.8812714  75.7612839  42.9003639  62.1662102
  59.6396370  44.5764236  15.9666977  60.2401314  43.8364601  16.0566521
  59.0846291  44.5304947  16.7452145  76.8550644  43.1039658  15.4265642
  77.0954590  42.2268829  15.1279449  76.9220657  43.6503372  14.6434793
  56.3569298  68.0701370  58.6320610  56.2465858  68.9791260  58.3531380
  57.3050652  67.9420700  58.6615715  30.5161037  13.0374107   7.6190395
  31.1737995  13.4425220   8.1843300  30.9863186  12.3351154   7.1696939
  46.7665787  56.6675911  20.5700321  47.5480347  56.9425545  20.0904999
  46.8919029  57.0166054  21.4524803  40.1210251  54.8426247  14.8970947
  40.4234619  55.7422714  14.7730303  39.6034012  54.6538582  14.1143637
  14.0214033  39.0957718  61.5252609  14.2666645  38.1706047  61.5374527
  13.9976988  39.3250504  60.5962296  14.2365589  47.5890503  20.6742344
  14.9636450  48.1805115  20.4799404  13.6271858  48.1192551  21.1878319
  31.1447601  50.1333923  55.5667496  31.2547512  51.0839920  55.5889511
  32.0152931  49.7869186  55.7625999  22.4348698  10.9578772   1.9971515
  23.2025204  10.3942785   2.0935922  22.3982296  11.1545763   1.0610965
  55.9803810  36.1705093  55.3046227  56.9012413  36.0363121  55.5287666
  55.5040741  35.9453049  56.1037750  78.6802979  40.4883003  88.8472824
  79.2522202  40.6118126  88.0897293  77.8499985  40.1916351  88.4746933
  65.2170105  14.5903540  68.9506454  64.3076324  14.7090349  68.6764679
  65.3059769  13.6465645  69.0832367   3.0624919   5.3811650  65.8344955
   3.0224392   4.4455209  66.0324860   2.1625588   5.6880598  65.9448090
  14.6885443  23.0092545  70.7130280  15.6318989  23.0224400  70.8747025
  14.6079426  23.0643158  69.7608185  60.8737488  19.4265347   7.0287423
  60.3345757  19.5949345   6.2559781  60.2587547  19.0923653   7.6816926
  10.0603418  54.9868317  61.2699394  10.8859472  55.3937798  61.0072594
  10.3225451  54.2271500  61.7899017  22.6010952  70.4807205  24.2631435
  22.4704533  70.5562515  25.2083740  22.6908932  71.3844681  23.9607964
  33.0205536  42.0599632  19.8509731  33.1699715  42.5872879  19.0662212
  33.8743439  41.6737213  20.0461407  46.5142403  14.3091536  11.8559542
  46.6478462  15.1913996  12.2023983  47.1586723  13.7711267  12.3158064
  82.2789764  37.7067680   8.1615067  82.6964188  38.2223206   7.4714532
  81.5250778  37.3003731   7.7340512  34.2031708  24.6527901  68.5468521
  33.8362961  24.7990131  67.6749268  33.9250374  23.7665882  68.7781982
  85.3026352  63.6709633  42.7691002  84.8780746  64.4354172  42.3797493
  86.2383194  63.8676109  42.7237320  71.2672806  13.3057575  23.5500793
  71.5826721  13.3013258  24.4538174  71.0770187  12.3874712  23.3582935
  78.3921967  36.1410751   5.0761671  78.4502106  36.9167366   4.5183029
  77.8587799  35.5246048   4.5745044  71.4834671  61.6279449   3.4612846
  72.0209885  62.4052391   3.3092556  71.0863113  61.4412575   2.6106074
  41.0389328  58.1017723  72.9169922  41.1687202  58.3651199  72.0059357
  40.5667648  57.2709999  72.8612289  14.8545704  68.8315430  84.4205093
  15.5277462  68.5533981  83.7994614  14.8281479  68.1326599  85.0740356
  22.0686283  54.8036499  56.3773994  22.7922993  55.4085541  56.5405540
  22.4696560  54.0709953  55.9098282  54.9854469  36.6352005  52.8409500
  55.7440834  37.0066299  52.3906784  55.3349800  36.3095894  53.6704254
  36.6314316  60.8733711  17.0265026  35.9704170  61.2447052  16.4422073
  36.3035011  61.0573120  17.9067631  29.4089279  20.6615734   1.5791641
  28.7416420  20.0031986   1.3855040  29.1883183  20.9754353   2.4561217
   6.1542349  20.0224972  15.8582535   6.8319902  19.9746361  15.1840210
   5.3303127  20.0036068  15.3713989  12.7651453  34.7372131   3.8043833
  12.4751797  34.8072052   4.7139177  12.8834925  33.7980423   3.6623232
  39.1314087  40.9649162  13.7282867  38.3495636  40.9010277  14.2767973
  39.7267227  41.5268555  14.2243290  11.1944160  23.4810505  81.6735840
  12.1332684  23.6210365  81.7968445  10.9207993  24.1904125  81.0920639
  33.5377121  62.0163422  33.8300781  33.3032303  61.0993423  33.9727707
  33.7889557  62.0585365  32.9074059  35.1518707   7.9025965  11.5295773
  35.4010735   7.5279579  12.3744307  34.1981430   7.8249106  11.5050840
  86.4287643  66.9639664  34.5507317  85.5053787  66.8011780  34.3581161
  86.4195938  67.4456253  35.3778648  75.8123245  66.7246246   2.9097273
  76.2522888  65.9994583   2.4661179  75.2360840  66.3017044   3.5463765
  43.4989014  59.3256073  54.0312958  42.5911942  59.0233879  54.0623627
  43.4786034  60.1878395  54.4464760  82.9006195  38.5803909  25.1943588
  83.2467194  39.4286118  24.9169254  82.6713486  38.1365891  24.3778381
  45.2835350  60.6971359  33.1107712  45.7107086  61.3694687  33.6415482
  44.3518448  60.9117470  33.1568184  15.9438095  65.2039337  44.0385361
  15.8282080  66.1540375  44.0252991  15.1279259  64.8685379  44.4101257
  58.9835854  55.2599602  62.0510254  58.7317924  55.6054230  62.9074631
  59.2430801  54.3551064  62.2246170  52.9799309  56.0377274  47.4699020
  52.0270424  56.0432625  47.3793182  53.1848526  56.8699875  47.8960228
  73.1799622  42.7972679  13.4313316  72.2753143  42.7079849  13.7311134
  73.7084122  42.6331940  14.2123928  46.0590706  67.9944382   8.9041824
  46.2289429  68.2046890   7.9859400  45.6205368  67.1440048   8.8780031
  11.2838135  25.8060646   4.2763410  10.6147423  26.3854046   3.9117301
  11.7220917  26.3356915   4.9424047  22.1500931   4.5484996  57.2361565
  21.7655659   5.3431525  57.6061516  23.0084782   4.8248267  56.9151459
  53.4592857  46.3229904  47.9479370  53.6462898  45.5000381  47.4962616
  53.9807892  46.2801628  48.7494583  69.1738968  53.7773705  25.9662685
  68.9306335  53.8634491  26.8880291  70.1303329  53.8156471  25.9663925
  42.6303749  59.9967880  42.8820648  42.4187164  59.5718155  42.0509033
  43.0996552  59.3277512  43.3804665  43.7672119  19.4071503   1.5461202
  44.2691154  20.2065392   1.3870522  43.7941933  18.9375324   0.7124760
  22.8271961  22.8560181  18.2283249  22.0431805  23.4031944  18.1819878
  23.4155312  23.2241955  17.5691280  71.6390915   1.9921911   1.9860483
  71.8227997   2.3475046   1.1164298  72.4577637   1.5731694   2.2514200
   8.4706059  16.3467216  15.0479527   8.1150074  16.4758720  14.1686907
   9.3832817  16.6273365  14.9808016  35.2186317  40.0872993  29.1441574
  36.0226822  40.4860420  28.8113728  34.5236435  40.6865540  28.8719196
  81.3265915  49.2982216  34.6688690  81.2492218  48.5564957  35.2689476
  80.6676865  49.9222755  34.9732285  82.4055023  20.0519028  49.8580360
  83.1763000  19.5006371  49.7231178  82.7598953  20.9315624  49.9877777
  35.6266098  44.7889977  23.0976486  35.3704376  44.5186272  22.2158852
  34.8325653  45.1714668  23.4710655  67.0870667  24.6535587  16.0107956
  66.5788345  23.8483086  15.9133120  66.9307404  24.9275265  16.9145298
  33.7920532  66.4618454  59.4151955  32.9723549  65.9994202  59.5897865
  34.4189453  65.7685165  59.2089348   5.9009786  34.7882996  81.9762955
   5.0628371  35.2465096  81.9147034   5.9832149  34.5629425  82.9029465
  80.5026474  17.8160763  46.9344025  81.1105957  17.0898399  46.7957840
  79.7589798  17.6178474  46.3652916  81.4209747  51.3061142  27.2581348
  81.6412430  50.5958214  27.8607941  81.6097412  52.1050568  27.7503624
   8.8695812  33.1449318  15.0951538   8.4156637  32.8616562  15.8888445
   9.2604294  32.3447304  14.7442293  73.5764694   6.9710426  49.5155983
  73.3481064   7.8545737  49.2267151  72.9391479   6.7709942  50.2011833
  53.1101151  21.6672878  36.3355370  52.2806778  21.9599590  35.9579086
  53.0589142  21.9260788  37.2556686  26.4667320  36.5480576   2.4636350
  26.4890099  35.6119614   2.2649992  25.9663849  36.6083794   3.2774205
  85.9904175  69.4095612  55.7527695  85.0499344  69.4446487  55.9273605
  86.3459778  70.1771240  56.2007141  74.0184860  20.3881950  84.6218872
  74.6090012  21.0495586  84.9826050  74.5706024  19.6161518  84.4979858
  56.8963165  55.2268105  80.0441666  57.6384811  55.0324135  79.4717789
  56.5681038  56.0703011  79.7326736  64.3854294  56.9251823   3.6181955
  64.8567123  57.7202072   3.3690898  65.0722809  56.3106232   3.8766201
  55.2003250  24.8146973  30.1267586  54.3037376  24.8777142  29.7975330
  55.7492065  24.9572678  29.3556347  13.7583551   3.0845952  80.2265091
  14.7041731   3.2294023  80.2527771  13.6275034   2.4900405  79.4878540
  84.2264709  29.7467155  45.4395142  84.6795425  29.6443768  44.6025620
  84.7898712  29.3020229  46.0728035  58.7534828  32.2705421  46.4022102
  59.2185135  31.9989300  47.1935387  59.2806740  31.9223080  45.6831589
   1.4638399  68.4701080  41.9435806   1.6670918  68.2504730  42.8528023
   2.0420458  67.9091187  41.4266663   4.0817184  27.2552586  73.7611237
   3.4657090  27.6553402  73.1473694   4.8110991  26.9650154  73.2134094
  21.1922054  45.7673111  66.1411896  21.1741142  46.1386719  67.0232315
  20.3480206  46.0109062  65.7613983  50.0977669  60.2824669  36.2568359
  50.5548935  59.6509743  35.7014198  49.2383003  59.8895340  36.4089928
  82.2908707  41.8390121  14.2707672  83.0366364  41.2689590  14.4581499
  81.5348816  41.3668976  14.6197891  48.5935822  22.3297100  17.2836056
  48.1200218  22.8368587  16.6242332  48.6545143  21.4501133  16.9110088
  44.2504807  42.3362274  53.8477859  43.4349823  41.8376846  53.8992577
  44.4084969  42.4407310  52.9095192  77.7447205  43.5977402  49.2958565
  77.7261200  44.3014946  49.9444046  76.9348831  43.1105804  49.4477615
  40.4797668  52.3858604  16.4953651  40.8517532  52.5443077  17.3629799
  40.4168892  53.2550278  16.0993519  18.3930588  47.7841644   6.3530798
  17.7429428  48.1224899   6.9688058  17.8964424  47.6055756   5.5545130
  36.1245422   0.1310645  77.2182922  36.5446548  -0.5375955  76.6773376
  36.7234879   0.8769897  77.1852264  78.8642502  23.1225128  38.4923897
  79.7173309  22.8517933  38.8317909  78.4744644  23.6318893  39.2029114
  61.9785919  49.9185295  85.1705017  61.2582932  49.2885437  85.1477585
  62.2624588  49.9907799  84.2592163  63.4117508  69.6940231  16.8757305
  63.6697311  68.9230576  17.3809967  63.3469162  69.3788757  15.9742250
  61.1987724  47.1571693  34.1927338  60.7697258  47.8382149  34.7107353
  62.0892868  47.1163712  34.5413704  29.5808659  54.4312477  65.2317963
  28.6330204  54.5620995  65.2582016  29.8182201  54.5830612  64.3170013
  19.7433071  64.4328537  28.0220833  19.4990482  64.8262634  27.1843491
  19.4473305  65.0637283  28.6783104  44.3191872  29.9523792  67.4822693
  45.0809555  30.5078278  67.3166885  43.5693092  30.5395546  67.3866806
  33.8392525  58.4993095  38.5086517  33.3702774  58.6623917  37.6903038
  33.8157616  57.5480728  38.6127014   4.5858922  11.6022177  18.9793797
   5.1236968  11.6770134  18.1910877   4.5058975  10.6597347  19.1262093
  37.2824974  58.9192543  59.6333199  37.5049820  59.0404930  60.5563736
  37.1980820  57.9714203  59.5297890  40.1343155  24.7417355  43.1013565
  39.8856201  24.3812542  42.2502174  40.4327164  23.9840393  43.6044312
  21.8300304  33.8345375  63.9602966  22.7369099  34.1408005  63.9620972
  21.8723469  32.9629707  63.5668373  83.7600174  28.0991840  85.2604294
  83.7821045  29.0384808  85.4433594  83.3234787  28.0307388  84.4113235
  81.8788757  32.5751610  58.7406311  81.1861572  32.1084023  59.2080803
  82.4293900  32.9420853  59.4323845  80.1890869  69.8717880  86.6670380
  79.7184677  69.9601974  87.4958496  80.6772842  70.6905518  86.5802994
  31.2787647  52.0089951  63.4640999  30.3356304  51.8490486  63.4979401
  31.4110584  52.7792168  64.0168076  85.3987961  43.7272949   9.2408590
  85.9686661  43.0086060   8.9670649  84.7706223  43.8210106   8.5247278
  52.0544624  49.6584015   4.2059183  53.0077209  49.6154366   4.1305585
  51.7868767  48.7556229   4.3780313  55.1841164  17.3315258  61.6082993
  55.6871071  18.0971813  61.8857880  54.4216652  17.3232708  62.1869469
   3.9286029   3.3822017   5.0262604   3.8804510   4.0963888   5.6617517
   4.8653574   3.2650113   4.8681808  22.1561832  69.3687897   5.6455808
  22.2768269  68.6115570   5.0726304  22.2727337  69.0211182   6.5297599
  52.8860474   5.5805850  67.8733673  53.5224915   5.9364953  67.2532883
  53.2072411   5.8572569  68.7315750  37.0458260   0.3342215  19.2241936
  37.1009216  -0.5044398  18.7661076  36.7688408   0.9566508  18.5518169
  25.8979034  14.2855635  73.4514999  25.3642387  15.0777407  73.3891296
  26.6140232  14.5249062  74.0398254  79.3452759  54.1676712  20.0879307
  79.5063400  53.2249107  20.0493736  79.0057526  54.3883171  19.2205925
  50.4203415  47.3460083  56.3661270  50.9093094  46.8202133  55.7331352
  50.1261292  46.7162209  57.0241814  31.6045799  22.2380047  71.5716476
  32.3002090  22.1971779  72.2279053  30.9070511  21.6874561  71.9274292
   4.1718779  47.1972809  27.5883675   4.1927342  46.2409630  27.6237831
   4.0834708  47.4689178  28.5019493  40.6418915  10.3664131   2.1180987
  40.1458397  11.0117168   1.6143655  41.1858940   9.9218330   1.4679890
  27.6418552  25.4949799  82.4875183  27.5416870  26.1920319  81.8392029
  27.5438652  25.9365902  83.3310928  78.2589722  49.9952354  45.5863419
  78.6710892  50.6571388  46.1415672  77.5678024  49.6209641  46.1326370
  68.5874329  50.9107704  19.7070770  69.0141220  50.4415321  20.4240017
  69.2105484  51.5957947  19.4647942   0.7359478   9.6128073  45.2103004
   0.1509387   8.8625736  45.3158722   1.6069191   9.2263956  45.1190491
  44.4062119  20.9686890  68.7247543  44.1981544  20.3312893  69.4078827
  44.8860359  20.4661446  68.0663834   1.1811821  66.3337326  52.7460899
   2.1061895  66.4788437  52.9449310   1.1242999  65.4010925  52.5383186
  11.3246641   0.6725136  65.6277695  12.2634916   0.8109732  65.7529221
  11.0918074   1.2516073  64.9020538  69.8434982  41.9030571  24.6764393
  69.7333298  42.5395622  25.3828087  69.4405060  41.1018639  25.0109749
  70.7037354  10.3756065  34.2253723  70.2041855  11.1715517  34.0432968
  71.0390472  10.1026697  33.3713799  82.2381058  67.9302750  82.0384216
  81.5574722  68.5749283  82.2317886  81.8424377  67.3526764  81.3856888
   0.1122561  52.0936165   5.6078405   1.0329673  52.3553848   5.6083727
   0.0973573  51.2711983   5.1183138  63.4738159   9.2741747  23.5694828
  62.6587639   9.6024895  23.9491291  64.1635971   9.6930828  24.0842152
  44.3566666  10.7737341  76.0667343  44.4345322  10.5746222  75.1337204
  43.6952972  10.1608858  76.3880463  76.0035477  43.8400421   4.3854003
  76.0234146  43.7600098   5.3390417  76.5101700  43.0909882   4.0715775
  57.5594673  68.0719528  50.8684196  56.6884346  67.9346771  51.2408218
  58.1560631  67.9672012  51.6095886  40.2670784  48.7401772  64.0005569
  40.8946381  49.3174324  63.5656166  40.0068665  48.1156921  63.3234062
  79.3856201  41.5036087  34.5201035  79.7821655  41.2621117  33.6830444
  80.0383377  42.0623360  34.9420166   5.3780842   4.3581300  75.5205231
   5.2214026   3.4285183  75.6863708   5.5616140   4.7278876  76.3841324
  81.7510300  22.8643303  -0.0040390  81.3130722  23.0499763   0.8266006
  81.3082123  22.0847473  -0.3392874  75.2352371  20.5485420  89.4078751
  74.4022064  20.9897327  89.2415848  75.2802353  19.8627510  88.7416229
  60.9534798  31.5614586  80.8252487  61.5898361  32.0572624  81.3404770
  61.2086639  30.6467495  80.9453278  10.3462725  48.8147278  20.4600868
  10.1036911  48.0373573  20.9631577   9.5705976  49.0119133  19.9350357
  32.8736458  62.8745193  13.0727978  32.8406715  63.7896690  13.3514576
  32.1163330  62.4683456  13.4943790  50.0717964  45.6813393  64.8668289
  49.8094673  46.4916153  65.3037109  49.3240967  45.0947189  64.9811020
  41.8911018  19.8231030  83.4263992  42.6367874  19.9861183  82.8488083
  42.2462044  19.9222298  84.3097458  16.7839851  50.2934151  49.3493118
  17.2850342  51.0986748  49.4786835  15.8704891  50.5790825  49.3370209
  45.8946342  24.9110546  64.0510483  46.2094879  24.3053951  64.7220688
  45.0219612  25.1668720  64.3497543  66.3467865  40.9698715  43.8854179
  66.7932587  41.1663971  43.0618439  66.6770248  41.6258202  44.4993439
  53.2816391  11.8046303  35.4429398  52.3603897  12.0575237  35.5027351
  53.5536156  11.6740465  36.3513489  31.6261463  30.9946175  18.2460938
  31.8743992  31.4110794  17.4207687  30.6692276  30.9795971  18.2284622
  55.2117119  53.5030746  69.2720490  55.0523987  53.7957649  70.1693649
  55.2494850  52.5486679  69.3345718   1.8307309  12.9861412  23.8474007
   1.2535352  12.8338499  24.5956554   1.2788752  12.8239470  23.0823002
  21.3643436  11.3283901  15.3106794  21.3396721  11.5366879  14.3767443
  21.7053032  12.1215496  15.7240505  17.3256016  67.2985535  54.6583595
  16.6298122  66.8573608  55.1456566  17.1814270  67.0401230  53.7480507
  72.5712585  24.9501419  54.8185539  72.7732849  25.8466377  55.0863419
  72.7207565  24.4257336  55.6052437  38.8520050  47.9970436  88.0927277
  39.1002159  47.3808365  87.4035950  39.4447403  47.7974777  88.8173447
  13.7441978  23.8207912  10.1126585  13.8121824  22.9428883   9.7372961
  12.8307009  23.8928928  10.3893471  24.9295101  16.9436321  72.9837189
  24.6375751  17.3065033  72.1474609  25.2007961  17.7065449  73.4942093
  12.2177410  32.7354012   8.3158960  11.6258554  32.2632866   7.7302260
  13.0905113  32.4233894   8.0768318  35.1500854  66.9694672  18.5831623
  34.4129143  67.3779602  18.1293545  34.8145485  66.1195908  18.8684044
  70.2594376  55.2818794  79.8842621  70.7424088  54.5614319  80.2891312
  70.8321609  56.0418968  79.9872208  56.9909363  17.7574520  21.9754772
  56.3895454  17.0676727  21.6948299  57.5591125  17.9022789  21.2188854
  11.1425104  69.2588120   0.1912076  11.7555084  68.5305557   0.0907075
  11.5897570  70.0051422  -0.2077902  66.9605560  55.8398666  68.1717300
  67.1499786  55.6868172  67.2460251  66.6775360  56.7534523  68.2104263
   4.9527497  57.2458458  74.8103867   4.2094398  56.7487831  75.1519318
   4.5631957  57.8663521  74.1943893  80.3578186  51.6583633  87.4803238
  79.6114731  52.2486992  87.5838013  81.0804672  52.2293320  87.2195511
  48.8591652  29.9820156  39.4690475  48.9119072  30.1386967  38.5262299
  49.6597824  29.5003319  39.6769524  53.1280441  11.7530565  50.3567429
  52.9861946  11.5263014  51.2758141  53.7950325  11.1350231  50.0577545
   4.2675567  17.3312092  62.4869690   4.5306659  18.2065735  62.2028198
   4.2804656  17.3757763  63.4430466  85.5581207  65.4072495  38.2715683
  84.7799072  65.9594574  38.3469543  85.3328705  64.6093292  38.7499199
  42.3076935  64.2262497  66.0941391  42.6651344  63.5250969  65.5493011
  43.0779037  64.6817169  66.4340820  68.6810532  20.0868549  24.4266338
  68.2688065  19.2271519  24.5114708  68.7729111  20.2163296  23.4826908
  55.6566849  36.6570740  79.4693298  54.8001060  36.7692261  79.0571060
  55.7688789  37.4417953  80.0058517  80.3764954  31.8549232  19.3996277
  79.7898712  32.1728058  20.0859623  80.1074066  30.9476547  19.2558022
  55.9424896  28.9658318  47.9559898  56.5471878  28.3369637  47.5621605
  56.5092773  29.6046867  48.3882523  79.2790833  14.4059372  50.9638023
  78.7073059  15.1319647  51.2131577  80.1132126  14.6002769  51.3912354
  71.1936798  25.8202953  19.2748585  71.5271835  26.6443176  18.9199047
  71.7344284  25.6559982  20.0474052  78.1203766  63.7578049  71.8815384
  77.5431290  63.0298271  71.6511841  78.2789536  63.6502419  72.8193665
  58.3040123  50.0084152  55.7544479  58.2726631  50.7958183  56.2978134
  59.0491295  50.1498985  55.1704865   3.0820017  66.9673691  46.7543602
   3.8219573  66.3887558  46.9384918   2.3502040  66.5807648  47.2352371
  21.2504578  71.1678009  74.7281647  21.1520290  71.2341843  75.6779785
  20.9851665  72.0266800  74.3992691  33.8844414   7.4604955  15.0870590
  33.7021790   6.5208397  15.0947685  34.6730919   7.5471139  14.5515614
   9.9517927  12.0610533  66.6169205   9.7314587  12.1161165  67.5467834
  10.6527081  11.4105234  66.5749664  67.1817093  48.1674194  55.6533661
  67.0717468  49.0967484  55.8545876  68.0962830  47.9826775  55.8670197
  86.7488861  27.4310532  21.6243629  87.3295212  27.3198719  22.3771801
  85.9504318  27.8102551  21.9916630  55.6800995  26.4020596   7.4766483
  55.3919830  26.9941883   8.1713476  55.9525642  26.9818630   6.7654376
  46.0170860  68.7075500  71.7181473  46.7958298  68.2190704  71.4513474
  45.7258339  68.2743530  72.5204773  73.4566803  58.3566933  40.0303154
  74.1791840  58.2759705  40.6529770  73.5275040  59.2507553  39.6958504
  47.8417664  53.6253891  33.1439056  48.1484413  53.1437302  33.9121399
  46.9844894  53.2462921  32.9500198  62.4916306  71.0467224  82.4807968
  62.8334579  71.7751770  81.9623947  61.6817551  70.7958527  82.0364990
   0.1138907  22.6325264  50.8475342   0.0605390  22.8414268  49.9149323
   1.0269594  22.3800201  50.9845695   7.2325563   1.3732435  57.6319809
   6.9342904   0.7367062  56.9822960   8.1537886   1.1560311  57.7747459
  31.3790855  51.6598129  27.0828247  32.1154938  52.0123367  26.5831623
  31.4488335  50.7112427  26.9752121  12.7608061  60.5208397  48.2052307
  13.1403847  60.5449944  47.3268433  12.0430574  61.1533432  48.1734657
  68.3161469   2.9037285   5.4692030  68.1306152   3.8315573   5.3244853
  69.2717209   2.8480127   5.4711070   6.5660419  21.7103252   8.5733690
   6.7414479  22.4114990   9.2009192   6.8951464  22.0469494   7.7399383
  49.5976791  45.3434830  48.6950302  49.9814491  45.4378319  47.8232231
  48.6824455  45.6004181  48.5829239  79.9785614  19.9571171  48.6511040
  80.8961258  20.1462479  48.8474121  79.9898224  19.0744228  48.2810287
  22.0893879  31.5013809  84.4601822  21.8731823  32.1231308  83.7652588
  22.8728657  31.8655853  84.8721924   9.6841469  49.8916054  32.4357643
   8.7718782  49.8535309  32.7230797  10.1235342  50.4190331  33.1028404
  39.4757500   0.3509113  62.4888039  38.8831215  -0.0990842  63.0909042
  39.7243462   1.1514158  62.9509964  45.4984016  33.0777626  80.8903122
  45.5289078  32.1866493  81.2384720  46.0158081  33.5941772  81.5082397
  70.6884537  57.1941681  57.8462830  70.1678543  57.8008537  57.3198433
  71.2637329  57.7583199  58.3630219  18.3835983  21.0537376  80.1867676
  19.0224495  20.5372829  79.6954651  18.0413589  21.6805782  79.5494461
  13.8103294  56.2557373  66.4415588  14.5690651  56.6912804  66.0531540
  13.4358435  56.9088669  67.0326691  37.4422417  58.9375153   3.6144824
  37.2684746  58.1507263   4.1312051  38.1614876  59.3714561   4.0734110
  24.9045124  57.7003136  62.0804024  24.3271179  57.5140228  62.8207703
  24.5502529  57.1756439  61.3624496  12.8226948  70.6425171  85.1781158
  13.1515551  71.4941483  85.4658813  13.5618687  70.2427292  84.7198334
  56.8485107   9.2385225  76.3178101  57.7389183   8.9670534  76.0948410
  56.7409859   8.9788427  77.2328186  25.3067989  49.7325363   9.2694521
  25.5473537  50.6558952   9.1934681  24.8585339  49.6704369  10.1129179
  67.9077682  22.5768509  20.3044987  67.5077209  21.7796669  19.9570866
  68.6182404  22.7739296  19.6940784  82.1486130  12.0037632  16.6493835
  81.2098312  12.0920725  16.8141117  82.4665527  12.9044399  16.5867462
  77.8572159   5.3350782  40.4110565  78.5034866   5.6226454  41.0559349
  77.8337631   6.0405030  39.7644806  72.7896042  59.7596970   4.9560380
  72.5078125  60.3501091   4.2572970  73.6339569  60.1101456   5.2397470
  27.8615646  40.9229660  63.3128242  27.5759430  40.6132355  64.1723099
  27.8106575  41.8769188  63.3729439   9.0693531  40.9919052  53.4203339
   9.8918905  40.5365105  53.2406693   8.3908825  40.3416939  53.2383041
   2.8054798   8.4677525  67.5449066   2.3830018   8.7516174  68.3555603
   3.7329826   8.3963776  67.7704620  84.6884995  56.9504013  38.7103348
  84.4832230  57.1052284  39.6323547  85.6352081  57.0786858  38.6509209
  43.7585907   2.4433177  72.6123581  44.5143814   2.7903194  72.1384354
  43.1562309   3.1843171  72.6780472  23.3175755  14.3026676  51.1900330
  22.5144825  13.9668159  51.5881233  23.8873138  13.5369225  51.1174774
  53.2228279  28.1277390  30.1619434  52.3701172  27.8375702  30.4858551
  53.0589485  28.3873653  29.2553177  49.2869873  58.6879768  39.7591705
  49.3375053  58.0135689  40.4365578  48.3984642  59.0361366  39.8336143
  31.9741707   6.3525724  18.6094398  31.6317806   6.4083920  19.5015640
  31.2439041   6.0107741  18.0935745  39.8986740  71.5995026  17.7976341
  40.1406784  70.8627625  18.3587761  39.0487595  71.3534012  17.4325123
  40.9363785  21.3945160  75.3027878  39.9899597  21.2656651  75.3653870
  41.0657578  22.3213024  75.5041885  57.1566086  17.8275070  85.6549683
  57.2126503  18.6165218  86.1940002  56.2573395  17.5210495  85.7717285
  80.3929214  27.5632305  72.9835510  80.9254074  27.9477768  72.2872620
  80.0774536  26.7377720  72.6156769  14.8541756   3.3137648  60.8321686
  14.9320116   2.7808685  60.0408440  15.6207323   3.8866477  60.8114929
  66.6729355  45.3905907  56.6712303  66.7297440  45.3880043  55.7157211
  66.1842651  46.1867447  56.8799591  30.1584072  53.6275711  37.7484970
  29.3754654  53.0923309  37.6190643  29.8900852  54.2959366  38.3789902
   4.2847371  47.4266891   7.8469086   4.3816118  48.3736610   7.7464485
   3.6717217  47.1740608   7.1565294   5.9485707  71.0004501  72.4560165
   6.2597151  71.8481369  72.7735901   6.1674576  70.9987488  71.5241776
  74.5778580  37.9941711  60.4834442  75.3229294  37.3935966  60.5038605
  73.8492966  37.4840813  60.8373260  42.5419655  47.7541161  65.4854507
  41.5913506  47.8182716  65.3935242  42.8487053  48.6596642  65.4393768
  27.5352383   1.7764244  12.3443213  28.1919003   2.4250748  12.0907879
  27.8734951   0.9478438  12.0048103  62.7593498  36.2934341  11.9294252
  61.8048515  36.3436546  11.8780107  62.9293976  35.7426071  12.6935596
  22.3834000  67.2867508  35.6858749  21.7621994  67.9976273  35.8439827
  21.8584099  66.4895706  35.7574196  53.0224152   9.2447748  25.4475288
  52.6206131   9.4223995  24.5970974  53.9579124   9.1694107  25.2593746
  61.9096107  50.4548950  79.6058044  62.4533882  51.0333138  79.0710449
  61.8206215  50.9142265  80.4408646  66.9028702  41.8897896  82.5352173
  66.1711960  41.2896919  82.3911133  66.9449081  42.4128227  81.7346573
   5.3192163  60.1241150  58.8321571   4.5988698  60.6251297  58.4496422
   4.9389491  59.2671623  59.0251961   5.8299980  64.7804260   7.8770237
   5.9374003  64.2690353   8.6790037   4.9240680  64.6221542   7.6115551
   9.7788496  37.4594498   5.3608084   9.6883392  36.6680565   4.8300185
   9.4676399  37.2025757   6.2287917  53.7832184  24.7224121   8.4955826
  54.5173912  25.0545769   7.9789715  53.7175598  23.7989750   8.2523050
  30.9669418  26.6500359   8.0833197  31.5119457  26.8717880   7.3283167
  30.8531437  25.7013435   8.0261889  67.6295700  22.5414295  49.9933052
  67.2808838  21.6670208  50.1666832  68.4930878  22.5411587  50.4062958
   1.3580456   4.4606519  57.4842873   1.7343994   4.0129561  56.7265549
   1.8236945   4.0929151  58.2354012  78.2342453  46.6758118  76.9525528
  77.7568512  47.5040283  77.0013657  79.1514740  46.9204674  77.0753021
  35.9277954  19.3296871  83.1995468  35.1768570  18.9160500  82.7738342
  36.5861893  19.4000626  82.5083237  17.4602070  39.5707741  62.3693848
  17.5186844  40.1977119  61.6484413  18.0247993  38.8453903  62.1023827
  82.3709412  45.8984070  87.9745026  81.9446182  46.7323189  87.7768402
  83.2702255  46.1366310  88.1998138  73.0674210  14.1774387  11.2067757
  73.6822891  13.5630589  10.8058958  72.3543320  14.2508249  10.5724649
  58.5985146  50.7630501  43.2902031  58.7762070  51.6980667  43.3921852
  59.4134293  50.3344536  43.5518303  54.6185837  36.3532753  88.7831116
  54.7004471  35.4011765  88.7279816  53.8755875  36.5629501  88.2172318
  63.9512291  37.1497841  40.6405602  63.6172676  38.0187759  40.8631668
  63.2003860  36.6952362  40.2586517  75.8012238  65.0423737  44.7506485
  75.2809830  65.3213806  45.5041351  75.5256348  64.1398315  44.5903053
  69.5682755  18.2675133  32.4823799  68.8381653  17.8248520  32.0496941
  69.2155762  18.5387478  33.3298874  67.6350021  37.2648811  58.9269791
  68.3715134  37.4624863  58.3484077  66.8934631  37.7281876  58.5374985
  31.5967922  52.6630058  19.5223560  31.0014992  51.9959831  19.8643150
  31.6661530  53.3064003  20.2276669  18.9878407  32.5586395   9.0391197
  18.3683090  32.4750710   9.7639847  19.8486118  32.5520020   9.4577608
  43.6855698  11.4345360  83.0400391  42.8818588  11.6688232  83.5041428
  44.1457825  10.8471479  83.6395493  36.6690788  27.0720673  19.7073650
  36.8491745  27.9466438  20.0522041  37.3538971  26.9262619  19.0546799
  62.7491913  23.2211132  14.6470747  62.7661133  22.6357441  13.8899155
  62.7753868  24.1007061  14.2704287  23.5194492  24.9884415  83.6996994
  22.9614658  25.7194862  83.9651489  24.4111652  25.3282166  83.7747116
  46.3473625  49.8372459  22.0452728  46.2614632  50.3010445  21.2123585
  45.6272621  49.2066269  22.0436382   4.3313007   0.5963765  87.9370499
   4.2600646  -0.1670027  87.3639832   3.4253745   0.8255703  88.1444168
  28.3271656  64.3905487  16.6367321  28.3603172  63.8859901  15.8239861
  27.7937241  63.8586311  17.2272720  43.7936134  12.8122425  78.9404449
  44.1014061  13.4270601  79.6063995  43.3415375  13.3604050  78.2990570
   1.6139930  67.8775864  18.9733582   0.6761947  67.9427185  19.1537018
   1.9498882  67.2988510  19.6578083  47.8370399  63.1268959  77.7901993
  48.5144997  63.7779694  77.9729080  48.1816406  62.3130455  78.1577988
  65.0816040  11.1599531  37.7128792  65.6796265  11.4682274  38.3937416
  64.5757294  10.4655313  38.1348991  74.3879471  16.0071526   9.1885757
  74.3806992  16.1340408  10.1373005  73.4842453  15.7791328   8.9705153
  44.0588875  31.6880684  34.3960609  44.4048195  32.5805130  34.3856659
  43.2295036  31.7471447  33.9218597  25.8074894  28.8936176  78.4898376
  26.2296104  29.7076111  78.7645264  26.3437538  28.5795536  77.7618103
  60.2156448  39.2527122  35.4339104  59.8859901  38.5391922  34.8876076
  60.6219482  38.8140144  36.1813698  40.4844818  39.2730637  76.2549362
  41.2034607  38.6461105  76.1760025  39.7683601  38.7688751  76.6411896
  69.3655624  39.5977478  72.4548492  69.2515182  39.8145752  73.3801651
  68.9966812  38.7188034  72.3675766  82.8740997  44.1581154  71.9146729
  82.9873352  43.3626366  72.4348831  82.0154037  44.4930077  72.1729813
  77.4155426  20.3750210  58.9347038  77.6168289  20.4680805  58.0035477
  77.2081146  19.4468994  59.0433197  85.4974518  26.1141109  26.9415264
  85.3243561  25.2291317  27.2625866  85.6859589  25.9984341  26.0102272
  49.4924774  70.2925873  29.0765438  50.2702103  70.5832596  28.6002274
  49.6265640  69.3533936  29.2036629   1.5385864  15.1961794   3.4262989
   2.2121117  14.5462046   3.2259784   1.7928917  15.9682131   2.9208050
   6.2332859  54.1243896  64.6049805   6.8152933  53.5276413  64.1344604
   5.3576875  53.7628479  64.4676971  48.7567749  15.8790588  21.2764053
  48.8386497  15.3781490  20.4648533  47.8694954  15.6935329  21.5838966
  26.5228767  45.3699303  72.7097092  27.2956867  45.7444191  72.2869186
  26.8733234  44.7101440  73.3081284  68.5698090  58.6225967  73.2080612
  68.7971191  59.1615906  72.4504013  67.8170776  58.1072350  72.9181976
  82.0860367  59.3828812  73.4029922  82.5899734  59.5553360  74.1983109
  82.6639786  58.8406906  72.8661041   4.8422098   5.6165142  69.1723404
   5.7029581   5.4574184  68.7850037   4.4006042   6.1910229  68.5469131
  69.1664276  55.7155418  20.5397816  68.4564285  55.4368095  19.9614754
  69.8282776  56.0762329  19.9497948  25.9581718  60.2732010  43.1309319
  25.8726101  59.4403610  43.5949173  26.8433990  60.2549171  42.7672386
  75.1779633  35.7188454  69.2640381  75.8430405  35.6415176  68.5799866
  74.7724609  36.5718422  69.1085052  34.0593643  10.2361250   7.9464841
  33.3156433  10.8362741   8.0006514  34.5434151  10.5238304   7.1724358
  65.9899063  20.9984474  57.7500916  66.3955154  20.3149300  58.2834969
  66.4776993  20.9807568  56.9266968  34.1599770  67.1910019  26.1056957
  33.8879013  68.0914841  25.9286594  33.3396988  66.7107544  26.2185574
  20.3363819  69.4551163  36.0479431  20.3219757  70.1840286  36.6681938
  20.6498451  69.8422928  35.2305908   5.0244102  58.5727081  51.7692223
   4.4561749  59.0635910  51.1756096   4.9365711  59.0211067  52.6103210
  10.0937338  45.9525414  13.7488575   9.3969450  46.2090988  14.3529215
   9.7792778  45.1404648  13.3515091  33.9731102  51.2343903  24.9022846
  34.4776878  50.6057892  25.4185162  34.5191536  51.4076500  24.1354389
  56.8898163   4.8115478  62.6201782  57.6093826   5.0718870  62.0451355
  57.1351204   3.9402046  62.9313354  53.5540810  37.8332558   2.5260544
  54.3284302  38.0737228   2.0173395  53.7994843  38.0106201   3.4341028
  66.2127228  22.4307194   6.7483191  65.3385620  22.6577797   7.0653539
  66.3919296  21.5730038   7.1336007  13.5276861  37.6565666   5.8570561
  14.3538170  37.3583946   5.4764872  13.4034853  37.1000519   6.6258836
  64.9515762  22.0667877  63.3770523  65.3932800  21.5879402  64.0783615
  64.3599014  21.4248676  62.9845085  47.5403671  57.6449890  42.9619102
  48.3241196  57.3914108  42.4744072  47.2899437  56.8548088  43.4405975
  17.5215111  13.8832436  80.5523453  18.3193626  14.4008818  80.6605835
  17.5434971  13.5974197  79.6390762  79.8063202  43.9900475  86.7042313
  79.6401520  44.2227211  87.6177292  80.7533798  43.8586082  86.6590195
  56.4293900  35.2603722  28.7236328  57.3728142  35.0994530  28.7406044
  56.1905022  35.3814430  29.6426010  66.7903595  40.7842865  55.8789139
  66.0907974  41.3444481  55.5426636  67.2581940  40.4901199  55.0973587
  66.7960434   2.0255504  16.7375259  66.1325684   1.9039485  17.4166813
  67.3264771   1.2296758  16.7756462  80.2021790   7.2806344  65.2817917
  80.4756165   7.6404409  66.1255875  80.7801361   6.5304041  65.1427002
  62.7238350  65.7795792  58.6607475  63.1528587  65.8296280  57.8065414
  62.2871742  64.9277802  58.6599121  63.8928185  51.1376648   5.0387096
  63.4397202  50.3567085   5.3565860  63.1908646  51.7563095   4.8368034
  39.9009438  61.0668526  67.9673386  40.4839554  60.8701782  67.2340927
  39.5951576  60.2105789  68.2665482   5.8515358  44.9767647  53.0765228
   6.5720558  45.5307922  53.3767509   6.2754798  44.2917747  52.5595169
  78.4285507  37.2041588  34.0272751  79.3373413  37.3179359  34.3054695
  78.2111740  36.3069496  34.2802429  68.8416748  30.9821301  85.5451965
  68.2539520  30.5678806  84.9133682  68.2874069  31.6051846  86.0151215
  78.1476746  12.2359943  69.8351669  78.9098816  12.1311789  69.2657089
  77.4927444  11.6405973  69.4707413  58.8596954   5.8942771  41.3209724
  58.2250290   5.4744182  40.7403259  59.2660294   5.1693096  41.7958908
  22.4978275  65.6979523  73.5127640  22.3720798  66.5310440  73.0584717
  21.6131630  65.4161987  73.7456055  37.3740616  62.2893333  23.4035130
  38.2169495  62.7315559  23.5045776  37.4874344  61.4520302  23.8532906
  36.6540527  33.7168312  77.1335373  37.2130966  33.5336037  76.3784714
  37.2649460  33.8334465  77.8611679  70.1200333  49.0710945  12.6320276
  70.4280777  49.7281685  13.2562017  70.0945740  49.5311279  11.7930088
  85.3754807  22.1090488  37.2670593  85.1059113  22.1296501  36.3488312
  85.9469833  21.3439159  37.3317909  57.5252571  40.5739326  61.9324493
  56.6131287  40.4293442  61.6807632  58.0276108  40.3580818  61.1467743
  35.1680717  33.1979446  23.7506142  34.5554810  32.4875488  23.5600758
  35.6887016  32.8745155  24.4858494  48.6467056  53.7714539  58.6107368
  49.1437531  53.5160789  57.8335915  48.6360092  54.7282372  58.5844955
  35.3322105  50.4724770  83.9693756  34.7828484  49.7208290  83.7469864
  35.3592300  50.9949074  83.1677704  85.2340469  38.4125557  52.3676224
  85.9015045  37.7581558  52.5737801  85.5073700  38.7763748  51.5255051
  75.0082550   5.0240388   8.0829849  75.7695847   5.0328183   8.6631002
  75.3158264   5.4404187   7.2778382  32.8108406  67.0748520  21.4994335
  32.4311943  67.4891052  22.2743530  32.2186203  67.3130035  20.7861366
  63.4192047  52.2887917  78.1417160  62.8808327  52.7169228  77.4760666
  64.1500397  51.9112778  77.6522293  61.8960991   4.2581043  72.7753143
  61.6566963   3.3530500  72.5758286  61.1016388   4.7610574  72.5961304
  20.6005344  65.2910995  61.1828461  19.6701393  65.3669586  60.9710808
  21.0014267  66.0613480  60.7800598  84.8030853  15.3098717  21.1396656
  84.7973099  15.9062328  20.3909645  84.0128250  15.5344582  21.6308632
  54.8032341  67.1692886  19.5448685  54.5790176  67.2810516  20.4687004
  55.7210770  67.4347763  19.4873505   6.9884624  53.8045425  73.8681870
   7.0120912  53.7927170  74.8250275   6.1373363  53.4277420  73.6449509
  58.5524025  39.0432320  80.3713074  59.3144493  38.5286331  80.6372147
  57.8157501  38.4366455  80.4463425  33.3508949  64.8748932  34.0078011
  33.2487526  63.9389076  34.1802254  34.1915779  65.1013641  34.4055328
  33.4106293  65.0793152  76.3468933  32.4685555  65.0514069  76.1797104
  33.8090973  64.8196487  75.5162125  37.2460022  21.5767422  14.4523678
  37.8551826  20.8613300  14.6349049  37.7471199  22.3710670  14.6371956
  83.0914459   7.1746655   3.1962149  83.9112625   7.2818117   2.7138720
  83.2765503   6.4841561   3.8327417  16.8365707   6.1693106  71.1159668
  17.3276997   5.9147153  70.3348083  16.6949997   7.1104445  71.0137100
  45.3875694  32.9071999  24.3292866  45.4049759  33.5734329  25.0163517
  45.9715538  32.2190475  24.6480980  84.3411865  71.3900757  13.7754650
  84.2186203  71.3454666  12.8271942  85.2772293  71.5552750  13.8884687
  61.6128807  27.9150581  54.1685104  62.3925285  27.6203136  54.6391525
  60.8899879  27.4458771  54.5850792  11.9630699  42.1416779  88.7536850
  12.6186152  42.8041992  88.9717484  12.2322779  41.3668671  89.2470703
   7.2761106  47.9126167  75.0889053   6.7947392  47.5766373  75.8449707
   6.7172480  47.7083969  74.3391113  79.0798111  51.4051857  26.2202854
  78.5698929  51.8858452  26.8723488  79.9398651  51.2917786  26.6248550
  51.9474220  11.6046696  78.1361465  52.2016182  10.9881916  77.4494324
  52.7761307  11.9582539  78.4593353  37.1058388  47.8903999  38.5027504
  38.0556717  47.8531799  38.3902206  36.7841301  48.2873726  37.6933403
   7.7586846  40.4636269  50.1352234   7.8112059  39.5221825  50.3000145
   8.6501198  40.7818336  50.2777710  18.6886024  35.6280289  75.1696854
  19.0244083  36.3952255  74.7061462  19.3874836  34.9782333  75.0951004
   7.2129903  43.3067131  66.4044571   6.8845291  42.5928154  66.9509888
   7.9925113  42.9458694  65.9821167  65.7877045   2.8264325  69.9397278
  66.0919724   3.5982642  69.4623108  65.5614014   3.1564641  70.8092651
  66.7856445  70.2239227  53.4582253  66.5998840  70.7908707  54.2067566
  67.3927612  69.5674591  53.7998238  55.3886070   6.7674060  84.4021759
  56.2738266   7.1315131  84.3952789  54.9060478   7.2989655  83.7690735
  59.7134666  32.6999512   2.9323499  60.2439575  32.7980728   3.7230363
  58.8137703  32.6396828   3.2535062  77.1621475  47.7355423  55.5672684
  77.9524231  47.3690186  55.1705856  77.3856125  47.8421631  56.4918938
  42.3835258  22.9498272  65.3192062  41.4346657  22.8249626  65.3015823
  42.5023689  23.8954029  65.2297974  56.2187233  34.3922310  69.4323196
  56.1357002  35.2183075  68.9559402  57.0902061  34.4295921  69.8264771
  58.6394958  35.0541039   5.9527798  59.4339523  34.5493355   5.7787580
  58.0199699  34.7640457   5.2832398  53.8194771  68.3767853  73.4874191
  54.3341408  68.3298492  74.2931213  54.1933632  69.1155090  73.0070801
  66.8977966  31.3925858  38.9115295  66.5340347  31.6115475  39.7694130
  66.3077698  31.8139153  38.2865639  66.6102600  47.1300621  77.7994156
  67.0230026  47.5270615  77.0324249  67.0467911  46.2835884  77.8950958
  27.7028008  42.7685814  30.7054825  28.4589291  42.1954956  30.5787125
  27.9230747  43.2882423  31.4785690  34.3530769  54.6366615  85.1428299
  34.5034943  55.4276276  84.6251602  35.0969734  54.5988045  85.7440033
   8.4675798  23.1035519  88.6573715   8.2867870  22.7778358  89.5391006
   9.3705320  23.4184933  88.6988449  46.8541298  64.7202225  66.3717651
  46.4459953  65.0034332  67.1899643  47.7473984  65.0608826  66.4192276
  46.6406059  43.9490700  78.1801224  46.9601440  44.3982697  77.3975906
  47.3487892  43.3510284  78.4189758  31.9648514  49.0305252  58.8421516
  31.9225922  49.8901138  58.4231606  31.6873226  49.1898918  59.7442665
  80.9556885  66.5894165  19.3985233  80.9025879  65.8220673  18.8287964
  80.5785446  66.2979660  20.2286186  42.3777962  53.1624527  32.3738708
  41.6114693  53.2967224  32.9314957  42.8012543  54.0201492  32.3381577
  24.5368290  15.6724596  60.4203300  24.7720165  15.4812622  61.3282738
  24.8602619  16.5609226  60.2711372  63.1503029   1.0430199  35.1358032
  63.4842072   1.9223977  34.9585075  63.8153038   0.6427430  35.6959648
  81.8408279  35.7801361  37.6784019  81.3940887  35.5310745  38.4874916
  81.1721878  35.6929779  36.9990234  52.6023941   8.4654112  29.3234596
  52.0878944   7.8578191  29.8548298  53.4580574   8.4926357  29.7516308
  71.1511841  33.5034485  19.2770004  71.2948456  33.3294411  18.3467770
  72.0314789  33.5671654  19.6474895  52.5155258  46.9077606  18.9729004
  52.8693428  47.6323166  18.4570847  52.2045937  47.3177757  19.7800198
   4.7213435  50.7019539  27.0199680   4.5305738  50.5315437  27.9423561
   4.4796901  49.8914642  26.5717010  84.1002350   8.0015297  30.7217999
  84.4632263   8.6645174  31.3090935  83.7504807   7.3292384  31.3065472
  80.0819473  40.1657524  14.9588528  80.2337112  39.2645607  15.2435503
  79.1296234  40.2619858  14.9658604  78.8518219  25.4712448   2.4307709
  79.7599945  25.7320042   2.2776489  78.3801880  26.2973213   2.5375245
  30.1435127  43.4037437  71.9636841  30.8601723  43.9788742  72.2317429
  29.9194279  42.9151878  72.7557297  68.0584335  37.1703606  55.1355820
  68.2139206  36.2780151  55.4450531  68.6013489  37.7184067  55.7022552
  34.7853508  37.5279465  83.8396988  35.6107407  37.0800514  83.6543655
  34.1869965  36.8284874  84.1023026  16.8232880  30.1760044   8.2880640
  17.7419910  30.1492748   8.0206633  16.8071251  30.7813110   9.0293961
  76.8452454  49.5018082  82.5093079  76.9085007  48.8161354  83.1742020
  76.1075211  49.2358704  81.9604340  26.2907581  64.3823547  73.4803925
  26.3418770  65.3090515  73.7146072  25.6397915  64.3480225  72.7794647
  68.9224014  43.8246346  18.0769615  68.4303818  44.6275749  17.9054050
  68.2593613  43.1343040  18.0839405  58.5139694  43.6459961  60.5067177
  59.1624985  43.9636307  59.8784294  58.5478745  42.6929131  60.4247742
   9.5604134  44.2812462  84.7416000   8.8066807  43.9523811  84.2517395
   9.7534494  43.5909615  85.3760071  51.0460129  29.0615959  66.5674667
  51.7931786  28.8827705  65.9964981  51.1809502  29.9617653  66.8636398
  74.2389832  11.0439720  25.4571705  73.8253098  11.6609707  26.0608406
  73.9812393  11.3502731  24.5876999  21.7008686  56.0341377   2.3740387
  20.8636608  55.6776848   2.6711192  21.6088219  56.1014137   1.4236530
  25.8904877  56.0570564  13.8834496  26.7521935  55.6406517  13.9009180
  25.6565762  56.1622581  14.8056469  66.3432465  55.7378159  28.9207554
  66.5680466  55.5588875  29.8338165  66.8146591  55.0699959  28.4227352
  68.1521606  37.7347336  46.5738411  68.9672089  37.5225334  46.1189880
  67.5869141  38.1014214  45.8939400  38.3658562   1.8103079  39.8609505
  37.5819969   2.0514240  40.3545685  38.5114059   0.8893531  40.0774879
  25.7384548  60.2430038   6.1945062  25.8245258  61.1432915   5.8809738
  25.0141239  60.2752380   6.8194351  80.3780899  25.6044922  31.6968784
  80.5050735  25.0994434  32.5000191  81.2493973  25.6517963  31.3034096
  57.8126526  24.7866364   7.2974510  57.0125923  25.2739429   7.4940872
  58.3867416  25.4277935   6.8784399  50.9610977  49.9425926  50.3833084
  50.9972610  49.1122513  50.8581314  51.2334366  50.5978928  51.0256805
  59.5227432  49.4121780  27.4587555  58.6030121  49.4400597  27.1950397
  59.5007782  49.1387596  28.3758106   5.8192372   4.8039713  63.0370865
   5.2022648   4.1694646  63.4017487   6.1577768   5.2740459  63.7990913
  72.9656296  64.3304672  46.0383644  72.1430283  63.8761864  46.2205467
  73.2916870  63.9229279  45.2359772  81.0881119  37.2570305  79.0563736
  80.5154648  36.7532883  78.4779739  81.6436768  37.7621918  78.4627457
  34.7598267  62.3956223  15.9025888  34.1905708  63.0446815  16.3159885
  34.1572151  61.7687912  15.5023689  49.5531006  17.8952332  60.8098068
  50.3122520  17.3125172  60.7907944  49.2363358  17.9054604  59.9065971
  43.6073341  71.6631927  63.2643394  42.8560333  71.6852493  62.6716423
  43.3205833  71.1142883  63.9942055  68.6545792  66.4360962  87.2119064
  68.5373230  66.8133011  88.0838013  69.0147400  65.5642853  87.3745651
  13.8116474  55.8021622  24.3158722  13.8566151  56.0057335  23.3816509
  12.9275284  55.4583588  24.4438019  18.8054142   5.7858324  69.3475800
  19.5648251   5.2852440  69.0493546  19.1491089   6.6623592  69.5202255
  20.7227993  40.5093727  21.3039532  20.1230412  40.2370758  20.6094208
  20.2013493  40.4568558  22.1049309  27.6010513   0.8592016  31.8855381
  27.8143387   1.3507031  32.6787376  27.3956051  -0.0220054  32.1977844
  31.3940735  60.2770271  62.1047134  30.6928215  60.9080696  61.9426689
  30.9569035  59.4255409  62.0954704  27.3910141  44.1131401  39.7609215
  27.4005947  45.0123444  39.4329338  26.8855572  43.6261673  39.1100769
  68.0878830  70.6828766  34.9448166  68.7225266  71.2393723  35.3962173
  67.8069763  70.0529175  35.6085014  48.6207581  21.6525936   6.1062407
  48.9356422  21.1511898   5.3541269  47.6804314  21.7471638   5.9543343
  41.3334808  55.8551826   2.7321279  41.4293137  55.8632774   1.7797714
  40.3874397  55.8464584   2.8775892  30.5510006  27.6674519  83.7743912
  31.4384842  27.7442265  84.1246948  30.3893929  26.7247772  83.7359543
  10.7798138  68.5528564  71.2482758  10.3619776  69.3749695  71.5047455
  10.5400667  68.4390411  70.3286057  46.4818840  59.6160965  27.3562412
  46.0446587  59.9485321  28.1401749  47.3097801  60.0953331  27.3223133
  47.6554871  66.4039230  11.0536680  48.3873253  65.7902222  10.9902763
  47.6829491  66.8950577  10.2325335  25.9321098  63.8141899  45.4338799
  25.4840279  64.6574097  45.3672523  25.5282936  63.2740440  44.7546082
  42.7324791  13.2893753  86.6170807  43.1667557  12.6245804  87.1515808
  42.4930382  13.9772005  87.2382050  41.3133278  49.6312981  39.2251854
  41.8644180  48.8933258  38.9645538  41.6072845  50.3562775  38.6736183
  40.5642815   7.6589866  16.4154510  41.0194817   8.4789972  16.6067867
  40.9831123   7.0139403  16.9852982  57.6061630   9.6359568  71.5381088
  57.4316826  10.4118805  72.0707779  58.3124733   9.9031105  70.9499054
  53.6556282  29.1124401  76.1093292  54.6046638  29.2255173  76.1620331
  53.3519020  29.8683281  75.6067200  56.1468658  32.7209129  17.7322712
  55.2735710  32.6954193  17.3411999  56.4929008  31.8378124  17.6033478
   8.9376602  50.3668365  58.1918144   8.1626015  50.9069328  58.3461189
   9.1162653  49.9568672  59.0381317  67.6636963  70.8199539  15.6446447
  66.9472046  70.6331177  15.0380440  68.2605438  71.3777771  15.1458073
  33.2606239  64.4185410  21.7441921  33.0862923  65.3593216  21.7719231
  33.7858315  64.2491226  22.5262985  46.9747543  45.6156158  66.6357956
  46.0831032  45.4790878  66.9560318  47.1795616  46.5194092  66.8754654
  47.1664467  59.8973770  51.7485123  48.0610809  59.7436066  52.0521774
  47.2668800  60.4680557  50.9866257  58.1760521  51.1431160  85.3537521
  58.5651779  51.9985237  85.1718445  58.1198006  51.1037178  86.3084869
  71.4279404  14.7593336  69.1028976  71.1522217  13.8679934  69.3167267
  72.0746384  14.6492748  68.4058304   7.3121204   3.6022420   1.7453592
   7.4058723   3.7448461   0.8034958   8.0418596   3.0266402   1.9742583
  59.2244415   5.7628732  37.3915863  59.2931671   5.7616792  36.4368591
  60.0299988   6.1856651  37.6891747   4.9514961  19.8247833  61.8743629
   4.8160357  20.2004013  61.0044250   5.4214697  20.5040722  62.3580208
  46.4932442   4.7369933  76.4555664  46.2712059   5.3396077  77.1653442
  45.7419510   4.1465950  76.3987961  41.9132919  58.6030846  28.8593445
  41.0474319  58.2151604  28.9859715  42.2298355  58.7768936  29.7458096
  40.5308342  53.5930786  57.3780823  40.9578819  53.1222115  56.6624374
  39.7261772  53.9381752  56.9912148   6.7207079  54.2126198  24.3940315
   6.2213149  54.9294090  24.0028172   7.6105113  54.3313828  24.0618000
   4.4580598  50.8484650  86.8603439   4.4543591  50.1908226  86.1648407
   4.7864633  51.6420937  86.4378052  19.6842728  36.8045959  83.6652298
  19.9529533  36.9150124  84.5772858  19.8552952  37.6550102  83.2605286
  17.9460659  39.7838783  52.0184631  18.1172695  39.0381851  52.5936699
  17.8112183  39.3940811  51.1546898  -0.2740068  58.6352959  77.9523087
   0.3564179  58.7387695  77.2395020   0.2648777  58.5638351  78.7401733
  59.2240791  23.5466881  39.0229912  59.2280464  22.7128525  38.5529518
  59.8238068  24.1040325  38.5270844  46.3876953  46.6205330  54.3247223
  46.4668922  45.6945724  54.5539703  45.4669418  46.8286285  54.4832764
  53.3767090  32.5454025  78.1148911  52.4273453  32.4263268  78.1424866
  53.6094856  32.8203201  79.0017242  67.4063492  17.8130169  62.2321396
  68.0221329  18.0773888  61.5486565  66.5432663  17.9288960  61.8347931
  21.9180050  20.2191334  66.2271881  21.6300526  19.9779816  67.1076202
  22.7324047  20.7026901  66.3655930   7.9350529  60.4538879  21.7085323
   7.8492556  61.3109245  21.2909660   7.3196774  59.8940926  21.2350616
  46.4327812  36.4908676  38.6493645  45.6122398  36.7555161  39.0651855
  46.5108604  37.0644569  37.8870430  45.6916161  49.5655365  68.7761536
  45.2770386  49.1546249  69.5347748  45.2987976  50.4372749  68.7314529
   9.0681667  34.9250412   4.1590824   8.2202711  34.7857018   4.5808520
   8.8517990  35.1423073   3.2523234  28.7599144  19.2962933  87.5846634
  28.8878765  20.1064014  87.0911255  29.4405670  18.7073479  87.2589569
  72.4403229   9.1388664  48.7082863  71.5065918   9.2683716  48.5421371
  72.7338791   9.9684210  49.0849762  72.0873413  26.8764133  30.0013351
  72.6702194  27.5659943  29.6835957  71.2688446  27.0164185  29.5252171
  76.3389969  18.5556660  66.9792252  75.7112350  19.2729340  67.0668182
  75.8693085  17.8856106  66.4825821  33.2981644  48.1345596  26.4279041
  33.9177589  47.5947952  26.9188099  33.5501785  49.0349655  26.6328220
   6.1657553  35.0288734  30.9366035   6.4190850  35.1115875  30.0172482
   5.4091058  35.6077271  31.0295582  84.4358368  19.1057663  62.8302574
  83.6366806  19.2895641  63.3240242  85.0810242  18.8714485  63.4973869
  44.4149170  49.1063347  84.9467087  44.9221992  49.8973122  84.7643661
  43.5437164  49.4285202  85.1778870  38.0678101  67.6267014  51.9045143
  38.4901581  66.7691422  51.8550072  38.4325600  68.1162491  51.1672668
  16.3687420  38.2928619  85.0722885  16.4190331  39.0612106  84.5036545
  16.8740635  37.6218071  84.6134109  66.4095230  64.0161438  57.9006729
  65.8258057  64.4833298  58.4983673  67.1341248  64.6232300  57.7502251
  65.2364349  37.8420067   7.6877556  66.0010986  37.2942734   7.8652625
  65.2258911  38.4777336   8.4032774  47.3076897  55.3815498  71.9965057
  48.2475204  55.4634933  72.1584854  46.9945831  54.8020172  72.6910095
  71.2704391  48.9578514  79.7764130  70.7939682  49.2174377  78.9878540
  70.5861816  48.7725754  80.4196091  62.6838531  38.8151360  66.7529755
  62.4911919  38.4172478  67.6019745  63.2096939  39.5866661  66.9638519
  86.4348373   3.7609942  15.4355974  86.5835724   3.6729505  14.4941311
  85.5448761   4.1062675  15.5062265  52.5054245   1.1628772  73.4902725
  51.6597099   0.8813407  73.1413651  52.6104927   2.0587056  73.1698303
  22.7756481   5.9294167  82.3933258  21.9132671   5.7764406  82.0071487
  22.6546001   6.6959667  82.9536591  81.9297104  32.9774170  22.4994774
  82.2987900  32.7436676  21.6477909  82.5152206  32.5661240  23.1352787
  33.9619560  31.3646698  79.1989899  33.5183907  31.8229771  78.4852448
  33.9537315  31.9878712  79.9254761  59.8078079  43.4266129   2.4029443
  60.3387108  44.0131073   2.9418304  58.9062881  43.7072220   2.5602758
  16.3507748  27.7077370  81.7813263  15.5403719  27.2072735  81.8762741
  16.5520878  28.0079994  82.6676331  57.2709389  26.0425072  34.6192818
  56.7419319  25.4789677  35.1839142  56.9411392  25.8744736  33.7365417
  20.6495094  55.4908409   8.4868193  20.2911530  54.6843834   8.8575478
  20.6659470  56.1051750   9.2206812   1.4656360  20.6209240  39.9997215
   2.2236698  21.0081997  39.5619583   1.1158422  19.9958687  39.3647575
  81.1455231  49.0462761  60.0150833  80.8155060  49.5139809  59.2478981
  82.0814438  48.9386139  59.8456764  52.8712730  55.9119759  32.7543144
  53.5345306  55.5046692  33.3114700  52.2980919  55.1897659  32.4972000
  76.7575302  12.8727922  51.4423180  76.2178421  13.6372137  51.6438942
  77.6190338  13.2354717  51.2361450  30.8230610  53.9292297  82.3210526
  31.0815258  53.2269821  82.9179459  31.1550159  54.7273445  82.7322083
  45.4908943  31.6101952  51.5397797  44.5411530  31.7254486  51.5091019
  45.7522430  31.5304604  50.6224098  86.8925934  28.7374725  39.7723923
  86.6479492  27.8192348  39.6574249  86.2061539  29.2268047  39.3189697
  18.7059555  51.3244591  81.3411102  18.2808704  51.0529480  80.5275955
  18.5270309  50.6115952  81.9543381  26.7403774  47.5337219  57.0472832
  27.3924561  48.2311630  56.9794807  27.1361294  46.7907066  56.5917206
  21.5767365  11.1695900  82.7949600  21.8036652  12.0055437  82.3876343
  21.8989754  11.2454882  83.6930847  57.6749725  27.2820930   5.3918233
  58.3665771  27.8738461   5.6880426  57.0490036  27.8507195   4.9434257
  10.1255131  14.0440187   2.1055832  10.6637754  13.4066315   2.5748835
   9.5362864  13.5122051   1.5705888  52.5453033  52.7901001  55.5172348
  52.8262520  53.2027054  54.7005005  53.2737312  52.9341469  56.1212807
   7.4529328  34.8202057  28.5970287   8.3011942  35.2176208  28.7938671
   7.1520314  35.2751656  27.8104553  71.7702255  49.1098824   8.8940859
  71.3806381  49.7923050   9.4406691  72.3077011  48.5972023   9.4978333
  62.8565788  35.3503838  17.5884533  62.0502281  34.8483009  17.4703808
  62.7662086  35.7485466  18.4542084  15.9646950  13.4922037   9.4762621
  16.1684475  12.5716152   9.3112335  15.0365353  13.5750418   9.2574244
  58.2976646  11.8260012  15.2869301  58.6240349  12.5906439  15.7613096
  58.5264015  11.0825005  15.8447094  71.6295853  26.6282291   0.8992808
  70.9169388  26.1424923   0.4840404  72.3792725  26.0344238   0.8593716
   4.4794097  22.8689709  76.8524551   4.8902893  23.1077633  76.0215607
   4.5497203  23.6579323  77.3898849  54.4372711  43.7314224  43.2450523
  54.3694992  43.0695686  42.5568733  54.0508156  44.5178833  42.8598747
  69.1961212  42.2768059  71.4248581  69.3475800  41.3440132  71.5771408
  69.4669189  42.4184647  70.5177536  45.9485207   1.5781102  33.5837593
  46.1695480   2.1413107  32.8420181  45.5566444   2.1702387  34.2256699
  77.0933456  34.8917542  34.7847595  77.0780792  34.0790939  35.2903099
  76.1926270  35.0011024  34.4798393  56.2182121   2.0936227  24.1886253
  56.0892410   2.4683022  25.0599537  57.0387459   2.4789608  23.8812618
  69.7972946  67.7304535  47.5091515  69.2693024  68.5185547  47.3812523
  69.3931808  67.0763016  46.9390640   3.4527833  35.1134834  34.2537689
   4.1795363  35.4559364  33.7333946   3.7509038  34.2511749  34.5432167
  61.0674019  31.2131882  31.5128937  61.3022575  30.2965508  31.6572800
  60.2414970  31.1757011  31.0304947  55.3387222   8.7826214  42.3311234
  54.8301239   8.6376352  41.5332909  54.6976318   8.7177277  43.0389519
  60.4315605  37.3778000  -0.1363111  60.8826523  36.8200645   0.4974726
  59.5766296  36.9636993  -0.2539672  53.0612602  65.6727676  73.4778366
  53.2764244  65.4409027  72.5744095  53.2288208  66.6137466  73.5299988
  42.6441116  55.4005280  29.7811337  42.6145096  55.5188866  30.7305279
  43.2960548  56.0338783  29.4810219  49.7250404  70.2810440  40.9410019
  49.2041702  69.5436859  41.2591705  49.9573021  70.0408478  40.0440140
  10.1167288   1.0896206  48.9855766   9.7143536   1.4461243  49.7775574
   9.6204453   0.2917197  48.8031235  19.0926533   5.1150274   4.1164756
  19.1930981   4.9854951   5.0595365  18.3718491   4.5352221   3.8705068
  80.5218506  63.2845192  41.7366753  79.7222137  62.8437195  42.0238953
  80.3876648  63.4387398  40.8015594  22.2051144  14.5494280  59.2867165
  21.9114704  15.1789265  58.6281281  22.9595184  14.9694147  59.6998978
  70.0003357  67.0595016  38.3663139  70.2310257  67.5578995  39.1502876
  70.8418655  66.7994690  37.9915619  77.9551010  20.8962765  40.7116890
  78.1329041  19.9568214  40.6664734  77.2875214  21.0461826  40.0422859
  41.8140907   3.9075298  27.2314568  42.4265900   4.5766993  27.5368900
  42.3158646   3.0928710  27.2594376  47.2516289  61.5648346   2.3911269
  46.5185432  61.1534805   1.9333019  47.0144272  61.5143204   3.3170938
  84.7994614  70.4230652  67.4504623  84.3393250  69.8972168  66.7962494
  85.6790924  70.0471344  67.4843903  60.4531822   7.9791369  39.5075493
  61.2327385   7.8732862  38.9622803  60.5948410   7.3863316  40.2456169
   2.6184373  17.9457245  16.0839043   1.9717810  18.3258667  16.6785145
   3.0765748  17.2932892  16.6136894  54.7058907  17.4296780   2.6666963
  54.2954445  18.2487392   2.9440162  54.9673462  17.5879211   1.7595954
  45.0996780   4.9844494  38.7456818  45.0373077   4.0327549  38.8270416
  46.0278397   5.1504202  38.5807610  31.3978195  71.5073547  88.7043228
  31.4631939  71.9921646  89.5270767  30.5957375  70.9925079  88.7927856
  55.5595169  16.7733803  50.9852715  55.1776314  16.0425453  50.4991913
  56.3982468  16.4381104  51.3020668   2.9777670  36.8001328  45.1701775
   2.2041366  37.2484360  44.8284874   3.6809311  37.0431252  44.5678902
  29.9164219  26.5424023  76.3790054  29.5905495  25.6791992  76.6337967
  30.8568783  26.4158936  76.2534332  15.4319620  13.3655424  86.2609940
  15.1293888  14.2165070  85.9439163  15.8545551  13.5582533  87.0979614
  25.0787144  55.7470741  25.1068821  25.6914062  55.0509033  25.3439159
  24.6272755  55.9574051  25.9243145   1.8422780   4.6445847  51.0791321
   1.8802336   5.5130305  50.6783905   2.7200067   4.2840972  50.9531441
  81.4608002  68.8114319  55.5428925  81.1097031  69.4525375  54.9248772
  82.2125473  69.2498169  55.9415512  43.0519600  62.5428619  85.7315979
  42.8896637  62.2928352  84.8219986  43.9951897  62.4278183  85.8469696
  80.2895126  66.6463776  80.2082977  80.0501938  65.8315201  80.6498489
  80.1478653  66.4657669  79.2790222  26.6271133  56.5421867  28.2638855
  25.8120136  56.0419540  28.2237511  26.3472881  57.4437256  28.4224873
  64.3264008   0.5986687   8.8573151  64.6775436   0.8647982   8.0075493
  64.9027328  -0.1100439   9.1433125  68.7944260  38.1470795  27.7667618
  68.8593597  37.6367416  28.5739613  69.4135666  38.8669357  27.8880520
  79.8011322  24.4718094  53.6497803  79.8072739  23.6418610  53.1729393
  80.3754044  25.0444336  53.1413040  73.9008331  34.3693237  65.9056778
  73.7660751  35.2428703  66.2730865  74.1509933  33.8299522  66.6558304
  23.8979836  63.8414841  83.5366440  23.7495937  62.8988953  83.6124344
  23.0366955  64.2321625  83.6842270  26.7890282   4.1273031  14.5429268
  26.4547138   3.2409616  14.6802759  26.1056900   4.5650477  14.0353241
  72.4665833  24.2598133  10.3946466  73.2429504  24.6393108   9.9829741
  72.4164810  24.6862335  11.2501507  52.5727119  13.0861540  46.6594963
  51.8848000  13.7415419  46.5433960  53.3218651  13.5813646  46.9908066
  28.7503586  54.7033463  14.6691198  29.1554298  53.8769417  14.4060469
  28.7923260  54.6969261  15.6253777  46.8397446  45.1009140  87.0071335
  46.3658295  45.8781281  86.7112122  47.7368622  45.2369003  86.7023163
  50.3506050   0.7080415  47.6995125  49.7670708   0.7159901  46.9407921
  50.2083817   1.5561200  48.1199493  79.4169083  28.7933216  26.7725792
  79.4501953  29.7498589  26.7851734  78.9595718  28.5589275  27.5801296
  57.6734085  56.1366959  34.9485550  57.7569618  56.6293678  35.7649651
  58.1063538  55.3019028  35.1271973  73.9446869  50.3930664  18.1194057
  74.2243042  51.0760651  18.7289581  74.3525696  49.5935516  18.4520359
  55.9270134  63.7431564  42.5866280  56.4781456  63.7221680  41.8042946
  56.5178299  63.5083427  43.3021889  59.0596504  19.5989170  52.7401886
  59.4576454  19.3899899  51.8950958  58.1750145  19.2376556  52.6841698
  54.4251595  66.2264862  56.2420158  55.3633156  66.0825424  56.3660240
  54.2559204  67.0727997  56.6559486  81.2771912   1.2078567  11.4048252
  80.4556808   0.9328226  10.9977522  81.9325638   0.6059381  11.0520992
  10.7529478  10.8128777  84.2585068  11.5539541  10.2974977  84.3534012
  10.1691580  10.2556229  83.7438354  58.7748909  20.6401272  38.2224846
  59.5225677  20.4066162  38.7726517  58.1035156  20.9287739  38.8406792
   2.6897252  36.9883270  87.8207932   2.4540596  37.6040726  88.5147324
   2.7729242  36.1453896  88.2666321  76.3616638  22.1906700   4.5175643
  76.1869278  21.4745331   3.9069524  76.9795685  21.8218594   5.1487517
  23.1948776  57.9502029  75.3989563  23.8841763  58.2216225  76.0051117
  23.6584206  57.4880142  74.7005692  43.3514519  14.8026819  84.3364105
  44.2860527  14.6253767  84.4427719  42.9227257  14.2008371  84.9448547
  80.0835419   5.8468509  59.7464104  79.6541138   5.7969265  58.8923988
  80.4006195   4.9581542  59.9073753  28.2099991  25.0626411  89.3442307
  28.7553120  25.6072865  88.7765808  28.3018093  24.1788292  88.9883118
  23.7415333  26.5826912  78.7003708  24.4218521  27.2483845  78.8016129
  22.9445190  27.0038662  79.0222549  46.7730446  67.0664291  22.2074394
  46.7914658  67.7925262  22.8308697  45.8447151  66.9456024  22.0078487
  57.4798279   5.3468547  76.4098434  57.0296898   4.5411453  76.1559906
  56.7959518   5.8900342  76.8016357  71.9062119  30.7751904  11.9548292
  71.7665558  31.7067986  12.1246347  72.5826340  30.5164223  12.5807066
   7.0918989   1.7765527  23.0109844   7.7228231   2.2748661  22.4915123
   6.6455183   1.2181243  22.3744831  43.3573608  29.3289948  57.2058296
  44.1208038  28.8113232  56.9500809  43.1418953  29.0194626  58.0855980
  83.4773102  45.7311974  61.5291138  83.7241287  44.8293648  61.3241463
  83.2840424  45.7194595  62.4665260  44.2411728  62.5545120  22.4824543
  44.7549019  62.9588776  21.7833118  43.5244408  63.1692772  22.6392765
  77.0306625   9.4589624  69.2825928  76.9211044   8.6559429  68.7732925
  77.2190628   9.1555166  70.1706619  18.3046417  29.3076763  35.2325745
  18.1429253  28.6925449  35.9479027  17.6901169  30.0245647  35.3896217
  47.7839851  69.8560944  56.7531357  47.7868614  69.3565903  57.5696640
  46.8674126  69.8587952  56.4772415  80.6610413  54.6114616  74.8829346
  80.3595810  54.6650543  75.7898407  81.4827423  55.1023445  74.8742676
  61.4009819   7.5150042  14.9694157  61.4222679   7.0556998  15.8089504
  62.1720924   7.1945910  14.5014877  68.2828827   5.6620765  24.2574654
  68.9148026   5.1423044  23.7607365  68.0003128   6.3430305  23.6469841
  17.6482143  55.6554909  37.8478622  16.7764492  55.5029907  38.2125549
  17.7921677  54.9179726  37.2549248  73.6120453   6.4736133  19.7659130
  73.5952454   6.2732472  18.8300686  74.5023804   6.2555733  20.0415916
  60.1857681  55.5615883  68.4976425  59.5487404  56.0654602  67.9911423
  60.1491776  54.6821747  68.1214447  45.6365433  33.9544449  33.7618942
  45.9610252  33.7944527  32.8756981  45.2381554  34.8236847  33.7177925
  64.6712723   4.3107266  20.2049046  63.7155151   4.3558097  20.1780739
  64.8632050   3.7347176  20.9449100  73.1956482   5.5765696  87.9225388
  72.9335403   5.9000611  88.7844391  72.5708847   5.9753995  87.3168640
   5.5394797  15.8056660   3.6921315   6.4252739  15.5366793   3.9355385
   5.5657854  15.8814812   2.7383013  26.6730766  53.1859474  80.0552826
  27.3609600  53.7818031  80.3519363  26.8035946  53.1215286  79.1092072
  74.0801773  58.1376762   9.7923651  74.9163742  58.1484337  10.2580757
  74.2202530  58.7065849   9.0354300  37.1476288  56.6264648  37.9002228
  38.0609055  56.5015831  37.6422310  37.0001678  55.9724617  38.5834274
  56.6345177  51.1623421  37.2806435  57.4877357  50.7730179  37.4721756
  56.0037613  50.5707855  37.6910515   0.5433640  34.5423203  10.1734924
   0.5122690  35.4146156   9.7806005   1.3640013  34.5306206  10.6660872
  81.8510056  39.3377495  40.9361992  81.3755264  39.9905396  41.4500275
  81.3798599  39.2985001  40.1039047  75.4781723  52.6892700  64.2373505
  75.0298462  53.0558205  64.9995041  76.3642044  52.5024033  64.5476151
  14.8166218  33.2445183  34.5133934  14.2993603  32.9259911  33.7736549
  14.4715710  32.7692566  35.2692337  66.8722153  62.2285576  71.0319366
  66.5590363  63.1287270  70.9433670  67.8017960  62.2753029  70.8085175
  53.4465256  65.7756424  17.6835060  53.9780197  66.3085251  18.2749290
  52.8112564  65.3445511  18.2551880  38.8131828  13.4216442  16.3964062
  38.5560074  12.5723400  16.0375519  38.9094276  13.9864340  15.6296072
  21.7779789  34.2560463   1.1008400  21.6174622  33.4840279   0.5582073
  22.1040573  33.9032822   1.9287672  61.8951569   5.9588447  88.7972412
  61.7336388   5.0604591  88.5090637  61.3427963   6.0648971  89.5717621
  81.8886108  33.0437508  17.4864902  81.3518524  33.3341942  16.7490864
  81.3992615  32.3139305  17.8661366   1.2267153  67.3931503  30.2407761
   1.2004768  67.5802841  29.3024139   0.7076703  68.0919113  30.6389637
   7.2978983   9.3298740  34.6765633   6.9201550   9.9795609  34.0837326
   7.9295845   8.8530312  34.1382103  28.1971226  58.3343620  83.1372604
  27.7606773  57.7085648  83.7152939  28.2091846  59.1519470  83.6348877
  82.2789459  50.3808746  29.7963791  82.5969696  49.8075905  29.0989285
  82.1474915  49.7980499  30.5442181  36.2231293  68.8429260   0.9151341
  35.3132896  68.5499191   0.8644142  36.4584007  68.7352676   1.8367029
  15.9179945  44.6745911   9.8260317  16.7228756  44.3920898   9.3917618
  15.3048744  44.8401871   9.1098661  56.9709396  21.6368656  12.9897079
  56.2561264  21.0059853  12.9044743  56.5380402  22.4905796  12.9910002
   3.8835945  43.1886826  12.6530800   3.7486961  43.6373024  13.4878111
   3.9729700  42.2653542  12.8891048  82.4718781  41.1707077  30.7836647
  82.7564316  40.5311890  30.1307659  82.8461380  41.9998245  30.4857998
  49.5815582  56.0468292  53.6771049  49.8626099  55.1893463  53.9964180
  48.9719467  56.3627434  54.3440399  47.8013535  41.4834557  55.5566101
  47.2185898  40.7245255  55.5312004  48.2525978  41.4108849  56.3976479
  19.8863640  16.4560394   4.6157050  20.2202950  17.3431950   4.4827533
  19.5413647  16.4612827   5.5085540   3.8174059  69.6349030   2.6827347
   3.3335612  70.4258118   2.9206276   3.1406665  69.0074692   2.4286046
  50.9625359  64.0583878  15.8006020  50.7848015  64.4401398  14.9410028
  51.3068047  64.7856293  16.3190937   2.9695714  40.1648407  70.9988022
   2.2311625  39.5561371  71.0204315   2.9464655  40.5382004  70.1177292
  81.2656250  30.3037834  41.1179581  80.6573410  29.8657970  41.7132683
  82.0870285  30.3513069  41.6071129  62.1613846  14.2034988  59.7542152
  62.5481796  13.8001890  60.5313644  61.3781509  14.6473866  60.0793953
  62.8155899  37.8687859  77.6562729  63.7506294  37.6838913  77.5682602
  62.6954994  38.0585098  78.5867615  58.8400459  46.0498352  54.4431496
  58.8235855  45.4037666  55.1492310  59.7670250  46.2622604  54.3344345
   5.9949737  46.2670097  39.8880157   6.8284874  46.3473549  40.3517303
   6.2282233  45.8899651  39.0396843  52.7149086  54.2995949   0.2883702
  53.4509583  54.6652908  -0.2022745  52.4630928  54.9949150   0.8961115
  48.6785545   2.0339270  18.2030964  47.8762665   1.5843880  17.9376183
  48.6743965   1.9867524  19.1591244  53.7310982  44.5589561  16.1809673
  53.9785652  43.7723999  15.6948404  52.8435402  44.3794479  16.4912090
  28.8444977  46.4978943  31.2282848  28.9386177  46.4610748  32.1801338
  27.9078445  46.6337814  31.0852985  27.9555397  53.9009361  34.0619621
  28.8080292  54.2150879  34.3632965  27.5306931  53.5664330  34.8518028
  64.6552353  40.6899605  13.1767054  65.0429459  40.8223457  12.3116112
  65.0056229  41.4048195  13.7081490  83.5815125  62.4180984  66.5402908
  83.1572189  62.4299622  67.3982315  82.8619766  62.3077202  65.9187469
  76.0988617   9.0330133  25.3013382  75.3373795   9.5959597  25.4408512
  76.2622299   8.6348581  26.1563320  31.8526382  62.2650490  53.8359528
  32.2274208  63.1299858  54.0022583  32.2277031  61.9988785  52.9964828
  13.8548994   9.9560843  15.3325729  13.8474731   9.3037548  16.0330315
  14.7010708  10.3944273  15.4224682  58.1757240  56.8567543  43.3481522
  57.9371681  56.8094292  42.4223633  59.1179886  56.6888504  43.3615723
  19.0901089  70.4235916  16.1524181  18.8031693  71.2970428  15.8859911
  19.1461525  70.4706497  17.1068172  74.5422821  44.9599113   8.3753490
  75.3184662  44.5151482   8.7158651  73.9032211  44.2595100   8.2439470
  55.4794388  52.1651421  22.3231926  55.7553635  52.0912285  21.4096107
  55.6751709  53.0717239  22.5599098   6.5725365  50.0419121  41.2122421
   6.2783222  49.3873711  41.8456802   7.3240108  50.4606209  41.6320038
   4.1843643  43.9861908   6.3260026   3.5973945  44.7421989   6.3137741
   4.2924972  43.7519836   5.4042187  76.5904388  53.4042778  34.9622116
  76.5206451  53.4313164  35.9164810  75.8557816  52.8575172  34.6837196
  48.6983337  59.7421227  44.5978470  47.9709816  59.1378632  44.7463570
  49.4630585  59.1757126  44.4948425  59.3773079  32.5704536  78.1507187
  60.0558205  32.6261444  78.8235855  58.5670815  32.7945557  78.6084747
  19.8724022  22.4074345  85.8935928  20.7831078  22.4767056  85.6071548
  19.5351906  21.6374969  85.4356461  31.4999676   2.1324520  11.5426378
  31.2087250   1.8009851  10.6932030  31.8307590   3.0111248  11.3562422
  66.8386002  63.1617355  21.6618710  67.3010330  62.4912605  22.1647129
  66.2902298  63.6089172  22.3065033  75.0075912  49.3874016  56.6083870
  75.2337418  49.7317848  57.4723816  75.8074265  48.9580574  56.3048134
  29.2597694  60.5438576  78.3742218  29.5877132  61.1143723  77.6790924
  28.4042377  60.2511520  78.0601807   4.1985292  63.5029449  59.9777832
   3.5537632  63.2495880  59.3172417   3.9948814  62.9532547  60.7344856
  36.5586395  60.0527458  35.3002090  36.2795906  59.1399307  35.3718071
  36.3075523  60.4462128  36.1358948  64.2418365  11.3969851  53.9212303
  64.2160187  10.5265493  54.3186035  63.5142365  11.3980179  53.2992706
   5.7017274   8.0267811  48.5067406   5.0960693   7.9002900  49.2370911
   6.2770619   7.2624044  48.5375595   6.8325911  67.0997314  10.1724167
   7.6718097  67.2274017   9.7300997   6.3913951  66.4234238   9.6584339
   6.5276465  17.4225311  16.4800606   7.2438211  16.9144707  16.0990086
   6.2076392  17.9639130  15.7584429  28.7248592  18.2467556  16.4751377
  29.4143410  17.9616032  15.8755236  28.8903923  17.7570095  17.2807293
  53.0776100  16.3344383   4.9010420  53.7563210  16.4382877   5.5679746
  53.4054909  16.8248730   4.1472507  37.4552956   1.8956378  28.2371159
  37.9491272   2.7077351  28.1237068  37.8917694   1.2675444  27.6615963
  36.7225304  56.0760155  68.5070190  36.7413292  56.7465935  69.1898117
  36.0182190  55.4843254  68.7717438  53.4108429  17.4590244  12.6617908
  52.4627037  17.3581848  12.7460394  53.7741508  16.7062511  13.1282368
  29.0150833  14.1812277  66.4812775  28.3097591  14.4689646  65.9016647
  28.5921822  14.0603752  67.3314438  46.6304436  19.5803146  69.9523621
  46.3483849  19.8863506  70.8143463  47.5667343  19.4090099  70.0535812
  69.7549438  22.2181091   9.3545341  69.1164703  21.5179348   9.2191038
  70.6046448  21.7800236   9.3064289  66.4080505   3.0048442  81.7304001
  66.5936432   2.9469831  80.7931519  65.6509399   2.4337683  81.8603439
  16.6729660  25.1343460  28.8151398  16.9256268  25.9266090  28.3410969
  16.6304283  25.4069595  29.7317104  57.0016785  39.1330338  53.7708321
  56.7440872  38.6871948  52.9639206  57.0345688  40.0595169  53.5325470
  71.5500793   5.0320268  67.3569336  72.1236725   4.5066795  66.7990494
  70.6660843   4.7413068  67.1327515  11.4484615  20.8514843  83.0802765
  11.2762871  21.7487926  82.7949142  11.9785519  20.9492493  83.8712692
  48.9096069  53.7284737  46.8725090  48.0501862  53.7231636  47.2939377
  48.8910370  52.9760246  46.2811470  10.0597916  52.7716255  19.6517525
   9.2128105  52.5263557  19.2793312  10.6540546  52.7931404  18.9016724
  79.2259827  55.4950485  58.7245750  79.0000916  55.4153175  59.6513138
  79.0046616  56.3990822  58.5010223  80.1126862  66.6810608  39.3898125
  80.3196793  67.0669479  40.2409744  79.7949295  65.8020554  39.5962410
  85.9165115  13.0565853   5.8900180  86.6068115  13.2573309   5.2580237
  86.3583450  13.0682125   6.7390647  52.6915283  37.8878746  73.6204376
  51.9932022  38.3898735  74.0406418  52.8917313  37.1887207  74.2427979
  59.7426224  27.8613949  23.1908474  60.4947433  28.4090004  22.9657345
  59.4477310  27.5035248  22.3534718  40.4357986  55.8400917  88.6515121
  39.8959122  56.0141411  87.8805008  41.3077583  56.1513557  88.4085541
  10.7552462  27.7908401  13.8897371  11.2994404  28.3825874  14.4092741
  10.4231567  27.1536121  14.5221052  80.5357285  17.2972698  25.8621788
  80.3776703  17.2847214  26.8061543  80.6092072  16.3743038  25.6193447
  34.6752129  58.4217300   0.9103433  34.9987068  59.3157578   1.0212492
  34.1110497  58.4652061   0.1382922  82.9884262  53.9836578   6.8791299
  83.4180145  54.8063927   7.1131988  82.0691223  54.2201042   6.7558036
  16.3417358  65.4729691  84.2173157  16.8860912  64.6870880  84.2653503
  16.4470844  65.7826767  83.3177490  58.0316124  48.4054489  32.2416573
  57.2604637  47.9380417  31.9205799  58.0950890  48.1576042  33.1640320
  42.3354721  28.7822247   5.4789906  42.8641815  29.3535690   6.0360060
  41.4339104  28.9446602   5.7565370  84.5862503  52.3862457  87.2863693
  85.3218384  52.7465668  87.7816467  84.9937439  51.8258820  86.6259384
  54.9802475  18.1571560  89.2392349  54.4756279  18.1938953  88.4266891
  55.8531113  17.8743744  88.9665222  82.0285797   5.0834880  81.0330124
  82.8281555   4.5633955  81.1131210  81.7772293   4.9962540  80.1135330
  58.5593681   1.1462847  33.3383141  57.9447060   1.8780574  33.3924255
  59.0818863   1.2127879  34.1375542  39.1968155  20.0835686  71.1736221
  38.9986877  19.5018101  71.9074707  39.8736992  20.6710415  71.5096817
  30.1252918  40.8319664  55.4221420  30.0154610  39.9072418  55.2006569
  30.9409485  40.8632660  55.9221001  15.8914213  37.2298698  66.2782440
  15.8493624  37.7903595  65.5034485  14.9764624  37.0445061  66.4897156
  14.6999521  38.4394798  30.1943035  14.3532495  38.9607887  29.4702435
  15.6504326  38.4940071  30.0950737  55.6211700  70.2574387  56.9588051
  54.7266350  69.9622726  56.7887802  55.5164108  71.1185608  57.3634300
   3.9495571  10.2994041  46.9049187   3.5228002   9.5150433  46.5601158
   4.8205018  10.2923641  46.5078850  46.3938217  68.9648285  24.3085251
  46.7645149  69.0218735  25.1891842  45.4706573  68.7553329  24.4503517
  63.7558136  57.6096420  31.7183342  63.8536263  57.6813431  30.7688484
  63.6349335  58.5115013  32.0154419  69.9946213  23.2160816   6.0954728
  70.6435013  23.0833607   5.4044099  69.6706924  22.3370361   6.2918935
  54.0718842  64.2559204  71.1418533  53.4314079  63.9787903  70.4867020
  53.9550133  63.6410942  71.8661194  66.6713867  35.9277534  87.0018845
  66.1655350  35.4429398  87.6540375  66.0345993  36.5126114  86.5911865
  23.1476345  28.4845753   4.3038974  22.6633816  28.3224354   3.4943030
  24.0462894  28.2242661   4.1016870  70.6323929  40.9157410  58.5391617
  70.8074951  41.1463852  59.4515038  71.4873199  40.9645729  58.1114426
  44.8796310  64.1033478  27.8935566  44.4495583  64.8937531  28.2199478
  44.6918373  63.4378090  28.5553913  44.0188141  48.6180992  57.6148834
  43.3035126  48.0541267  57.3207626  44.6615868  48.5786934  56.9067001
  59.3307533  70.4722366  38.3504486  60.1025925  70.8502579  38.7718697
  59.2971764  70.8923874  37.4910431  25.3458424  61.2430916  33.9644661
  25.5238991  61.7839432  34.7338867  26.1989822  60.8829460  33.7222290
  43.4744186  71.1636810  85.5155869  43.0094414  70.7111130  84.8118744
  44.3964958  70.9542236  85.3668213  66.6536713  12.6103182   7.9649916
  66.3118744  12.0037842   7.3080869  65.8766251  12.9283495   8.4246540
  14.5894880  17.5718212  28.5596466  14.7716541  17.6999607  29.4905758
  15.0178204  18.3109379  28.1278229  36.0206985   3.8172750  13.7224236
  36.4943428   3.0265663  13.4642143  35.9294662   4.3174152  12.9113951
  52.7791595   0.6411548  64.9804001  52.4164276   0.0450062  64.3252182
  53.6834259   0.3490938  65.0954361  13.6310015  61.7859154  15.2016134
  14.3890333  61.8685112  14.6229963  13.3194399  62.6835022  15.3177986
  33.5576286  33.0686188  44.3283463  33.6231155  32.5046043  45.0989494
  34.4560394  33.1382828  44.0054817   4.0633383  48.7074471  15.6716681
   4.9467125  48.9046135  15.3602076   3.6948607  48.1339989  14.9996471
   2.9346616  46.3607216   5.4334197   1.9958822  46.1759682   5.4052987
   3.0667026  47.0325089   4.7644625  30.3961525  40.4006004  25.2319870
  31.1678410  40.9567604  25.3388309  30.7455788  39.5101128  25.1977749
  78.9950027   8.8430882  61.3580742  79.8080444   8.5522680  60.9450111
  78.8929291   8.2684584  62.1167641  68.7597885  40.3238983  75.3109741
  68.8330231  41.1589813  74.8489075  67.8414536  40.0737267  75.2094574
  70.9925919   3.2288182  42.6874161  70.7296982   2.8904810  43.5433655
  71.1457214   2.4465938  42.1574097  26.0518494  47.8445435  18.5778694
  25.9927502  47.9971275  17.6347580  26.9148769  48.1796036  18.8210850
  60.5539742  22.4158401  33.3915710  60.1728897  22.4204617  34.2696266
  61.2594261  21.7706909  33.4400406  42.6426849  55.3518219  44.0961685
  43.1413307  54.5767021  44.3545799  43.0438690  56.0692177  44.5867043
   1.5519251  62.0114784  73.9056473   0.7481048  62.2180290  74.3825531
   1.6666014  62.7444229  73.3007736  84.5774384   5.3703818  85.3108215
  84.4749680   5.7085805  84.4212418  84.0333557   5.9447870  85.8495865
  70.6112900  26.1151905  35.8383369  71.3360519  26.7171154  35.6691208
  70.1773911  26.0184441  34.9906349  58.9817810  39.9311142   4.4310408
  59.8283920  39.9898453   3.9882841  58.3851891  39.5929718   3.7632284
  43.9634361   2.4659255  15.0561895  43.1666718   2.9703169  14.8919077
  43.8174591   2.0589509  15.9101772   9.1693420  62.1853256   5.3590097
   9.5918970  61.3625031   5.1127639   9.8096809  62.6255150   5.9179659
  34.5943146   3.6051483  65.1676025  33.9846535   4.3413086  65.2187271
  34.0327263   2.8304310  65.1417694  82.2416306  62.0571899  81.8330765
  81.6243210  61.8992157  81.1187897  81.8865585  61.5610466  82.5706329
  50.3775902  21.7052250  42.5412979  50.8053398  20.8549442  42.6427078
  50.0212288  21.8989830  43.4083023   7.8152957  13.8698683  62.3516235
   6.9598165  13.6803761  62.7369537   8.0471544  14.7325029  62.6956215
  47.0528374  53.7746391  13.4178238  48.0034256  53.6628761  13.4069567
  46.9235382  54.7221260  13.4600172  60.9113960  64.2930984  51.0063782
  60.1648521  63.7449379  51.2481003  61.2507782  64.6170425  51.8407059
   6.2011728  47.3012009  85.1999664   6.1170611  46.7614326  85.9859695
   6.4411917  48.1674843  85.5288696  37.0223694  57.7039986  80.9136124
  36.8069191  58.1755867  80.1089859  36.4526711  56.9349060  80.9003220
  52.9500771  61.9402237  21.6564178  52.8023872  62.7316589  22.1741543
  52.5874062  62.1464386  20.7949200  63.9244614  46.1806984  63.1788788
  64.3052521  45.4299355  62.7232666  64.4665527  46.2865982  63.9606438
  23.9840527  43.0003700   4.8406968  24.7740326  43.1687241   4.3270636
  24.3096962  42.7138443   5.6939802  80.1529770  54.8054428  25.1303406
  80.1204681  55.1652031  24.2439156  80.9116516  54.2218361  25.1242943
   8.7279959   9.5164804  69.6866074   9.1704845   9.1352043  70.4449387
   9.0571108  10.4142952  69.6436539  28.5025558  68.8143692  72.5141754
  27.6207600  68.5320511  72.7570038  29.0519695  68.5428085  73.2494507
  60.8101807  59.0590363  73.3301620  61.5579491  58.5759735  73.6819000
  60.2413940  59.2037621  74.0863113  71.1172791  22.1352291  12.9096270
  70.8829269  21.2151947  13.0314741  70.5286636  22.4430714  12.2204266
  43.2416458   2.0717564  45.2034225  42.5804024   1.4030118  45.0251694
  43.3967896   2.4872677  44.3551788  55.6759338  28.8509521  34.9866028
  55.1174583  29.2078724  35.6772156  55.1044540  28.2576427  34.4991341
  43.9190903  50.4392624  30.1422482  43.5113983  51.2036858  29.7352180
  43.3020859  50.1732941  30.8240089  36.5546875  52.6557159   1.2207615
  36.2780418  51.9878731   0.5933176  37.3512764  53.0261307   0.8406668
  84.5387955  12.8237476  51.0696144  84.5150757  13.7481146  50.8222008
  83.6860199  12.4819393  50.8009682  59.0198326  12.0899324  27.5057545
  58.1067505  12.3437853  27.6401997  59.4456635  12.2751865  28.3427601
  27.7570686  35.1804352  86.5126877  27.6537514  35.9606018  87.0575790
  26.9357681  35.1184349  86.0249863   4.4701800  11.4676962  23.6788368
   3.6536283  11.9294424  23.4883976   4.4407477  11.3082113  24.6221962
  68.6838760  24.4705830  82.1336441  69.5681763  24.1377239  81.9804688
  68.7231750  25.3880424  81.8635483  70.7210159   5.6842389  84.2111130
  70.7311707   4.8093457  83.8229294  71.1681900   6.2361536  83.5695114
  22.9416027  34.0334625  77.6182556  23.5504055  33.3468094  77.3460464
  23.2621651  34.3114128  78.4762878  66.1668777  28.9742966  42.4290581
  65.3790207  29.1675797  41.9209633  66.8897629  29.1563759  41.8286324
  48.8784904  51.0292320  73.6889114  48.5342789  50.7711029  74.5439682
  48.9376106  51.9836006  73.7326965  57.2786293  59.7845535  12.1535273
  56.6352348  60.4629898  12.3584728  57.7386818  59.6334877  12.9792175
  65.4894257  19.3817825   6.6117954  64.8074265  19.2976437   7.2781515
  65.0134659  19.5826607   5.8059769  23.2297611   7.9775710   3.9508297
  23.5702381   7.0852647   4.0148368  22.3063107   7.8659391   3.7249768
  60.5951958  17.3324852  39.8835640  60.3664284  16.7770901  40.6288376
  60.2060928  16.8918495  39.1281357  19.0482807  17.9894123  10.0826082
  19.3227539  17.2428913  10.6151514  18.6998730  18.6188393  10.7140083
  74.6791229  38.0606308  85.3870697  74.2216797  37.2311363  85.2495422
  75.2670517  37.8907661  86.1230774   2.2216444   8.6025839  64.9477844
   1.3484271   8.2123375  64.9099579   2.4281580   8.6374302  65.8817978
  69.2465134   4.9512525  43.8038979  69.5406570   4.5555701  44.6243515
  69.8112030   4.5637908  43.1351509  22.0343075  32.9154892   9.0790710
  22.9590778  32.9763985   9.3184919  21.8673592  33.7056885   8.5653152
  39.4632950  47.1327782  73.8437805  39.3590469  46.3670540  73.2789536
  40.4104538  47.2535095  73.9111938  57.1991959  36.3519211  61.5744514
  57.8080521  37.0493088  61.8177223  56.5823326  36.7710419  60.9744148
  83.0803070  66.3920822  87.0068588  82.4135818  66.2378387  86.3376007
  83.8943787  66.4966736  86.5143280   8.6149168  68.2908325  73.6990204
   8.2115173  68.0547485  72.8636932   9.4338322  68.7227173  73.4559326
  77.9155350  60.8616295  13.0503988  77.9118652  61.8084145  12.9096403
  76.9946823  60.6071281  12.9913082  65.8613205  19.3157959  25.7625713
  65.9463654  18.4160423  26.0779095  66.3615646  19.8377495  26.3899078
  63.7307854   5.7027559  68.8373718  63.4622536   6.6122313  68.9676666
  64.6873398   5.7350893  68.8235626   5.5501013  54.8011742  55.2993431
   4.6786723  54.4228249  55.4163742   6.0327187  54.1414719  54.8012466
  78.0424728   6.5894551  54.3073158  77.2818604   7.1501565  54.1546288
  78.7954102   7.1575537  54.1442604  78.4673538   9.0552549  74.2651596
  78.9194489   9.6181288  74.8936615  78.3441162   8.2277164  74.7301636
  77.0745544   3.0879862   6.3916359  76.8570099   3.9074719   5.9473982
  77.0821075   2.4322457   5.6943707  49.5620918  36.2389717  82.1059418
  49.5381546  35.9193344  83.0078812  50.1919861  36.9594879  82.1238174
  86.5129852  13.9031324  82.5371094  87.4386597  13.6782827  82.6308823
  86.2602463  13.5300541  81.6926193  82.8933411  65.3054504  38.6752434
  82.0879211  65.8219299  38.6473160  82.6101227  64.4099197  38.4907417
   3.1405509  15.6515579  57.8605957   3.6365554  15.9434814  57.0957489
   3.6879964  15.8933353  58.6076431  46.3867188  26.8593407  40.9563904
  46.2763176  27.3670959  41.7602730  46.4586029  25.9524002  41.2539215
  12.5586767  51.6604767  79.3681183  11.8703098  52.2080193  78.9905243
  12.9280519  51.1905518  78.6204834  40.4534912  36.3199005  85.8640442
  41.0284958  36.1919174  86.6185150  39.6229248  35.9225464  86.1257782
  49.4086418  26.0401783  79.4277191  49.2931709  26.8570919  79.9130554
  48.7656097  25.4422455  79.8087921  79.4349060  11.1424932  67.6127548
  78.5988998  11.4072599  67.2290497  80.0882263  11.6644459  67.1469574
  62.7168732  61.6524391  73.9781189  61.9799614  61.3218994  73.4643784
  63.4900322  61.4251404  73.4616013  25.8263607  50.1545563  74.0901642
  25.0979939  49.9469833  74.6755066  26.2059231  49.3040619  73.8692017
   9.4995146  27.2978611  18.1329308   8.6466761  27.6828918  18.3345490
   9.3342886  26.3557510  18.0960770  58.7768936  26.1295662  82.0547180
  58.6373253  25.2786007  81.6392517  58.2085533  26.1162148  82.8248062
  76.6020432  27.0255356  14.8935318  76.8694077  27.4048958  14.0563736
  76.4848633  26.0938721  14.7077780  28.5182304  60.2298393  41.9824982
  28.9083824  60.9831543  42.4258194  29.2573757  59.6492081  41.8015022
   4.7457876  39.1218185  68.0563507   4.4605541  40.0315857  68.1412201
   3.9328182  38.6215744  67.9851761  52.8337975  14.8354416  51.2175407
  51.9725037  14.5586386  50.9048347  53.3787422  14.8567266  50.4308968
  32.5421677  59.8192825  10.3343458  33.0740623  60.0228386   9.5650034
  31.8732357  60.5037384  10.3509645  39.0121307  33.2342339   8.2804585
  38.2363434  33.4021759   7.7454972  39.2572327  32.3330460   8.0706615
  24.8258419  49.7458229  41.7632599  24.8598976  50.6471481  42.0837059
  24.7896996  49.8315277  40.8105888   6.8512740  59.6321678  32.1380959
   6.6662831  58.7407837  31.8423882   6.4871621  60.1923294  31.4526234
  28.7449970   1.7546656  82.3922424  29.4057446   1.0696498  82.2902756
  28.1754494   1.6534934  81.6296082  74.1224518  41.9282227  65.0805893
  74.4719696  42.2872086  64.2649918  74.8810120  41.8710022  65.6615677
  43.0681992  40.6034584  66.8191681  43.6179695  40.1874962  67.4832077
  42.2429771  40.7831306  67.2696762  46.8168068  51.6787949  50.9588814
  47.4054298  51.9254837  51.6722527  47.3926353  51.3060455  50.2912674
  42.5991669  71.4826431  54.5233002  42.0271034  72.0022430  55.0880966
  42.1321793  70.6554565  54.4053802  71.8160629  48.1932297  19.1348400
  72.0687561  48.7439041  19.8758774  71.1362991  47.6174889  19.4850998
  26.2623138  67.3352127  84.6078186  26.2719231  66.4563141  84.2287598
  26.7339420  67.8748627  83.9733353  83.4765091  47.8532066  59.7308502
  83.5793762  47.0573425  60.2526245  84.1701508  47.7998962  59.0733948
   5.6025448  69.3799744  34.6033058   5.4918661  69.8793030  35.4124107
   5.8792615  70.0295105  33.9569588  85.9697189  71.6962128  60.8816643
  86.6464844  71.1375504  61.2639160  85.1559448  71.2089844  61.0105705
  15.3393507  49.2033539  77.9706421  14.6467581  49.8128357  77.7155380
  14.8735285  48.4176598  78.2568665  60.0386086  52.6151543  60.1865997
  60.1351967  52.6166344  61.1389122  60.8888245  52.3206253  59.8600845
  81.6445847  12.7004337  49.9253006  82.0215683  13.5567093  49.7230492
  80.8471451  12.8996420  50.4158592   1.5695544  12.3236942  19.1132698
   1.0464469  11.7459707  19.6689911   2.4304917  11.9068489  19.0777874
  52.7123146  20.1968899  32.1309280  53.1327934  21.0378609  31.9514904
  52.1929054  20.0167828  31.3473396  68.1857224  46.0970879  -0.2977292
  67.3680191  45.7327690   0.0411885  68.4786377  46.7025299   0.3833525
   9.1903553  26.8432579  60.7378159  10.0761089  26.8921719  60.3782578
   8.6344280  27.2234631  60.0576515  17.8590641  39.4570999  70.2440720
  17.3377495  38.7146912  70.5495071  17.7114124  39.4806175  69.2986221
  48.8703270  39.6359978  11.0638552  47.9440842  39.7652855  10.8599167
  48.9334373  39.7992783  12.0049124  12.1547184  68.8096008   8.2037954
  12.5648117  69.5519104   7.7599030  12.4925776  68.0401001   7.7455969
   2.0368457  38.6030617  67.0959549   2.2497001  39.4436607  66.6905975
   2.4950418  37.9558067  66.5599060   1.8248399  50.4869041  56.5025368
   2.1833358  50.2522774  57.3584938   1.2508436  49.7555885  56.2746391
  21.1484547  16.3103027  57.4691124  21.7957401  16.2240849  56.7692413
  20.3840656  16.6970711  57.0420837  31.5529995  44.4474983  32.7549591
  31.9747601  44.1828423  33.5724602  31.5816040  45.4041634  32.7694702
  58.7575493  32.0022888  87.5818634  59.1302490  32.0927048  88.4588699
  59.1701622  31.2151928  87.2262497  68.7783890  23.4445343  84.8524323
  69.1616058  24.1653442  85.3522491  68.6146240  23.8149319  83.9851303
  75.1037216   5.1359425  64.4930267  75.4214859   4.8546982  63.6350288
  75.8612061   5.5522242  64.9043198  78.3659439  57.5811615  35.4200478
  78.1732635  56.7695770  34.9505386  79.2903366  57.5070076  35.6571693
   2.2234151  15.8628035   0.7671519   2.9062154  15.2106161   0.9242111
   2.6948659  16.6937809   0.7084853  58.0822601  36.3832817  39.0417671
  57.2468147  35.9501762  38.8665962  58.6062584  35.7201271  39.4910812
  80.4774475  48.5961151  71.2111359  80.9851990  49.3961029  71.3469162
  80.1629257  48.3610001  72.0840836  11.1964903   3.5391369  68.4324112
  11.9348402   3.0564137  68.0608597  11.2525368   3.3752084  69.3738022
  39.0980415   6.8909183  71.8287582  39.9452705   7.2512174  72.0907059
  38.4704399   7.5857234  72.0277481  31.7835636  34.9845467  71.1794891
  31.7606163  34.1770744  71.6930008  30.8634052  35.2229576  71.0668030
  36.2364655  12.1070385  11.3019495  36.7707062  11.8843737  10.5395584
  35.3376389  11.9298515  11.0245638  55.6075974  45.8047447  17.7547932
  54.9689217  45.2456360  17.3123913  55.6281967  46.6056786  17.2310467
  82.4459457  62.7106895  85.8792725  82.3295288  61.8081932  85.5823135
  81.7327957  62.8518257  86.5019455  52.4957695  41.8558121  73.5314102
  52.4914246  41.8671875  72.5742874  53.3835297  41.5834694  73.7636719
  49.2150230  13.2772751  24.2347908  48.2858086  13.1984682  24.0189552
  49.2336273  13.3545103  25.1886883   5.5299439  52.5446892  11.7736645
   4.6170349  52.3440552  11.9800014   5.6344795  53.4639969  12.0189619
  47.5942039  11.1879530  10.1250334  48.2149811  11.9062691  10.0030193
  46.8070793  11.4698696   9.6589956  26.9547329  51.0037079  77.7879486
  26.6447239  50.2264748  77.3231506  27.2741261  50.6699486  78.6262894
  51.0953064  49.4328384  54.0561371  51.5188675  48.9674492  53.3348618
  51.8154945  49.8548393  54.5246239  72.6291351  20.2783833  77.4891434
  73.3650665  19.9103317  77.0000839  71.8970871  19.6922035  77.2974854
   1.2576185  53.7866135   7.8548627   0.4165734  53.3980293   7.6142874
   1.3178947  54.5776901   7.3193312  86.3568420  45.0785599  47.1180420
  87.0620422  45.3237572  47.7170372  85.6034622  45.5901680  47.4128342
  19.9016781  68.5752029  63.2557259  20.5541458  68.6672211  63.9500237
  20.2737484  69.0505447  62.5128632   4.6097655  59.3046494  37.2626266
   5.5414610  59.3829460  37.0575829   4.3787246  58.4161568  36.9916420
  46.1402855  30.5054932  81.9505844  46.3234978  29.9681740  81.1799011
  46.9945641  30.6307945  82.3637848  63.0541725  49.7855911  72.0520630
  62.9833679  50.5208511  72.6608353  63.0816879  49.0111732  72.6139832
  51.8677177  63.4357567  78.1106644  52.7919464  63.2419968  78.2671432
  51.8129845  63.5972290  77.1687698  19.3558731  60.5892181  69.7394104
  20.1243553  60.7330551  69.1871643  19.7119808  60.4764252  70.6207123
  50.1544418  11.9316702  55.5267105  50.6262589  11.1148901  55.6894722
  49.4669151  11.9478788  56.1925011   8.5671692  43.4730568  51.9776382
   8.8783445  42.7486763  52.5204811   8.6982183  43.1720390  51.0785027
  57.3348656  22.4397526  76.1555328  56.6886101  23.1398430  76.2475128
  56.8867378  21.7657452  75.6445312  86.6275864  61.3115959  17.0508194
  86.2879868  60.4182091  17.1034203  87.5663986  61.2209587  17.2140713
  51.8978119   8.9962139  33.5989342  51.9239540   8.5090466  34.4224739
  50.9847488   8.9411440  33.3169556   8.5704880  12.6838589  87.6879501
   9.1822729  12.1264200  88.1688004   8.9102621  12.6961956  86.7931747
  53.9910088  47.1949844  38.0463905  54.1517448  47.1181831  38.9868698
  54.8330383  47.4663086  37.6808701  46.7693443   3.2434318  14.5942602
  45.8691063   2.9612577  14.4324560  47.1651421   2.5170267  15.0758314
   9.1367435  62.0138168  10.9602890   8.8436947  61.3276482  10.3606853
   9.5758600  61.5420036  11.6679611  23.6089420   0.9080385  57.3697205
  23.0398045   1.4518961  56.8251724  23.6893444   0.0860971  56.8857994
  65.2222137  30.3156700  17.7726040  65.5869141  30.8584175  17.0735683
  65.9851379  29.9062862  18.1807480  81.4989548  22.5602951  75.2472076
  82.3914871  22.3340626  74.9855957  81.0467758  22.7423649  74.4234161
   2.9739175  24.5275288  81.1533508   3.5270839  25.2704163  80.9117813
   2.1273391  24.9191608  81.3682022  12.7310829  10.5475864  74.6793442
  12.7117596  10.3459826  73.7438126  12.4956188  11.4740105  74.7296219
  64.8367386  60.8655891  62.3987389  64.4356689  61.0472679  63.2486610
  65.6547928  60.4162178  62.6110878  79.4202881  21.0377159  84.7846222
  78.9045410  20.4661999  85.3534851  79.5659790  20.5195408  83.9931030
  10.0092077  17.6070271   8.7256060   9.6064405  18.4479389   8.5090933
  10.9427729  17.8023548   8.8064537  60.1596718  45.2458115  49.1085091
  59.6824799  44.4737129  49.4124641  60.4850845  45.0006409  48.2423515
  10.6720171  38.6241760  34.1615906  11.2264681  38.7561035  33.3925591
   9.8718233  38.2294083  33.8150673  55.4452553  31.4363861   8.6091871
  54.6281013  31.6971912   9.0340014  55.6859398  32.1897469   8.0699730
   2.1987872  69.6686325  84.1533508   1.6541204  68.9072189  84.3529129
   2.9858778  69.3012772  83.7511368  59.6003151  42.9323883  56.4151344
  59.8184242  42.4133339  55.6410255  58.6603546  43.0955238  56.3370743
  15.2754984  59.1337624  32.8908043  15.9771252  59.0069275  32.2521591
  15.4126034  58.4418221  33.5378342  84.0709229  67.5439835  12.7762165
  84.6052322  67.3822479  13.5537663  83.2031860  67.2136612  13.0089436
  38.9380188  28.5405540  86.4825974  38.7639656  29.3077049  87.0279541
  38.1435776  28.0112934  86.5531693  12.6935987  69.8252106  67.0458221
  13.6054697  69.5464935  66.9619141  12.6561289  70.2703247  67.8924103
   9.6596937  16.3373070  80.5287857  10.2797489  15.8246260  80.0102081
   9.7260380  17.2237759  80.1738129  73.3942032  29.0696278  51.6051712
  73.1190186  28.1836586  51.3694534  73.6823196  29.4586105  50.7793884
  76.4613419  45.5129166  35.1349678  76.9392395  46.2547302  34.7640686
  77.0871277  45.0973206  35.7281876  58.6085205  60.9972267  86.0289459
  59.2856560  61.6117592  86.3119202  57.7893257  61.3851051  86.3366852
   8.7095985  27.9101696   0.7017525   8.0446615  27.5369320   1.2803565
   8.5018253  27.5548782  -0.1624409  46.5110703  56.9796486   6.0985732
  47.3988609  56.6250267   6.1465464  46.3681374  57.1421738   5.1661634
  68.7134323  53.8956833   5.8188949  68.7537689  53.7788010   4.8697147
  69.4252548  53.3526802   6.1575470  49.8767548  71.0081635  34.5395470
  49.1685143  70.7852783  35.1436577  49.5318642  70.7875671  33.6743202
  69.0530472   5.9900670  66.0851135  69.7103271   6.5918183  66.4345627
  69.3948364   5.7330647  65.2287521  72.6609650  31.2750778  43.7354889
  72.1899490  32.0500336  44.0417862  73.5653610  31.4188042  44.0141182
  22.5925179  52.8516312  19.2185211  22.9733086  52.7603722  18.3450775
  22.6748295  51.9810638  19.6078415   5.8054266  34.6246986  73.2747650
   6.4989948  34.5631561  72.6179504   6.0468907  33.9794197  73.9392471
  59.1364326  55.0925560   4.6202025  58.7065392  55.9145470   4.8563228
  59.1233444  55.0817184   3.6631532  30.0476379  70.2424927  20.8898697
  29.1395550  70.4962997  20.7249470  30.4798374  71.0555191  21.1514416
   1.3373606  24.2871590  28.8457928   1.5386946  24.9914036  29.4620209
   0.3809898  24.2530861  28.8251610  83.5557556   5.4923172  15.5275555
  83.2695465   6.0612464  14.8129673  82.8977814   5.6173120  16.2114315
  34.3126755  46.0793495  86.9517517  34.7917938  45.3762131  86.5132599
  34.9686470  46.7607918  87.0986176  85.6028061  56.8113365  14.8715467
  85.0358734  56.7664337  14.1016073  85.2223587  56.1837425  15.4860487
  26.8352547  59.0256729  36.6599121  27.3080769  58.8502846  35.8463364
  26.8103943  58.1809235  37.1093674  62.7361259  61.2445183  64.5225296
  62.0151253  61.6480408  65.0058136  62.6294823  61.5604210  63.6252785
  16.9841003  53.1497917  39.9695015  16.2945766  53.6001816  39.4817123
  17.7102642  53.0811691  39.3496552   0.2751192  20.1644478  66.8670731
   0.6827204  19.4250011  66.4161682  -0.2831745  20.5709171  66.2042542
  27.5905991  38.4426003   9.5872641  27.6634827  38.8747559  10.4382410
  26.7339687  38.0159950   9.6078672  73.7253113  39.3248672  39.7740211
  73.4475098  40.1871719  40.0830345  74.4476089  39.5071030  39.1729279
  81.1154022  13.8587980  35.9681931  81.1464691  13.7372046  36.9171295
  81.6774826  14.6162558  35.8052444  57.7616844  17.7262440  42.9955330
  57.7591171  17.0455952  43.6685410  57.9908867  18.5275955  43.4662056
  64.4822769  30.9673748  47.5606346  65.2244873  31.5166683  47.8129005
  64.1171646  30.6619511  48.3910789  46.4053574  66.6033936  50.4913254
  46.8613510  66.4632034  51.3211708  45.6224632  66.0561066  50.5527916
  69.3410339  59.5503807  42.1059074  69.4318924  58.6800575  41.7179489
  69.4240112  59.4025230  43.0479736  60.7448082  68.0704803  38.3167114
  59.8772888  68.4510651  38.1795921  61.3493652  68.7112885  37.9424057
  75.0518188  12.7525072  88.7308960  74.8785172  12.7575455  87.7895279
  74.6901474  13.5810471  89.0454559   0.9898386  33.3146324  82.4982071
   1.1385003  33.2796555  81.5532684   1.1849279  32.4289246  82.8043060
  77.4174652  41.8445778  18.3735638  76.8259964  42.1945877  19.0398140
  77.2529297  42.3838921  17.6000652  51.0361328  64.6724930  60.1557236
  50.9768486  64.4251480  59.2329369  51.2482147  63.8566589  60.6092224
  67.7843933  60.8259010  22.6395264  67.1633682  60.1148720  22.7976360
  68.6065598  60.5143929  23.0179882  68.8856812   3.9824383  48.1945381
  69.5505371   4.5211363  47.7655754  68.7798996   3.2269840  47.6163216
  58.6524734  59.9224586  19.8884487  59.4645271  59.5518951  20.2341156
  58.9069595  60.7792625  19.5458794  38.0268364  50.5024071  31.3114738
  37.2677879  50.7505951  31.8391876  37.7617989  49.6916542  30.8771152
  48.4626579  19.6629372  16.3795509  49.1419678  18.9948025  16.4710064
  48.4658318  19.8817463  15.4477015   2.1743565  26.4714088  41.2420883
   1.2495818  26.6359863  41.0578651   2.1716275  25.7051125  41.8156853
   0.8784525  64.0799637  80.0778427   1.8050433  64.2065506  80.2818909
   0.6407852  63.2728500  80.5342560  59.7092323   8.4426336  35.7025833
  59.7198563   8.7870455  34.8095551  58.7886620   8.2413645  35.8707314
  79.8113632  18.2651501  63.1899147  79.7090225  18.9485264  62.5275307
  79.8224258  17.4480991  62.6913757  35.8376617  54.0476761  78.2660599
  36.0336456  53.2562714  77.7645645  35.9737587  54.7640305  77.6459427
  50.2944984  18.8112049  77.3887482  51.1421585  18.7357368  77.8269424
  49.6776886  18.3877621  77.9858017  60.4597397  68.5124817  14.8181763
  59.8708115  68.8871918  15.4731493  60.3134117  67.5683517  14.8767118
  32.6418762  70.8293762  28.0870266  31.9194775  71.2040558  28.5909977
  33.3166313  71.5082550  28.0946045  73.8840942  42.4240875  27.2936172
  74.0696106  42.0581169  28.1584187  73.2157898  43.0903664  27.4538383
  75.6497498  30.1538563  17.6487179  75.3756866  30.2141228  18.5638638
  75.0237503  30.7012520  17.1746807  74.7594681  68.5289001  20.8880844
  75.1767349  67.7879562  20.4486294  73.9825821  68.1544724  21.3034000
  49.4310875  64.1041260  88.5492401  49.3527069  63.1501770  88.5407562
  50.3406372  64.2675018  88.7987595  16.6591282  44.4159203  70.2326126
  16.4728584  43.9996910  69.3910141  17.4504013  44.9310150  70.0751419
  10.1954679   2.2242296  56.8162193  11.1179762   2.0111482  56.9569550
   9.9184313   2.6400208  57.6326752  61.8241272  15.2267828  74.6949234
  62.5856133  15.1719465  74.1175385  61.5997238  14.3153801  74.8825912
  20.0100574   7.1008496   8.3090725  19.5825329   7.3184476   9.1373873
  19.8937225   7.8812981   7.7672248  49.9480896  12.3407440  72.8171387
  49.2377396  12.6028461  73.4027481  49.5139084  12.1438618  71.9870987
  84.1991272  56.2392654  55.7743721  84.9076004  56.7824020  55.4289589
  84.2888489  55.4060173  55.3119011  56.1147232  11.1514387  45.9777794
  56.6723938  10.7314653  45.3229065  55.2229538  11.0054779  45.6620674
  53.6100578  68.2184296  61.4303284  53.7112160  67.5176315  62.0744400
  53.5180702  67.7630768  60.5934143  36.9308815   5.8756328  66.4749374
  37.1704674   6.7500653  66.7818527  35.9849014   5.8245854  66.6118393
  74.8667068  37.4218636  31.1129093  75.5079117  36.8548660  30.6844177
  74.6377869  36.9584694  31.9185715  51.4763412  38.9120140  68.8309631
  52.0608559  39.6321106  68.5942535  51.9383049  38.4482269  69.5293350
  46.4712334   6.0432534   5.0034852  46.2495575   5.1892023   5.3745489
  46.9411850   6.4944134   5.7047935  50.4454994  41.7028885  19.7818413
  50.1962204  41.0113029  19.1688137  50.1392822  41.3901825  20.6331215
  40.8116302  36.2106361  81.5277634  40.6972160  35.3247910  81.1836395
  40.9710045  36.7497940  80.7530746   4.1070690  66.6925049   3.3008678
   4.1870756  67.4991379   2.7917776   4.9387584  66.6214676   3.7693524
  21.2198677  38.4690819  12.3766031  20.3627815  38.2542534  12.0085220
  21.8386250  38.2730255  11.6730890  86.8314285  43.0313148  62.1852226
  86.2822113  42.4726906  61.6351929  87.3970337  43.4942245  61.5671310
  48.6983757  21.4769325  71.5941238  49.1217690  21.2438316  70.7679062
  48.6637688  20.6561737  72.0854340  65.7672653  51.5022888  71.3483887
  65.6709747  52.4338799  71.1506500  65.6526947  51.4457016  72.2970200
  53.8226967  48.3417320  41.1362228  53.0655785  48.3440552  41.7218857
  54.2709312  49.1670761  41.3209496  13.8251114  70.9035339   4.8443742
  14.2367506  71.1123734   4.0058212  13.8137369  69.9468536   4.8739333
  27.7020798   1.4940245  79.9747391  26.9265556   1.1392032  79.5401154
  28.2148743   1.8855091  79.2676239  61.6490631  70.1354523  22.4730721
  62.1791458  69.5612183  23.0257912  61.6960564  69.7401810  21.6025639
  27.0509510  43.4794807  62.9301109  26.8003101  43.5144882  62.0069733
  26.2267323  43.3420753  63.3970337   7.3162007  37.5977707  34.2592430
   7.0080624  36.7010384  34.1282768   7.8296475  37.7915382  33.4749870
  81.7376175  68.0784454   8.1084232  81.8551407  68.2393951   7.1721997
  80.7939301  68.1567459   8.2483015  47.5028496  55.7803192   1.6930866
  46.6947899  55.6355591   2.1853452  47.4369125  56.6841507   1.3849119
  19.3990631  42.9023895   3.8824837  20.0281963  43.6197701   3.9585795
  19.1006012  42.9409447   2.9738219  14.0835485  51.6788902  68.6895981
  13.9118996  51.8869629  69.6080093  15.0089312  51.4350891  68.6681595
   5.4828801  62.9089851  32.4152908   6.1695008  63.4341278  32.0041847
   4.7843838  62.8740768  31.7617474  51.4482536  68.8893280   2.6094480
  52.3029137  68.9436417   2.1818571  51.1484985  69.7968826   2.6617486
  71.7251053  54.5766602  30.2035198  71.2887497  53.7551270  29.9779015
  72.6356659  54.4445648  29.9395790  45.7037125  16.0642319  21.4096680
  45.4664536  16.3353157  22.2964897  45.2110329  15.2561731  21.2663479
  61.5436172  -0.1681847  30.6399288  61.6245461   0.0632467  29.7146606
  62.1012993   0.4632155  31.0944118  51.2914581   3.7077310  75.0927658
  50.7911072   2.9025724  75.2254333  50.8165894   4.3702493  75.5945663
  50.7489204   4.5488324  60.3434868  51.3926735   3.9432471  60.7110214
  50.1033821   4.6643543  61.0407410  68.4389954  21.0845375  81.5589294
  67.6274796  21.5885925  81.4988632  68.6325760  21.0530071  82.4958191
  43.6631775   4.8821883  46.8187943  43.0154343   5.4811053  46.4473686
  43.5972404   4.0938649  46.2798805  46.0303764   6.2237544  34.3752289
  45.3273506   6.6247725  33.8641815  46.7978325   6.2709603  33.8051262
  11.1394510  52.0307617  33.8097763  11.2103043  52.7825661  34.3979950
  10.5914812  52.3413773  33.0890274  46.4585648  53.3716278  38.0085602
  47.1987228  53.9392319  37.7935600  45.8082008  53.9606743  38.3910370
  77.2081680  11.7615175  23.8975754  76.5668564  11.1321993  24.2275963
  77.0096054  12.5730953  24.3646374  15.9333925   8.7936850  26.0067787
  15.9476194   9.7504892  25.9831963  16.8280239   8.5353098  25.7851715
  81.7376709  35.3807259  57.0207634  81.7941666  36.2833481  56.7072182
  81.7387085  35.4580841  57.9748306  67.9179382   7.8507695  26.0072269
  68.7839737   8.2403746  25.8871422  68.0329666   6.9319315  25.7648697
  64.1951065   5.0331130  28.1860313  63.3828506   5.5318637  28.0981445
  64.7705765   5.3915715  27.5103283  78.1833878  68.7269516  31.1350842
  77.8454514  68.2194748  30.3971786  78.8388290  69.3065948  30.7469711
  12.4324617  38.1268120  37.6022949  12.8470345  38.1163635  36.7395973
  12.1394911  37.2257347  37.7381706  59.5016479  13.0714512  65.8388596
  58.6831551  13.3326988  66.2608185  59.4569244  12.1160755  65.8002853
  75.6186905  34.6202011  58.2123718  74.8389969  34.3393021  57.7334061
  76.3112488  34.0340271  57.9074173  53.9447365  54.9125862  83.4709473
  53.8396034  55.4957504  84.2226791  53.5176506  54.0985527  83.7377396
   7.8009257  20.7827759  62.1653900   8.1395044  21.6779709  62.1802597
   8.0302105  20.4543953  61.2960091  56.9582329   5.9978681  65.0459976
  57.7814674   5.7480178  65.4656296  56.9354630   5.4843044  64.2385559
  29.0644112  43.3630409  16.3085690  29.7004185  42.6849022  16.5362816
  29.5368061  44.1861191  16.4335346  23.4466877  20.8346786  83.1752014
  23.9888725  21.2404442  82.4987259  23.5152874  19.8951378  83.0055313
  11.8438940  23.2452106  15.3832674  10.8897266  23.3200016  15.3975725
  12.1415253  23.8463840  16.0660858  53.6810608   5.0138030   8.7477608
  53.7996445   5.6147189   8.0121861  54.5198784   5.0308089   9.2085552
  53.9205666  42.5826340  79.6882858  54.6993408  43.1015434  79.4870987
  53.7514267  42.7538490  80.6147308  33.8767319  57.9847221  73.1397629
  33.1922417  58.6022186  73.3974457  33.7525978  57.8689537  72.1977386
  24.5059986  56.0432892  52.9848976  25.4014492  55.7051506  52.9926605
  24.4906578  56.6639442  52.2563515  58.4755135  10.5025082  47.9870682
  58.8248024  10.0763254  48.7697525  57.5480690  10.6375570  48.1815796
  82.2533951   4.1931648   5.8653951  81.6810150   3.5007160   5.5350418
  81.6540451   4.8765984   6.1652832  29.8937759  10.0278854   7.7548685
  30.3997765  10.4372282   8.4567480  30.4325523   9.2896366   7.4703689
  63.6565132  66.0841370  56.0032158  63.4066811  65.2174606  55.6827545
  64.6074219  66.1135864  55.8976402  57.7732620  49.2228966  41.2776985
  57.9950600  49.8275642  41.9858017  56.8360291  49.3548584  41.1348114
  39.5824432  38.8924904  17.9093399  39.2195663  38.8822136  18.7950306
  39.5131378  37.9854240  17.6115742  64.7244797  55.6470642  84.4812698
  65.6508865  55.4432678  84.6095657  64.3224487  55.4812927  85.3339844
  48.2842522  11.2548237  70.9019165  47.7671127  10.4515610  70.9616623
  47.9029160  11.7308693  70.1642227   6.8096614  42.2213440  75.3384094
   6.2952228  43.0282974  75.3181458   6.6399698  41.8078041  74.4919891
  53.1502228  20.9474812  25.5785084  53.5984535  20.6278896  24.7954483
  52.7491531  20.1667328  25.9603539  10.2886486  43.6483498  62.6743889
  10.1073265  44.2140465  61.9238281  11.2300882  43.4819794  62.6270142
  85.4677963  52.5105362   8.0273571  84.6271820  52.9503670   7.9002752
  85.5968323  52.0041809   7.2253671  53.8460274  25.6679974  65.9622726
  54.7246742  26.0098629  66.1276169  53.6804466  25.8685017  65.0410690
  60.7915878  69.5459900  28.2073803  60.1781044  68.9175186  28.5880299
  60.6721115  69.4548416  27.2620506  60.6743736  49.4895821  57.3454933
  60.9198151  49.9789581  56.5603180  60.8371506  48.5742073  57.1178398
  69.5702286   9.6436367  47.3727074  68.8716812  10.0554371  47.8813095
  69.3993073   8.7047834  47.4473381  71.3673172   9.6174068  31.7491627
  71.6516647  10.1912889  31.0377998  70.6495361   9.1077185  31.3733482
  68.8782272  37.7934227   4.9237909  69.1418228  38.6876488   4.7067342
  67.9573593  37.8691711   5.1737823   7.7190428  35.7810287  65.7055740
   7.0030050  35.9968185  66.3030319   7.9208250  34.8646431  65.8946533
  54.7845192  64.0581818  68.4262161  55.3824615  64.6625214  67.9863586
  54.8930054  64.2495270  69.3577957  20.9878082  38.4367905   6.0283594
  21.8938103  38.6462173   5.8013515  20.4622326  39.0008774   5.4610767
  55.4105301  22.9161396  89.1184311  55.5870056  22.1724663  89.6946564
  54.7695656  22.5849133  88.4893951  47.5191422  25.7971153  38.5625038
  47.2124710  26.2677631  39.3375359  47.6328659  24.8944130  38.8598709
  42.1219864  61.4599762  32.9459267  42.0418053  61.6225433  32.0060463
  41.6195641  62.1647949  33.3546257   1.8016418  29.3668289  86.9061661
   1.6751363  29.7178459  87.7876434   2.5588844  29.8428173  86.5652084
  39.2661743   8.5450144   9.1420050  38.3508301   8.6653805   8.8892469
  39.7499161   9.1591234   8.5896492  24.6653881  62.4263077  60.8915062
  25.0179939  63.2608566  60.5825958  23.7193718  62.5060806  60.7693481
  79.1823425   0.8973485  82.1713791  78.5401306   1.1513565  82.8341599
  79.9951096   1.3181129  82.4517517  32.0023003  46.1388588  77.4506989
  32.7107277  45.6002312  77.8031845  31.4550495  45.5245476  76.9614410
  39.8377228  49.3882599  70.4081726  39.5320206  48.6571655  69.8712540
  39.4245644  49.2488098  71.2602768  60.6308517  69.4921646  88.3774033
  59.8496399  69.4858780  87.8243256  61.3273964  69.1586838  87.8118515
  54.9300117   3.1657574  64.3091278  55.8021469   2.8546319  64.5516510
  54.3878250   2.9805095  65.0759048  44.5881615  22.9895153  76.2397308
  45.4296799  23.0863457  75.7939682  44.2244186  22.1758595  75.8906097
  15.4520588  61.9558601  33.8661385  15.2879105  61.0311050  33.6814461
  16.1708202  62.1932068  33.2802391  78.8630066  51.8214569  47.5709000
  78.4040070  52.6232758  47.3206139  79.2270813  52.0136795  48.4350319
  20.2966957   3.6344707  20.2052746  21.2469635   3.6694121  20.3148289
  20.0144062   4.5467930  20.2701855   4.8672447  68.5602264  43.3619804
   4.1880445  68.3225555  43.9931946   5.0685005  69.4748993  43.5597343
  55.5289993  67.0634995  78.0709686  54.7147217  66.7711258  77.6614532
  56.2016602  66.9002609  77.4098282  19.5816803  38.9871101   1.9704536
  19.5830193  39.2661743   1.0548372  19.9020405  38.0854301   1.9464949
  30.6349697   3.8073213  57.3681183  31.4763680   3.3891606  57.5509377
  30.7599678   4.7203102  57.6270752  21.8585243   7.8039403  55.3389473
  22.0417290   8.2939835  56.1405220  21.0353813   7.3497024  55.5187645
  76.5303879   2.5808074  10.1020784  75.5960770   2.6870735  10.2810001
  76.7874603   1.8161591  10.6173019   7.1109686  22.5391293   5.6608510
   7.3138795  21.8876820   4.9895277   7.9407377  22.9907837   5.8148761
  41.9068375  12.3287058   7.1473298  42.3647537  13.1262312   6.8818140
  41.9724236  12.3215017   8.1022530  37.7952728  13.1244593  84.5001907
  38.4205933  13.0515137  85.2212219  37.0120392  12.6737909  84.8159027
  59.6398544  48.4124680  30.0807571  59.7802048  47.4660149  30.0532551
  59.0524597  48.5459785  30.8246517  83.7947617  17.4356365  28.7843609
  84.2036514  16.7770882  28.2227974  83.9595871  17.1265068  29.6751480
  21.2051029  19.4481144  88.2121811  21.8663635  19.9506588  87.7363510
  21.6668739  18.6630459  88.5065765  32.1908722  37.9073639  15.8700161
  31.4659042  37.6274834  15.3111610  31.8402405  37.8589172  16.7593651
  15.1204576  11.4909449  79.0854416  14.6286230  11.0851212  78.3715515
  14.8227577  12.4006281  79.0945511  27.5016022  56.2062302  16.8946514
  26.5549393  56.2306747  17.0341702  27.8381519  56.9420395  17.4060745
  22.3164730  14.9740171   4.6703105  22.0552979  14.0829201   4.4380078
  21.4905853  15.4350700   4.8171849  63.4654503  70.7619476  70.5712738
  62.9808235  70.5753860  71.3753662  64.3716660  70.8741150  70.8583527
  62.0668411   6.1162200  17.0706921  62.9923782   6.0552764  16.8342571
  61.7280540   5.2302017  16.9425278  78.4270172  37.4471626  57.4362907
  77.9509125  36.8944778  56.8165359  79.3239365  37.4637833  57.1023674
  45.0490723  38.2735672  43.7119522  45.2336159  37.3756256  43.4364815
  45.7516670  38.4846573  44.3267937  21.4576302  61.1521568   0.6521252
  21.7221050  61.8485947   1.2531718  20.7890339  60.6630173   1.1316587
  81.0006485  51.3449936  71.4945450  81.9275665  51.2620392  71.2705307
  80.9276352  52.2113190  71.8950195  31.2356281  14.5824299   0.3875168
  30.9773979  14.2451944  -0.4702833  31.1675415  13.8275146   0.9720669
  68.6966400  50.2320900  51.8981895  68.2734451  51.0841179  51.7924614
  69.5698700  50.3503571  51.5244026  78.6375275  58.4810104  84.0618134
  79.2846909  58.8393173  84.6692886  78.6610107  57.5366669  84.2163849
   0.8611064  57.2424927  26.8301487   1.7185153  57.0003357  27.1800652
   0.7380325  58.1510086  27.1052608  59.7810860  28.6617928  58.7322159
  60.3343925  29.4409065  58.7875710  58.8868942  28.9984932  58.7895699
  67.0340881  52.8200302  47.8901024  66.4837341  52.3077431  48.4824753
  66.4138870  53.2754517  47.3207321   7.9081960  69.6128845  62.5419121
   8.2450619  69.5473862  61.6483421   7.1636143  70.2105637  62.4739685
  48.0482140   4.9124022  49.0601578  47.5852814   4.0745935  49.0588226
  48.9620323   4.6808486  49.2261429  79.8963013  11.2793760  14.4820004
  80.2745590  10.4679909  14.1431684  79.5858383  11.0512772  15.3582535
   3.4026339  18.2493954   0.5517800   4.2615614  18.3408928   0.9642158
   3.5750892  18.3463554  -0.3847507  17.4787388  53.8358269  45.2806740
  17.0288200  53.0499535  45.5908470  16.8652935  54.5488396  45.4582367
  42.0592613  15.9143858  19.4697514  42.1484795  15.3261108  20.2195549
  42.8366852  15.7441263  18.9379063  65.5095978  46.0671692  30.1923485
  64.9911346  45.9232979  30.9840126  65.0213776  45.6191216  29.5016003
  39.9769440  35.5380096  24.6784420  39.1081734  35.2150307  24.9175129
  40.3692284  35.8074112  25.5089645  40.1155968  70.6187973  66.2650986
  40.0148964  71.5698547  66.2254486  40.6336136  70.4655304  67.0552826
  33.1782036  49.0972443  70.4611130  32.4457169  48.7526054  70.9719086
  33.4884605  48.3484192  69.9519577  73.8966141  31.2576599  84.1711121
  72.9851303  31.5497437  84.1818848  73.9370499  30.5742798  84.8401337
  36.5919991  65.4620056  84.3391495  35.9130898  65.9958725  84.7518082
  37.2516441  66.0933838  84.0519943  73.7630692  51.6705513   7.9258876
  74.2101517  52.4279556   7.5481510  73.8769302  50.9767189   7.2763782
  69.7626801  17.1879787  36.0060310  69.1182022  16.9091187  36.6565018
  69.2797852  17.7792912  35.4286270  11.9037228  70.1482468  77.3503952
  12.5197563  70.2898636  76.6315918  11.2823133  69.5046616  77.0099792
  58.1813126  65.3538971  40.7784653  58.2045631  65.9214249  41.5489235
  59.0022392  64.8632050  40.8175774  81.2672958  56.6741066  10.7327404
  80.6293488  56.3205719  11.3526373  82.0817719  56.7292862  11.2325602
  35.0045013   8.1578207  82.3864212  35.2718391   9.0437326  82.1416321
  35.7848511   7.6231337  82.2401352   2.4902244  41.0023651  60.1901627
   2.0804355  40.7098351  61.0042458   2.4063888  40.2551308  59.5978394
  53.4566231  60.2412491  35.8224068  52.9189606  61.0329781  35.8402824
  54.2964172  60.5136337  36.1922493  65.3859482   8.0666313  49.4393921
  65.0304642   8.2063332  50.3170853  66.2691422   8.4337149  49.4774628
  36.5295105  37.7155457  81.0194016  35.5960999  37.6242867  80.8279724
  36.9484100  37.7473221  80.1593170  60.2214508  70.6094818  55.3645592
  60.6549034  71.2231827  54.7714958  60.3495636  69.7524719  54.9579353
  74.0185471   7.5242853  34.1390572  73.7853851   7.9382381  34.9700279
  74.5378113   6.7601700  34.3895073  65.0381241   0.7008686  12.3359442
  64.2636490   1.2587621  12.2639914  65.3277130   0.5753869  11.4322710
  41.4024506  34.1162224  84.0660934  41.5769882  34.3817329  83.1631699
  40.8829689  34.8329430  84.4303436  34.5787659  36.3096733   5.7496009
  34.1052475  37.0976028   5.4828076  34.8174896  35.8834534   4.9264493
  47.6927872  14.0299664  72.2463913  46.7816315  13.7852449  72.4080582
  48.0685387  14.1444464  73.1192780  36.3040123  52.2335396  18.8312492
  35.6932449  52.8340721  18.4039841  36.9517822  52.0304642  18.1564274
  43.4322357  56.8814163  21.9576664  43.9287491  57.5377579  22.4464664
  44.0915108  56.4182396  21.4408951  10.7846479  22.0277233   7.9163299
  11.1315184  21.8733196   8.7950068  11.2747545  22.7845097   7.5949225
  55.0515442  19.6751308  12.8939219  54.4471664  18.9467888  12.7508259
  54.9424706  19.8988190  13.8182049  69.4049606  14.0879421  15.3217783
  69.1527939  14.1062689  16.2449837  68.6470642  14.4456835  14.8593369
   5.2444072   2.1120324  71.6551590   4.6691337   2.3144393  72.3929443
   6.1080837   2.4157548  71.9345322  14.2938681  68.5697174  20.5363750
  15.2131920  68.6809006  20.2940655  14.0963659  67.6595154  20.3155556
  44.5631409  60.1753616  13.7861013  44.2581024  60.7516289  13.0853167
  44.8045120  60.7694740  14.4967356  47.0903358  62.9048805  29.9878082
  46.6487885  63.6569214  30.3824005  47.5768929  63.2727547  29.2501354
  49.7197609  45.4473877  13.9505310  48.8250237  45.7276688  14.1431875
  49.6160355  44.6140594  13.4911423  55.2716141  11.5413094  59.4721451
  55.4560051  10.7242508  59.0088463  54.9874802  11.2639198  60.3430939
  16.9123058   9.4903793  79.5142899  16.4762459   8.8593674  78.9416580
  16.2019958  10.0311012  79.8597031  59.6355667  65.2000580  76.7904587
  60.0994530  64.6981049  77.4605942  60.2868462  65.3413925  76.1033707
  51.0768814   7.7068620   7.5372043  51.8179550   8.0355930   8.0461044
  50.3069191   8.0774059   7.9685807  15.4230042  70.0670624  88.4835129
  15.7476501  70.6271515  89.1885910  16.0731087  70.1579132  87.7868500
  53.6553268  27.4003296  48.5827370  54.4514008  27.8491764  48.2980652
  53.6920319  27.4307823  49.5387459  51.9964333  60.2021675  77.1225586
  51.8433304  60.2149429  76.1777649  52.5714149  59.4496918  77.2618637
  42.7404213  25.3969021  23.0529079  43.3647614  24.6719303  23.0820770
  42.2869911  25.2890053  22.2168503  72.5026932  61.4164391  45.4680519
  72.2738190  61.0396156  46.3176727  72.0659714  60.8519402  44.8302040
  58.5463409  57.5928421  49.4401741  59.0154495  57.2250481  48.6912422
  58.9147568  58.4698982  49.5463409  72.9135132  16.0235157  88.2908478
  73.3201752  16.4087505  87.5146713  72.4484558  15.2546635  87.9609680
  54.0103722   8.6183605  72.1896591  54.2932472   8.0803785  71.4502029
  54.6866188   8.4867058  72.8541794  65.8797302  41.2666740  88.9045181
  66.7361221  41.3318558  88.4819336  65.7413712  42.1275597  89.2994385
   6.3340998  33.9222450  13.7893314   5.6680217  33.2348557  13.7808313
   6.9403753  33.6597214  14.4819670  36.0180931  10.1444578  34.5781517
  36.4820366   9.8514910  33.7938309  35.1428146  10.3748579  34.2666512
  61.1403961   3.9821100  78.0576706  61.8772697   3.6357329  78.5609360
  61.5100746   4.1803484  77.1972809  59.1704369  60.1278229  76.0497513
  58.9140701  61.0260162  76.2589340  59.8410912  59.9130135  76.6980667
   5.3617225  53.4384079  86.1772919   5.6279078  53.3561859  87.0930481
   5.3276348  54.3822441  86.0215912  81.8587646  13.6090803  74.7769699
  81.3692169  13.5161390  75.5942459  82.5934296  13.0021944  74.8675003
  72.5697937  50.5561333  60.7635002  73.2679138  50.5345039  61.4180183
  72.4350204  51.4873581  60.5877495  72.3122482  41.2857246  53.9200020
  72.9521179  41.6813507  54.5118446  71.4649048  41.5889206  54.2460632
   6.1915126  32.3660660  30.7623215   6.2166524  33.3227768  30.7448025
   7.0902982  32.1065254  30.9649391   3.6499467  52.8637161  32.6210136
   4.4596472  53.2183304  32.2537727   3.0155940  52.9261246  31.9069176
  13.4488192  55.3715744  10.2481613  13.0867052  54.6826591   9.6909380
  13.3293762  55.0456314  11.1401958  62.0762749   4.2020874  66.2720337
  62.3648491   4.4749360  67.1429596  62.0147934   3.2485001  66.3279114
  19.9901581  70.5109253  72.2753143  19.2350636  69.9245758  72.3228149
  20.2985611  70.5779724  73.1789856  57.7792549   8.4378309  40.8979721
  58.0867004   7.5400357  41.0231590  56.9711838   8.4876738  41.4086304
  50.8218613  57.7532654  16.5170288  50.2445602  57.3915558  17.1894283
  50.2377129  58.2426300  15.9377861  68.3983765  54.8222198  59.0651207
  67.9290771  54.1393204  59.5443306  69.2993011  54.7617073  59.3827629
  66.4166031  36.0630684  31.4254360  66.0290527  35.5257416  32.1163177
  66.1266403  36.9535332  31.6234970  64.3025665  38.1990509  82.2617722
  63.7544098  38.2631226  83.0438538  64.6151505  37.2943268  82.2618332
  71.4080353  54.8050842  50.5730476  71.3652115  53.9956779  51.0822258
  72.2014923  55.2414780  50.8832245  54.6569023  29.9620361  84.1903992
  55.0969429  29.2066803  84.5803223  55.2211952  30.7049179  84.4047241
  43.3425560  19.5344601   4.4066615  42.7622452  20.2914906   4.3268108
  43.6925316  19.4068909   3.5249171   1.2600675  63.7293282  51.9114838
   0.4299174  63.2573357  51.9771004   1.9260371  63.0715637  52.1116333
   1.0393648  27.1642685  57.5246048   1.5255722  27.9059620  57.1644287
   1.6451523  26.4260807  57.4587784  83.7569656  25.8246899   6.8214798
  84.1362915  26.6846390   7.0026755  82.9039001  25.8429756   7.2552786
  45.7678757  55.2572212  53.2242584  46.3293533  55.4887695  53.9640961
  45.9067078  55.9597702  52.5891342  81.1968231   7.9154687  84.4514313
  81.5358582   8.0468693  83.5659790  80.2453308   7.9350257  84.3489304
  65.7411041  50.6545296  67.5401917  66.5706024  51.1048393  67.3808746
  65.4818954  50.3192368  66.6819305  16.5130138  34.3480911  87.8374786
  17.0011673  34.7040596  87.0950317  16.4940510  35.0612068  88.4757080
   6.5783253  64.1075058  23.0740013   6.1344719  64.9223557  23.3090572
   5.8712268  63.4705009  22.9716988  77.3032913  58.9613876  65.0082397
  77.9651260  59.2224197  65.6486053  76.5074387  58.8341408  65.5246353
  70.3286514  46.6082115  48.8482094  70.8196335  46.3526230  49.6291313
  69.4139175  46.6094780  49.1301651  15.4177113  36.8880959  10.5394354
  15.4691515  37.2498627   9.6547260  14.5840235  36.4181442  10.5579309
  39.9595718   3.5951147  45.8401451  39.1714592   3.2378495  46.2493782
  39.9076462   3.3073533  44.9287033  22.2673988  67.3319550  82.1688004
  21.8324394  67.9771271  82.7262955  22.5885029  67.8379974  81.4224548
  68.3370743  33.8286896  31.2589760  68.0501175  34.1364937  32.1187096
  67.9033661  32.9822998  31.1505795  71.2100677  22.4439964  26.8029156
  71.3778687  21.5157852  26.9657059  72.0800781  22.8409672  26.7613144
  37.1949768  48.2183456  52.7606277  37.9365234  47.6472206  52.9610214
  36.4522858  47.6220474  52.6654053  84.7229843   5.1653471  70.0478897
  85.2498245   5.7687206  69.5238571  84.9767685   5.3492842  70.9523163
  71.4395065  61.4592400  34.0143738  72.1826630  61.7516556  33.4866943
  71.3148575  60.5433388  33.7657318  75.7177734  40.0950775   1.8346654
  75.1123123  39.5602837   1.3211980  76.3911972  39.4807930   2.1268823
  29.0510082  70.9822388  85.1335602  28.3042049  71.5486450  84.9393997
  29.7799282  71.3735046  84.6520844   6.6355901   7.2121215  51.1840820
   6.4515681   6.6753750  50.4131927   5.7808423   7.5520215  51.4488564
  54.4548187  26.6252441  16.4744873  53.6301193  26.6388664  15.9887743
  54.1914291  26.6500492  17.3944035   7.9572949  58.2115593  15.7565384
   7.3717504  57.5178375  15.4530306   8.1469746  57.9837456  16.6666775
  59.0239182  29.1248150  82.1628418  58.6460152  28.2632904  82.3394699
  59.9643517  28.9630222  82.0877762  76.3769226  48.3664932  74.4009018
  75.9846725  47.8636818  75.1147308  76.3589706  49.2728233  74.7082672
  68.9508972   8.4904509  35.3864365  68.2800903   9.0053692  34.9379921
  69.7782898   8.8084478  35.0251427  71.0347672  20.2577152  46.5592918
  70.0964127  20.0861263  46.6385040  71.2793579  20.6443825  47.4000626
  27.6071911  33.2229424  18.4716434  27.4238033  33.8010864  19.2121487
  28.2216034  33.7167816  17.9286404  46.9377022  71.5200119  74.0643005
  47.2216721  70.9580841  74.7852936  46.4445381  72.2224808  74.4880524
  57.5784760  51.8068390  14.7581635  58.0778351  51.1317520  15.2176542
  57.5972290  52.5611725  15.3471098  15.5805101   7.0048985   2.7651546
  15.6412354   6.8795590   3.7121680  15.0471973   7.7929840   2.6615689
   1.7455477  50.8042679  72.4240952   0.8366072  50.5288467  72.3049164
   2.2265399  50.3480721  71.7336121  37.2110291  35.9147415  25.2023125
  36.9125481  35.7884789  24.3016472  36.6981659  36.6566887  25.5228119
  60.7673111  59.6038666  61.5223579  61.5493698  59.3583908  61.0280304
  60.1949463  58.8391533  61.4603653  78.4486008  30.1555557  13.3995390
  77.5047455  30.0854206  13.2565651  78.7467041  30.7734451  12.7320204
  48.2023926  53.9996719   6.5516992  47.8219376  54.3776817   5.7588601
  47.6366501  53.2554970   6.7575355  37.1289673  29.6502094  68.1171570
  37.5790024  29.9171429  67.3156357  36.7594643  28.7918777  67.9098740
  59.0823822   3.4175179  24.0170822  59.3818283   3.6571245  24.8940945
  59.8359642   2.9837160  23.6168842   6.0622373  26.6001072   1.3385484
   6.2888150  25.9864941   2.0373852   5.2442150  26.2594395   0.9765854
  82.4205780  22.6397095  64.3397141  82.3976212  21.7749538  63.9299545
  81.5897141  23.0447273  64.0910034  24.6565189  50.1112938  66.8412476
  23.9384480  50.2811470  67.4509659  24.9246101  49.2122955  67.0314102
  40.4336929  47.2141266  16.8783913  40.8323517  46.5983620  16.2634640
  40.2986984  48.0110741  16.3656673  58.5669899   2.9177699  43.9121819
  58.0616379   2.2724676  43.4177742  58.0397263   3.7157161  43.8733406
  66.4086685  53.6354637  72.8252792  67.1638260  53.9660759  73.3117599
  66.7337189  53.5117798  71.9334946  26.3704319  39.4902191  53.9995995
  25.8694649  38.9340134  54.5961723  26.3730316  39.0112000  53.1708832
   7.7099080  61.1038589  77.9927750   8.3680782  61.7927017  77.9003525
   8.2119694  60.3223305  78.2238083  21.6612549  16.8608952  77.7471390
  22.1497002  17.6229420  77.4357986  20.8024464  16.9409370  77.3320770
  46.0522118  44.0515862  54.8674240  46.7196617  43.3884125  55.0433388
  45.5158997  43.6727676  54.1709366  56.1700096  46.5142784  13.2071629
  55.5569000  46.9595413  12.6222925  55.8738823  46.7474022  14.0870466
  73.8989487   8.1009064  73.7638168  74.1095352   8.9400787  74.1733017
  74.1982422   8.1939316  72.8593826  25.5281830  23.8400726  74.4629364
  24.8085594  23.3583069  74.0551605  25.1566257  24.1830387  75.2756805
  34.2942162  57.5339584  42.9461632  33.4649696  57.4907303  43.4223099
  34.1193275  57.0846024  42.1192894  11.7856092  31.9130440   3.9048655
  11.5818672  31.4195080   4.6993108  10.9413652  32.2577820   3.6139352
  65.4977875  28.8239231  31.3556156  65.3852615  29.6798840  31.7690163
  65.6343460  29.0215378  30.4290447  13.3662224  32.5430298  15.8419266
  13.3368092  32.3236732  14.9106636  14.2813263  32.4118080  16.0901146
  73.3490906  13.4637899  62.3059921  73.8146591  12.6415157  62.4587669
  73.5154114  13.6656971  61.3852272  29.4080734  10.5153112  87.8206863
  30.3554840  10.4251738  87.9232712  29.0416260   9.8021879  88.3435669
  73.6937408  59.8249550  79.8657608  73.2844315  60.4456024  80.4686661
  73.2643127  59.9881172  79.0260010  76.5889893  17.4057827  24.4149265
  76.5805664  17.6633625  23.4930744  75.9905396  16.6601410  24.4607506
  45.2077980  51.2593536  39.2531128  45.7914505  51.9512329  38.9418488
  45.0299377  50.7286873  38.4765854  38.1031685  11.8944321   8.9775753
  38.9683571  12.0199318   9.3673573  38.2554741  11.3004580   8.2425728
  47.0181046  65.4787064  53.0832024  46.0755653  65.3156433  53.0476990
  47.1963577  65.6530914  54.0073509  61.2622643  62.1123161  69.3249283
  61.5082626  61.2017097  69.4877472  61.6598930  62.3203278  68.4794312
  78.3688431  40.1449203  60.7664642  78.3880844  39.4720726  61.4470024
  78.0921402  39.6794281  59.9771729  15.0652199   8.5874949  19.3434086
  15.9656429   8.2645473  19.3091450  15.1507015   9.5103340  19.5827713
  86.1551208  21.0051937  76.3614731  87.1017456  21.0876427  76.4769058
  85.8063278  20.9815655  77.2525558   6.5735402  59.8020821  46.0754662
   6.4166250  59.1865273  46.7914963   6.5121160  59.2685280  45.2831383
  12.1139650  27.5157871   6.2127848  12.9212132  27.6062260   6.7191486
  11.4354744  27.3593922   6.8696122  46.3907471  30.2990360  70.4620209
  47.0724297  30.9309330  70.2334518  46.0914192  30.5727520  71.3290329
  82.2227783  12.8364906  54.4813156  82.4780121  13.7516375  54.5979042
  81.6210327  12.8486242  53.7370148  15.7247934  67.9559402  68.9282990
  15.0850039  67.5296783  68.3580399  15.3413277  68.8115463  69.1209946
  65.4031296  43.2746277  51.0223274  65.2543640  42.3341980  50.9238968
  64.6555328  43.6824150  50.5852470  47.6320610  16.9844341  41.8392258
  48.5085564  17.1475506  41.4908257  47.5806541  17.5305901  42.6236343
  53.1613617  45.4285164  57.8754730  52.2107391  45.3165321  57.8784027
  53.3200302  46.1118469  57.2242317  34.8151016  60.9752159  48.4379959
  34.9695549  60.6951370  49.3401794  35.6455078  60.8115845  47.9909172
  58.0083618  32.6113091  59.3644371  58.0449677  32.3776016  60.2919464
  57.8323135  31.7842770  58.9158173  70.7755890  60.8238525  12.9044952
  70.4762497  61.3091774  12.1356716  69.9704056  60.5635376  13.3518648
  65.1948242  26.3021488   8.0226126  64.5889587  25.8070202   7.4712505
  64.7287216  26.4127159   8.8513174  84.2181320  38.0548401  37.5466766
  83.9053345  37.1538849  37.6283226  84.4807816  38.2985497  38.4342918
  30.7077351  48.2639427  81.7397385  30.1914444  48.2896805  80.9341202
  31.4448662  47.6891747  81.5335464  76.7707367  23.0606003   7.6507769
  75.9438705  22.5971584   7.5175624  77.4442596  22.4157562   7.4345198
  25.2634544  53.0475807  65.9441681  25.0446758  52.2160950  66.3648834
  24.6415539  53.6741447  66.3141479  44.9978180  55.7225342  50.0813560
  44.2700882  55.7601700  49.4606895  44.7006760  56.2390442  50.8304558
  34.0254784  60.6241302  88.2988129  33.5772820  61.2032204  88.9152603
  33.4026451  60.5103760  87.5809174  81.2033615  30.4592171  10.5702648
  81.1367416  30.8308411  11.4498606  81.9392700  29.8493843  10.6230116
  11.3048658  26.6428623  67.1744690  10.3635578  26.5113773  67.0609665
  11.3972521  26.9451408  68.0779724  55.1758575  12.9301338  16.1419868
  55.0176773  13.8690577  16.0438309  55.5104332  12.6531534  15.2890081
  51.4187737  36.8223381  25.9230499  51.3969231  35.8678894  25.9921913
  50.5373344  37.0619926  25.6369381  37.1149063  49.2194977  26.6254520
  36.4782639  49.0598907  25.9287128  37.2076035  50.1718369  26.6516399
  45.7493362  63.4341698  25.0927868  45.1209488  63.7365417  24.4370937
  45.4084358  63.7674370  25.9228191  64.3615341  34.4912415  88.4060745
  64.3395386  35.1891708  89.0607834  64.2410889  33.6863327  88.9099045
  24.6457043  21.3799477  80.3097458  24.9985390  22.1990147  80.6574020
  25.0086842  21.3187275  79.4261551  23.7844582  14.4787292  87.7407684
  24.1235065  13.5909700  87.6260376  23.2472706  14.6322632  86.9635315
  10.4678717  58.7295341  18.2212372  10.7853746  59.6317215  18.2597294
   9.5766029  58.7743073  18.5674572   7.6433396  67.8664474  47.1046982
   8.1225214  68.5601044  46.6514244   7.4168091  67.2420425  46.4154663
  12.0227804  49.5209122  45.0804672  12.1759109  48.8305817  45.7256241
  11.1673784  49.3123245  44.7049522  21.5121899  41.9404182  46.0518188
  22.0146770  41.1899643  45.7347107  20.8254261  41.5558968  46.5965462
  77.9222794  64.3805618  31.5889263  78.1909485  65.2826614  31.7629051
  78.7365875  63.9251404  31.3750916  51.0054703  36.1087837  12.9701653
  51.7484512  35.5680733  13.2382050  50.5160828  35.5575981  12.3594923
   3.6955485   9.5018711  71.4579926   3.3278713  10.3602619  71.2477341
   3.0827699   8.8772593  71.0699310  66.4609070   3.6017272  10.0508089
  65.7041626   3.9855251   9.6077814  66.1489029   3.4100802  10.9352055
  46.7399254  41.4783897  44.4232140  47.0725746  40.7998543  45.0107231
  46.8766899  41.1229515  43.5450401   8.5403700  46.8169708  33.1048546
   8.8057728  47.2881126  32.3150330   8.6981831  47.4361839  33.8175278
  42.9526329  48.4257393  17.6639042  42.2066040  48.2970772  17.0781403
  42.9615555  47.6436539  18.2157116  85.3483124   9.0904913  37.1138992
  85.6956024   9.9185572  36.7823372  85.5926208   9.0817261  38.0393562
  43.1497612  62.0208778  54.9651871  42.4391365  62.3490143  54.4142151
  42.7557106  61.9245987  55.8321838  27.7107372  18.4713688   0.7447622
  27.9681969  18.7719746  -0.1267780  27.6779003  17.5177231   0.6691888
  71.8428650  37.9241066  83.2912445  71.3454361  38.6343651  83.6966171
  72.0099716  37.3101997  84.0063858  49.3198853  49.7633514  57.2306290
  49.7414398  48.9817810  56.8733215  48.3935814  49.6557732  57.0147171
  64.7738266  38.7140503  38.4246368  64.8516235  38.4152565  39.3306732
  64.0096207  38.2491608  38.0839081  86.4376678  31.0992527  71.6152878
  86.3697433  31.0192394  70.6638641  87.1928635  31.6707382  71.7542725
  40.6633224  42.9183464   4.9666276  41.0267868  42.1481628   5.4036026
  40.8861313  43.6486740   5.5438728  51.1095009  60.1751556  55.6655655
  51.2689705  59.5739288  54.9380150  51.8845749  60.7364426  55.6867294
  62.4277420  16.3039608  32.3387718  61.7870903  15.6794605  32.6790581
  62.9402809  15.8005877  31.7061977  19.9979763  64.5389481  23.2654247
  20.1535187  64.7305679  24.1902599  20.7090626  63.9467773  23.0206318
  40.1322861  57.7669334  15.7653151  41.0018387  58.1431808  15.6291103
  39.5280151  58.4821587  15.5664816  39.8641396  51.5324059  13.3768330
  39.6292877  51.6429253  12.4554968  39.3617706  52.2064400  13.8345804
  61.3376045  27.0065365  41.4368820  61.4314766  27.3300076  42.3328629
  60.5508919  26.4617634  41.4601059  75.0867081  40.2664032  31.0182419
  75.8648758  39.9845352  31.4991131  74.8666077  39.5203743  30.4603653
  37.5462608  22.7026596   7.9266772  38.3954926  22.3193645   7.7072992
  37.3074417  22.2951546   8.7592258  54.0175171  33.1102715  37.8834915
  53.9827995  33.6562347  38.6689529  53.1784821  32.6496506  37.8747025
  59.6376228  55.6655846  85.6702576  60.2102432  55.6516991  86.4371643
  59.5997963  56.5876923  85.4162521  62.6533852  16.4238396  79.9611206
  62.4902153  16.1737213  79.0516968  63.3534775  15.8378687  80.2487640
   6.4043937   6.7523479  30.2932987   5.9691224   5.9135666  30.1409302
   7.1321659   6.7609439  29.6716042  74.1475983  38.4936981  17.9580135
  75.0418701  38.8175163  17.8500576  73.6711426  39.2296028  18.3422909
  79.7944107  25.2619190  71.5096741  80.1380844  25.6343002  70.6976089
  78.8478622  25.3915882  71.4508591  19.1461887   2.7271965  11.9866095
  19.8631401   3.3055441  12.2468491  18.4781799   2.8558903  12.6599855
  66.1447144  16.8595390  58.1293869  66.0135803  15.9200344  58.2573090
  65.3657532  17.2642555  58.5110283  64.4069138  51.7829895  15.8121386
  63.8303871  51.1578331  15.3727846  64.5773544  51.3907089  16.6684666
  77.5144424   5.4059949  36.9080963  77.5142441   4.4631925  37.0734901
  76.6043625   5.6119013  36.6945763  23.9330044  18.3012180  83.0331650
  23.8093586  18.1532764  82.0955887  24.7549362  17.8561573  83.2395248
  36.8502769  40.5076828   6.7753053  36.4110184  39.8266068   7.2846370
  37.0407524  40.0924225   5.9341693  56.3537560  53.7023811  36.5031052
  57.3022537  53.8268738  36.4701805  56.2379951  52.7529869  36.5416260
  18.5848732  42.9142265  61.9835358  18.1826992  42.4451904  61.2524452
  17.8688908  43.4221611  62.3651161  17.4353485  43.1738815  36.5381432
  17.0924511  44.0485992  36.7212181  16.6842041  42.5925255  36.6566467
  45.6942978   6.9755988  78.1840744  45.5355377   6.6968451  79.0859222
  44.9648170   7.5616803  77.9825974  54.4358902  24.2718868  24.4632473
  55.1203918  23.7945690  24.9321327  54.3928566  25.1215076  24.9020214
  46.0230789  70.3796844  84.8788376  46.0232201  69.7429428  84.1641464
  46.9116821  70.7354965  84.8827896  49.9071960   7.7448897  47.3284492
  50.0233650   7.9799008  48.2490501  50.4444618   8.3765621  46.8503647
  56.9940224  54.0250969  41.7741814  57.7115822  53.6561279  42.2891617
  56.2052116  53.8024483  42.2685852  33.8472443  46.8746681  34.4881020
  34.6966896  46.9579048  34.9213982  33.4680023  47.7523422  34.5338669
  32.0032196  44.0213776  51.6778641  31.4317265  44.0368843  52.4455795
  32.1534843  43.0910912  51.5098839   2.5839527  34.3778419  41.6534805
   3.4542191  34.0856514  41.9245796   2.7271290  35.2517090  41.2900429
  83.6898270  31.3813133   8.5636292  83.6230164  30.9362450   9.4084253
  84.2236710  32.1554642   8.7423191  29.9765263  23.1182137  67.3500748
  29.2465668  22.5953064  67.0184708  29.7241020  23.3407669  68.2461624
  24.8941669  69.3157806  65.8882599  25.4707737  69.6121140  66.5924911
  24.2291374  68.7873764  66.3295670  39.8892441  18.6261292   3.9290681
  40.7316360  18.6078281   4.3832421  39.2446022  18.4431324   4.6125741
  20.6215363  12.9127836  63.0851212  20.6607590  13.7372494  63.5698357
  21.4984550  12.8104124  62.7153053  68.0859375   4.5001669   1.8515306
  67.5714264   3.9380877   1.2722452  68.5239792   3.8927116   2.4476466
  34.4616280  18.9156723  15.0148172  34.1504631  18.3205719  15.6969194
  35.2728806  19.2811756  15.3676720   0.7853113  61.5500984  64.5038681
   1.1826284  60.8344841  65.0001221   0.1594480  61.1192741  63.9217033
  36.9706421  15.3073292  74.9182663  37.5778618  16.0463104  74.8805466
  37.2724113  14.7140150  74.2304153  49.1646156  10.6674967  12.5854807
  49.7128983   9.9169216  12.3568897  48.4680786  10.6640892  11.9289303
  71.4372940   0.5388702  19.5362587  70.5798264   0.6245356  19.9529648
  71.4667435  -0.3686244  19.2332439   5.3441081  45.0026131  58.0123291
   4.7677693  44.8414345  57.2652740   5.0743303  44.3579407  58.6664314
   0.9638029  26.3973007  82.7746506   0.3076591  25.8899078  83.2524185
   1.4186904  26.8983307  83.4516144  19.8336945  62.8190956  75.3609467
  20.5039501  62.1404343  75.4409866  19.6045341  62.8209801  74.4315872
  80.4306488  41.3658600  85.2345276  79.9113541  42.1504288  85.0584106
  79.7830887  40.6692352  85.3423080  18.3789806  22.1091862  56.2671852
  19.0091667  22.8027973  56.4621201  17.5715427  22.3915195  56.6967926
   3.5598307  55.5381927  28.3622284   3.0080178  55.3012085  29.1075954
   3.6647425  54.7222404  27.8728924  44.6042175  42.9173355  70.3235855
  44.8941765  42.6037941  69.4669342  44.9808006  43.7942162  70.3977280
   1.3400320  63.5691833  83.8907700   1.1212379  63.7139816  84.8113098
   2.2422190  63.8780022  83.8075714  23.8643990  66.1461334   6.2087264
  23.1435642  66.1159744   6.8377881  23.5007877  65.7652893   5.4093652
  45.5461769   5.7471499  70.4633026  44.7336426   5.6764035  69.9622879
  46.2377472   5.7299891  69.8017426  15.0618610  66.0080719  13.4133682
  15.2648096  66.8918228  13.1067247  14.2053843  65.8133240  13.0329056
  85.8204498  62.4403152  83.6019363  86.6291428  62.8611565  83.8937225
  85.1728058  63.1451111  83.5946579  16.3895550  62.6198006   9.2040701
  15.5273838  62.7262917   9.6060057  17.0037880  62.6776047   9.9359226
  81.0715408  66.2444229  31.2858601  81.4546204  66.4563446  30.4346447
  81.1973343  65.2998810  31.3766479   8.8957233  -0.0960180   2.1159587
   9.0973978   0.7762423   1.7772533   7.9530087  -0.0769006   2.2807474
  77.0394897  26.6700096  37.5287476  76.7478943  27.5233021  37.2076530
  76.5368423  26.5316448  38.3315125  82.2947311  59.1547432  24.4162445
  82.3294830  58.7462616  23.5512772  82.7343216  59.9972038  24.3011074
  17.4056683  14.9732656   3.6424551  18.2130184  15.3797016   3.9574568
  16.7572041  15.6768494   3.6688507  25.7333584  69.8870163  71.2710190
  26.6255188  70.2153778  71.3826523  25.1853447  70.6716080  71.2891617
  40.9813004   0.5464370  12.9141769  41.4392014   1.3423014  12.6436996
  41.1549683   0.4775013  13.8529625   9.7397280  36.3395920  17.6139050
   8.8902798  35.9536285  17.4001236   9.9001102  36.9697037  16.9114304
   4.9186311  44.7954521  43.6569710   4.0188260  45.0039558  43.4057541
   5.0070977  45.1456985  44.5433884  24.8457336   3.5820761  78.4622498
  25.1091785   3.9218457  79.3174667  24.0390720   4.0539422  78.2551956
  54.3779716   6.5721169  25.7586727  53.6501427   7.0697169  26.1313477
  54.3977089   5.7604918  26.2657299  12.8826323   3.4691675  71.3940201
  13.6821728   3.7222874  71.8554306  12.1847649   3.5962415  72.0367203
  40.6090660  40.2556953  39.3863029  41.4460945  40.1935196  38.9261398
  40.8468742  40.4724464  40.2878036  58.0377312  11.6625557  36.2474213
  57.4947968  12.1226721  36.8875389  58.5580673  11.0519171  36.7695312
  68.4885101  39.6048546  79.5414810  68.0681381  39.0030518  80.1557770
  68.9134598  39.0348129  78.9006195   4.4730163  40.1237144  22.2170334
   3.6363292  39.6952209  22.3975315   4.7856264  40.4098778  23.0752964
  64.4816284  24.4675198  40.6244583  63.7844849  24.4634666  39.9685593
  64.7007904  25.3926716  40.7353325  71.9904022  13.4287777  87.8009949
  71.9470749  13.5529785  86.8528748  71.7563858  12.5100822  87.9331512
  17.1246948  39.8336639  35.5346870  16.4996128  40.4185295  35.9629784
  16.9247952  39.9111710  34.6018066  67.8697662  44.9172134  86.0410843
  67.6627197  45.3774338  86.8544540  67.9495163  45.6113052  85.3867874
  71.1909943  48.0091629  72.8120804  71.9824600  47.5035362  72.6272507
  70.5831604  47.7664528  72.1136017  44.9700127  30.9325294  19.4934311
  45.8621178  31.0323277  19.8257275  44.4223061  30.9178886  20.2783108
  81.6757736  23.1192436   3.0166867  81.1990585  23.3162975   3.8230050
  81.9546661  22.2093773   3.1196027  35.7045479  69.8114243  85.4816437
  36.4911652  69.2660370  85.4849777  35.7288818  70.2720108  86.3203964
  46.0896454  48.5177536  26.9488888  45.3561554  48.1289215  26.4724026
  46.0393333  49.4517059  26.7453423  41.4244041  21.5242119   4.1816959
  40.7226982  21.1722012   3.6340389  41.5397987  22.4234047   3.8744998
   2.8700542  66.8707657  14.8416338   2.8473253  67.3032532  15.6952572
   2.6478109  67.5613937  14.2172384  31.1162109  37.3528671  62.7721405
  31.3581085  36.4705315  62.4907036  30.8448296  37.2474480  63.6839905
  51.9406319  46.5016747  36.6181259  52.6770554  46.5556107  37.2272224
  51.1897163  46.8157768  37.1218071   2.5910280  26.0832920  25.7943916
   2.2210283  25.2348366  26.0382290   2.3342352  26.6699429  26.5058212
  57.5067406  38.7278061  32.0927849  57.1762314  38.5523949  31.2117481
  57.4979973  39.6821404  32.1662788  11.3570299  25.8194580   9.3253813
  11.7221203  26.3888569  10.0026741  10.4500065  25.6766739   9.5958500
   3.1944430  17.6012897  48.8708649   3.5985885  16.8595524  49.3211136
   3.9313293  18.0867081  48.4999199  21.6526623  42.0569191  40.4085464
  22.3590927  42.5344543  39.9736366  21.8142014  42.1886940  41.3427696
   1.2478096  51.2574615  36.9253426   1.7299616  51.4919243  36.1323814
   0.6281574  50.5863304  36.6392517  24.4465141  11.9719410  65.5833054
  24.1756725  12.3510303  64.7471466  23.7825832  11.3087091  65.7718582
   5.2977929  28.4347229  27.9014149   6.0487647  28.9465733  27.6009445
   5.4242477  27.5708923  27.5089378   9.1386604  54.3184013  58.5955544
   9.1670399  54.8416176  59.3965988   8.5184422  54.7790604  58.0304375
  72.3240738  59.5650291  17.1874218  72.2868042  58.7086983  17.6134930
  71.4367294  59.9137344  17.2725525   0.1334214  35.2776527  72.7517624
  -0.6155478  34.6882210  72.8403320   0.8754622  34.7739983  73.0863342
  76.6384735  22.2267208  16.3292179  76.3316803  23.0990028  16.5766678
  76.9948654  21.8597317  17.1382542  72.6519623  67.2259903  47.6385002
  72.8924484  66.5068741  47.0543251  71.6999130  67.2887650  47.5617523
  77.0000229  27.0770245  23.5772209  77.6332779  27.7680397  23.7714252
  77.1867218  26.3933353  24.2206059  55.6458855  33.4232559  85.0304871
  56.0684662  32.6142769  85.3189468  54.8002586  33.4248505  85.4789810
   5.0784316  51.7515831  24.1489315   4.8202519  51.3483505  24.9777737
   5.7474432  52.3915405  24.3920612  35.1307983  20.4457417   6.5104609
  35.5079002  21.1835594   6.9896765  34.3637657  20.1932411   7.0244060
  35.9917107  13.5620842   8.4929485  35.9836464  13.9551229   9.3656950
  36.6668282  12.8852472   8.5413094  17.6478539  61.8456154  54.4257736
  17.5363903  62.7924881  54.3407097  18.1282349  61.5893135  53.6385155
  21.4861088  38.5565643  86.6407547  22.1972256  38.4893074  87.2779541
  21.9280815  38.6805687  85.8008041  38.4745445  40.8674049  55.0969734
  39.0955696  40.5267448  54.4531479  38.3003693  40.1262970  55.6771927
  33.2358894  59.9678688   7.3932099  34.1518097  60.2047119   7.2475095
  33.1230125  59.1443710   6.9185071  32.3099289  10.6967125  81.0233078
  32.9104538  11.3665342  81.3503265  32.8034019  10.2468634  80.3374786
  52.6084976  49.4915962  83.8793640  52.2924461  50.3264008  84.2249680
  53.3234940  49.7316628  83.2899780  70.8167419  67.3964081  15.3919868
  70.4419327  66.5319977  15.5609732  70.4719162  67.6433945  14.5338926
  46.0440636  48.2930717  32.1927071  45.8961182  48.3628960  31.2495899
  45.1660843  48.2989082  32.5739555  15.7627115  14.7359390  88.9074860
  16.1064472  15.6140261  88.7430496  14.8246374  14.8677864  89.0448380
  27.8396187  21.2571754   3.9930732  27.6291504  22.1865292   3.9023142
  28.1373882  21.1663189   4.8982306   5.8661637  66.3806000  16.9837933
   6.6297183  65.9516830  16.5974636   5.4903607  65.7209702  17.5668049
  51.1337967  22.7922573  17.9253521  51.0709686  23.2033100  18.7875118
  50.2445374  22.4917145  17.7379265  76.6386566  31.7443256  40.2145615
  77.5356598  31.6104908  39.9084473  76.2213669  30.8886681  40.1148109
  12.3583326  37.5716019  56.0247879  11.6560726  37.5567894  56.6750488
  13.1174974  37.9096451  56.4997902  14.5075302  31.2278690   4.7718153
  13.6732388  31.5770664   4.4583659  15.1607914  31.8565826   4.4648952
  18.2483120  41.1002731  12.1693277  19.0400715  41.6194687  12.0286770
  18.4919662  40.4710617  12.8482656  48.1316376  50.2016144  29.3793888
  48.4208221  49.7888565  30.1931667  47.2308159  49.8990974  29.2643414
  63.5018463  41.2028732  43.8084145  63.6426888  41.5472412  42.9264832
  64.3735504  40.9422379  44.1058044  66.1664276  45.0775299  71.4534683
  65.4997940  45.7467499  71.6083069  66.7652054  45.1596756  72.1957321
  65.4402771  27.2507820  48.1011467  64.9148254  26.5768738  48.5323982
  65.8904114  26.7878304  47.3945465  66.9917679  46.6498871  62.0525475
  67.8958206  46.5483131  61.7548790  66.5757828  47.1850929  61.3767166
  85.6538773  67.5275421  52.5653496  85.8841400  68.4172287  52.2976303
  86.4917526  67.0671310  52.6123009  31.6032524  44.5662918  61.7103615
  31.6035061  44.3304405  60.7826729  31.7368774  43.7365341  62.1684837
  15.1396313  37.0870323  23.8978271  14.3311377  36.7662315  24.2973976
  15.0519619  36.8673706  22.9703064  42.7755013  30.6643276  55.0568619
  42.6901093  30.5117054  55.9979515  43.0420189  29.8170586  54.7000237
  13.1156778  65.4134293  11.1780663  13.2686729  64.9451675  10.3573666
  12.4248695  66.0424194  10.9697533  20.4904366  13.8931007  33.6216850
  20.6139030  13.4794464  32.7673569  20.4266853  14.8283300  33.4279976
  57.9158897   7.0010700  33.6319733  57.7131729   7.8504109  34.0240936
  57.8831482   7.1589298  32.6884460  17.6329269  35.7192497  64.9366837
  17.1540394  36.1155586  65.6645813  17.1873951  36.0414810  64.1531601
  71.6617279   3.9115505  28.5720978  71.3281097   3.1957841  28.0311642
  72.0337601   3.4780154  29.3401260  83.1326904  22.6756935  50.2323494
  83.7270126  23.2563305  50.7076073  82.8862152  23.1719856  49.4518509
  76.3243866  43.3750191   9.4488735  77.0588837  43.7454834   9.9382696
  75.7838974  42.9489403  10.1141253  51.7237434  57.9208374  54.2695694
  51.1536446  57.1592712  54.1635628  52.5942764  57.5500641  54.4142532
  39.1863976   3.0270813  72.5922089  39.3947411   3.8837788  72.9648972
  38.9992104   3.2058847  71.6706772  75.2466965   7.6039777  53.5099678
  75.0474396   8.0076141  54.3547211  75.0362473   8.2800732  52.8658867
   6.6818008  34.4065895   5.1136813   6.4552765  35.1931953   5.6098356
   5.9411330  33.8157959   5.2500920  56.8037415  68.5486374  68.8580246
  56.7843895  68.8044968  67.9358521  55.8936157  68.6204910  69.1456680
   3.3380964   6.3353715  55.7889557   2.8136187   6.0104976  56.5208130
   4.0501003   5.7012258  55.7044487  43.7197151  39.9981689  41.5735664
  42.8249092  40.3051109  41.4274864  43.6443558  39.0443153  41.6003571
  35.5176582  56.2096214  56.3565979  35.2704506  55.3757210  56.7562637
  35.7668800  56.7647820  57.0954590  37.1433525  38.2151642  86.1557388
  37.5591393  38.7968674  85.5193634  36.3283424  37.9425049  85.7342606
  83.4796982  51.6400185  43.0066681  82.9683914  51.0080605  43.5120697
  83.6275406  51.2096863  42.1645355  15.1354132  71.1750412  12.5682869
  15.8311968  71.2910843  11.9212551  15.1823330  71.9601288  13.1138744
  78.2603531  51.2703362  72.4464035  78.2791061  52.0547867  72.9945984
  79.1524048  51.1932526  72.1079788  75.8288879  69.8739395  63.5406418
  75.6169739  69.3835526  64.3348999  76.1058273  69.2059708  62.9134674
  43.8036003   2.0466959   6.5620217  44.0390244   1.8398410   7.4664655
  42.9133987   2.3937659   6.6196337   9.5934038  46.5438461  22.0139732
   8.6916275  46.5515327  22.3348637   9.6853418  45.6965714  21.5781918
  60.5506554  37.6642838  81.7239151  60.4960136  38.3274460  82.4120026
  60.0013618  36.9464607  82.0389252  63.1738777  22.7859879  42.9874725
  63.1981888  23.6392841  42.5544281  62.5391083  22.8947811  43.6956177
  75.4159851  15.1519251   6.8261733  75.0823212  15.5108547   7.6484070
  75.2343826  15.8315010   6.1769972  84.7223969   4.5593381  72.9585724
  84.0972595   5.2745323  72.8405228  84.7894287   4.4540119  73.9075928
  52.8537903  24.3057232  77.1938324  51.9109650  24.4423523  77.2868195
  53.1946068  25.1600075  76.9287415  71.1300201  42.5363083  31.1479816
  70.9435425  41.6047478  31.0311508  70.9151001  42.7105141  32.0643311
  73.2176514  26.3090553  82.2733002  72.5942917  25.5832920  82.2429352
  73.9440231  25.9789410  82.8021088  81.6810989  69.3682404  25.9016171
  82.3136520  68.9216003  25.3389301  81.1016235  68.6717758  26.2104588
  76.1429367  69.6970978   3.8087690  76.8194962  69.9578705   3.1838758
  75.4638062  69.2903671   3.2706354  10.7570477   3.8110096  73.0403519
  10.2955790   4.3871636  73.6497192  10.6113214   2.9304886  73.3862991
  45.5900650  51.2835808  14.1400099  45.7363205  52.2216148  14.2622175
  44.6611938  51.2126579  13.9200230  15.6606798  47.8381081  30.6614933
  16.4339008  47.3771629  30.9868965  16.0107956  48.5089951  30.0753498
  13.5039606  31.5531731   1.9417808  12.8947554  31.9510193   1.3198324
  13.0044012  31.4837685   2.7553256  53.7750702  40.6466942  52.9978409
  52.9575691  41.0400124  53.3031693  54.3813477  41.3834343  52.9211884
  14.2233934  51.3998108  74.5158005  14.0176601  52.2027588  74.9945221
  13.5244427  51.3223686  73.8664093  21.2275620  43.3765907  60.8749504
  20.5177040  43.1094894  61.4588928  20.8159504  43.4455719  60.0135269
  66.7665176   7.1703553  56.5569458  67.2612076   7.3467808  57.3571892
  66.1221848   7.8768539  56.5130043  65.0092239  39.9550476  19.6392574
  65.3303909  40.6730309  20.1847668  64.0770645  40.1398735  19.5245419
  78.1183548  22.1690464  12.0974369  78.4051819  21.9952869  11.2009058
  77.3183517  22.6849766  11.9972162  14.5805426  36.8115501  59.6524811
  13.6667042  37.0791168  59.5548096  15.0357075  37.2459450  58.9311256
  44.7425308  53.9673119  42.2837791  45.2108421  53.1404839  42.3989792
  43.8362656  53.7634773  42.5147934  18.3514481   6.4249396  23.4627895
  18.1538601   7.3427682  23.6492863  17.6982670   6.1666746  22.8124924
   1.2889675  28.2446480   0.5553967   1.4790109  29.1703053   0.7079480
   2.0904586  27.8968639   0.1643851  47.9619370  59.4134789  33.6099243
  47.5790062  59.0528183  34.4096260  47.5769806  60.2864380  33.5326042
  62.7502060  46.8913002   2.1540358  63.2440147  46.1096878   1.9061167
  63.3198280  47.6213760   1.9116455  48.3900414  25.6884670   7.5112023
  49.3433609  25.7739716   7.5010362  48.1726685  25.3285389   6.6513000
  21.7986069  49.7329597  14.8578262  21.1634560  50.3266907  15.2581978
  22.5082111  50.3041649  14.5638571  34.6768684  23.3428898   3.7676282
  34.7569962  23.2555161   2.8177979  35.0071793  24.2213097   3.9560564
  30.7218533  67.1533051  49.4264488  31.4941788  66.7497253  49.0303841
  30.1083527  67.2606430  48.6995850  42.2407188  19.2432480  16.8971272
  42.2127113  19.5509377  15.9911613  42.2472267  18.2887325  16.8258057
  81.5525055  13.1124096  65.6336823  81.4655914  13.9540787  65.1861649
  81.5628357  12.4658413  64.9279404  12.1210995  50.6968994  26.4913349
  13.0030670  50.3249397  26.4883060  11.5715723  50.0072289  26.8636322
  31.2125511  17.1892281  15.3487501  31.7903748  17.6928692  15.9220705
  31.3380337  17.5763206  14.4823523  73.4625626  33.5804672  35.9099960
  72.9019165  33.8676414  35.1892776  73.1179962  34.0364723  36.6778297
  55.7403641  29.0234337  60.9754219  55.3803368  28.2369938  60.5653915
  56.3121719  28.6921425  61.6678925  54.3263931  18.0784340  17.4089184
  53.8419609  18.6830368  16.8467655  54.2139130  18.4302025  18.2920017
  75.9463806   8.4559317  49.0967064  75.5045319   7.7286534  49.5349655
  75.5519180   9.2404289  49.4777489  24.0740566  61.2945938  51.6052437
  24.5104427  61.7126503  50.8629303  23.4015236  60.7417526  51.2073784
  23.1381035  52.8209305   6.6711941  23.7358017  52.2035217   7.0928516
  23.5426540  53.0049057   5.8234172  67.4958572  51.3247261  37.6128311
  68.4449997  51.2574539  37.7169571  67.2797928  50.6646576  36.9541550
  14.9707813  67.7435684  10.1194153  14.3344259  68.2450104  10.6291590
  14.4439344  67.1015625   9.6435061  76.7306442  46.9757843  13.4647064
  76.5727005  47.4819946  14.2615986  76.1461411  47.3647385  12.8140898
  16.7577400  70.4013290  86.0911560  17.5790749  70.3133011  85.6075287
  16.0875416  70.0872345  85.4841843  62.5056267  55.1802483   2.4160564
  63.1666069  55.8455276   2.6077330  61.6705093  55.6174049   2.5825145
  26.1524220  53.3463669  12.9430885  26.1936798  53.1453438  12.0081444
  25.7468300  54.2124138  12.9841948  19.7174702  47.7686043  10.8684673
  20.0625935  48.3632050  11.5344791  20.3624325  47.8001213  10.1618824
  13.3282309  53.8642311  75.2054062  13.0460882  54.0274544  76.1054001
  13.9504175  54.5671425  75.0182419  34.4438171  37.0009995  52.2641487
  34.8839340  37.5606422  52.9039345  35.0137024  36.2362556  52.1827240
  23.2608604  70.5035629  16.8815708  23.8879642  70.1032715  17.4838486
  22.5163593  69.9019623  16.8762589  41.2414131  66.0898056  23.9265289
  40.5358505  66.0083542  24.5682297  41.0863762  66.9356689  23.5061607
  56.8158226  70.9763794  20.8419113  57.7489853  71.1855927  20.8827114
  56.5374336  70.9437714  21.7571545  63.6612968   1.7859583  80.6669617
  63.9718285   2.1461093  79.8362427  62.8871536   2.3072450  80.8795547
  82.6663132  67.3089142  49.9713440  82.1613388  67.2120895  50.7787209
  82.5549774  68.2279434  49.7279701  72.9141464  23.3372955  45.4589882
  73.4875565  22.5792637  45.3457642  73.4260559  24.0761261  45.1298790
  75.2340851  41.8066139  11.6301804  75.3116226  40.9951057  12.1318560
  74.5400162  42.2958794  12.0719013  33.7488480  30.3635521  88.3319092
  34.3927841  29.6649132  88.4480286  32.9059601  29.9106293  88.3067322
  77.0134659  59.0637093  69.5408020  77.5767670  58.5909920  68.9280548
  76.4128342  58.3981628  69.8762360   7.2784386  57.6948624  11.8813553
   7.4742937  57.7775726  10.9480648   6.5961185  57.0249290  11.9244452
  70.0643921  33.0766411  59.0118141  70.9539032  33.4172058  58.9168930
  69.7313156  33.4947166  59.8058586  21.4108620  58.0711746  81.0701370
  21.0338383  57.1995773  81.1901703  20.8150005  58.6563683  81.5378189
  58.8457642  45.0368576   5.2985449  59.7523041  44.8396606   5.0628982
  58.3683205  44.2287140   5.1109796  23.5431881  18.9392719  77.5014725
  23.8945370  19.8185024  77.6419754  23.1685410  18.9689064  76.6211395
  26.6343632  34.1515961  30.2544498  26.6982479  34.9785919  30.7321835
  26.4493103  34.4102135  29.3516178  81.0127335  53.9480743  72.0356598
  81.0672531  54.8235779  71.6525803  80.8263168  54.1029968  72.9616623
  60.6235466  27.3577709  68.8237305  60.5552597  28.1307125  69.3842010
  61.5584564  27.1527710  68.8113022  48.5363083  66.6403580  27.0083179
  47.8031616  66.6655655  27.6232109  48.3256302  65.9203568  26.4137993
  76.9981461  22.0495815  26.2556973  77.7351379  22.5842934  26.5509224
  77.4029465  21.2551746  25.9074326  59.0218506  30.3348293  69.4458466
  59.4662743  30.6926804  70.2143936  58.3129692  29.8017025  69.8056946
  38.2086220  38.4756470  56.2314606  37.5092316  37.9507828  56.6208229
  39.0103264  38.1443481  56.6361160  82.1960144   1.9994280  49.2877731
  82.5750809   2.6288822  48.6743126  81.8455963   2.5378237  49.9973984
  73.8850784  19.3684521  40.7449646  73.0567322  19.6004314  41.1648026
  74.3811264  18.9163361  41.4274292  30.0757828  50.2964363   5.5395269
  30.7981300  50.6657906   6.0474887  30.4988995  49.8836060   4.7866807
  51.0899124  17.6428623  79.6257858  51.2465858  18.2191448  80.3738403
  50.1451454  17.4893761  79.6354294  39.5692940   0.7384502  26.6139107
  39.6706238  -0.1693375  26.3277550  40.4417191   1.1196203  26.5148106
  73.5151138  33.2935600  75.1937103  73.5183258  32.5590668  75.8075027
  74.1039505  33.9373360  75.5874863  25.4213028  50.5350304  58.9954185
  25.5163040  50.4422760  59.9433632  25.3254871  49.6380119  58.6754036
  10.5589151  65.4321823  80.1701889  11.2026396  64.7241821  80.1459961
  10.5831499  65.7471619  81.0737534  10.5632973   2.9544690  19.4099350
  10.2251806   2.2165337  18.9026299  11.4674330   3.0554719  19.1123314
  65.6718140  43.9153137  38.6144066  64.8369827  44.3783531  38.6843109
  66.3048553  44.4982605  39.0335274   4.1712494  35.6793251  26.2853451
   3.7110729  35.6275139  25.4476185   4.5894761  34.8237915  26.3821869
  40.8553734  55.2652702  27.6369438  41.3760414  55.5342674  28.3937626
  41.0101013  54.3236122  27.5622673   0.5482749  13.6925097  71.2521896
   0.7353891  14.5278959  70.8239975   0.4686964  13.9117422  72.1805420
  21.0515213   1.1847118  69.8515701  21.6797009   0.8811309  70.5069046
  20.2373505   1.3084196  70.3394852  71.1089249  31.9722137  46.4557190
  71.0197296  32.6831093  45.8209724  70.2241287  31.6179905  46.5445290
  57.8443069  64.7120438  62.7473030  57.0496674  65.2437057  62.7013206
  58.5359573  65.2861404  62.4182663  43.7483025   0.3392329  49.4266357
  43.5737419   0.5627027  50.3408661  43.1216583   0.8635954  48.9280434
  81.3342743   1.8862658  56.6278191  81.1127014   2.7859752  56.8679466
  82.2864075   1.8921217  56.5296822  57.0423393  15.9846821  60.2584572
  56.3566856  16.6308498  60.4274979  57.6055641  16.3986073  59.6044884
  64.5011673  50.5634995  21.6217575  65.0835648  49.9184608  21.2205467
  63.6227226  50.2055740  21.4934731  56.4029846  31.0478287  22.2546883
  57.1991844  31.5686417  22.1495552  55.7459183  31.6736393  22.5594177
   8.0516253  39.5358849   4.9732394   8.3760567  40.4071083   5.2011642
   8.8091679  38.9614830   5.0846896  73.4495544  60.3240776  69.9120483
  73.6018753  60.1620636  68.9810333  73.1465378  59.4833755  70.2550201
  62.4591370  37.9310455  84.4601288  61.6881065  38.4982491  84.4549255
  62.1274071  37.0734749  84.1941223  71.0672989   3.4261305   4.5792313
  70.9483871   3.4739738   3.6306520  71.7773209   4.0412350   4.7629366
   5.5881333  26.2988052  64.8369217   5.3879075  25.3665543  64.9208832
   5.9447098  26.5450153  65.6904221  23.1804371  45.7828674  28.0012131
  23.2005634  44.8564949  27.7610779  24.1019306  46.0348816  28.0609608
  80.7383957  71.6183548  63.7182922  81.0644760  71.0862732  62.9924850
  79.7981110  71.4407501  63.7419243  40.2064629  70.8908386  40.6096954
  41.1373367  70.7451630  40.4409256  40.1885643  71.5753479  41.2785416
  57.4758148  20.2759800  17.0622635  58.4204903  20.3616409  16.9338837
  57.3888054  19.7259502  17.8408051  82.1228790   1.7916546  62.1024857
  83.0119095   1.5822870  62.3888893  81.5645294   1.1909449  62.5960617
  79.9620895  51.5600929  50.0532761  80.8562164  51.4181557  50.3641205
  79.8550339  52.5112762  50.0580177  49.1122437  36.6065483  35.5520515
  49.2203751  35.8724136  34.9474144  49.4821014  37.3567085  35.0865440
  75.9300690  69.2165833  57.1762199  76.4140701  68.5547485  56.6823044
  75.7211914  69.8918991  56.5308075  26.3049564  52.2517738  28.6782646
  26.7633133  51.7420235  28.0102119  26.9229603  52.9420395  28.9187584
  34.7788887  43.8750954  29.2626743  34.2976608  43.9345284  28.4373741
  35.6091766  43.4614601  29.0265427  62.8232536  42.4746933  88.9193039
  62.6147194  41.5433617  88.8460617  62.3705559  42.8803711  88.1798935
  66.7588730  35.0455093  39.2768517  65.9018478  35.4278793  39.0883179
  66.7137756  34.8005714  40.2010841   6.5008383  39.0116463  17.6854057
   6.3052931  39.5950813  18.4186153   7.3915038  39.2455215  17.4241600
   4.3992510   1.3619579  36.2915154   4.9435849   0.6168498  36.5459671
   3.7602923   0.9943427  35.6809235  55.1052589   7.4809318  53.8618164
  54.4451065   6.8304367  53.6224709  55.7516823   7.4365873  53.1572571
  32.2736359  48.7037582  29.6382065  32.5984344  49.3877831  30.2237358
  32.2631111  47.9125404  30.1768150  38.7234077  14.1032219  82.1841812
  39.4320679  14.5428514  82.6540298  37.9942284  14.0944796  82.8042221
  80.7807236  29.1353874   6.3155680  81.3986893  29.8164673   6.5810528
  81.0152664  28.9395638   5.4084439  52.5713806  45.7685699  73.1013336
  51.6410599  45.6445618  72.9132996  52.6492691  45.6072350  74.0416183
  63.5873947  25.9385014  82.6953506  64.5368500  26.0289860  82.6142807
  63.3467522  26.5519257  83.3896408  33.5170975  47.0862885  16.4699116
  33.6432533  47.9400101  16.0558186  34.1264801  46.5062485  16.0133572
  24.0867596  39.2536812  13.5158491  23.3355789  39.7329483  13.8655119
  24.6749763  39.1514091  14.2640285  42.1897774   2.1723213  10.4100952
  42.7271004   1.8846865  11.1481886  42.5658875   3.0144038  10.1538372
  48.1978416  68.1277847  41.7789726  47.5613823  68.7548218  42.1224518
  47.6654663  67.4490051  41.3641663   1.7758151   3.5945570  38.0345154
   2.1768732   2.9573445  38.6255722   2.0595696   3.3232012  37.1615448
   4.6869388   8.4376783  12.1232853   4.5810027   8.8904305  12.9599609
   4.3902655   9.0705061  11.4692640   9.6060781  42.9839554  75.4932098
   8.6498241  42.9934082  75.4517365   9.8728924  43.7910233  75.0531158
  12.3012829  21.8467770  58.5888863  11.9298792  21.1712418  59.1562881
  11.7691088  22.6235104  58.7612495  19.7733421  61.6245422  33.4218407
  19.2904320  61.8766708  32.6347809  20.5227051  61.1273041  33.0940628
  29.1758614  20.8298588  17.4647923  30.1172619  20.6742611  17.5408573
  28.8352070  20.0384312  17.0478649  41.6690865  45.4659843  15.1615534
  42.4279861  45.6182594  14.5984201  41.1694450  44.7849808  14.7111902
  35.1740417  61.6460953  40.1309929  35.3370705  60.9234467  40.7371559
  34.8770218  62.3646431  40.6892967   7.9101362  39.2669296  12.8396215
   7.3733954  38.4743958  12.8454828   8.4951954  39.1655273  13.5903912
  39.9095802  24.9441795   0.8167382  39.1553078  24.7789669   0.2510403
  40.0374222  25.8918743   0.7747743   0.5306435  22.3225594  80.4113922
   1.4259955  22.0292015  80.5802689   0.0521387  21.5212593  80.1988297
  39.1109200  28.5284576  37.7037201  38.4341278  28.4742832  38.3784447
  39.1330948  29.4539738  37.4604912  60.7610054   8.9957771  76.5967331
  61.2904701   9.4728546  77.2357101  60.2053795   9.6656237  76.1982117
  81.0069733  10.4297533  70.9091339  80.8120270  11.3030567  70.5691833
  80.2133865   9.9230261  70.7368774  23.5215530  40.1792984  21.9173985
  22.6115246  40.1855087  21.6206799  23.6077538  40.9750633  22.4423332
  20.6048889  16.4420071  32.6219635  20.8834209  16.4516792  31.7062340
  20.9497719  17.2574120  32.9858360  66.6134033   4.7302175  12.8968573
  66.5575333   4.9177728  11.9598761  67.3806076   5.2195787  13.1937494
  21.4020691  56.4828568  70.2463150  20.9315662  55.8922424  69.6580658
  20.7215443  56.8535118  70.8082123  40.6943054   2.2906427   7.0060167
  40.7180977   1.5169839   7.5691485  39.9233665   2.7765057   7.2989755
  36.5935402  45.3305969  43.1643448  37.3339767  45.9357071  43.2070618
  36.7199974  44.8549385  42.3433762  22.9822140   5.2335954  60.5524559
  22.4742241   5.5329709  61.3064804  23.7833920   5.7566237  60.5805016
  16.7500782  36.6862373  17.0169601  16.0348778  36.0576019  17.1146374
  17.3295326  36.2905197  16.3659039  44.3891220   4.1444359  32.7519188
  44.4920998   5.0855007  32.6104126  43.4661217   4.0363102  32.9813004
  18.9583626  61.2316628   5.4770656  18.7540245  60.3665619   5.1219907
  18.4026165  61.3096695   6.2524962  60.9489288  61.1885529  77.8973389
  61.0116005  61.3925667  78.8304367  61.1774292  62.0073128  77.4572754
  73.0670395  13.9740305  53.1445465  73.6100235  13.2027979  53.3076401
  73.4736176  14.3976870  52.3886070  23.6791840  17.5623913  80.3136978
  22.7448368  17.7169476  80.1746292  24.1123295  18.1036854  79.6536865
  76.7965012  11.8168030  28.2068825  76.8962555  11.3988819  29.0622330
  77.1772614  11.1923714  27.5893536   3.7159865  67.8746109  74.6529617
   3.5890749  68.6212311  74.0675659   4.6424785  67.9113846  74.8906403
   0.2387733  25.8781567   5.0377197   0.6038281  25.6975784   4.1714873
   0.1248322  25.0145073   5.4344058  42.9476929  53.9273720  78.6668243
  42.9453011  54.6850967  78.0819550  42.1498299  54.0236511  79.1868057
  74.8851166  18.2889767  72.7793655  74.7975159  19.1278477  72.3267517
  75.8291931  18.1365528  72.8206787  82.8937912  62.5535736  16.7528076
  82.3502197  61.7657051  16.7577858  83.3137970  62.5493546  15.8926840
  77.3956375  39.4414215  74.1307144  78.1409988  38.9277763  74.4418869
  77.2980042  40.1388474  74.7790222  82.8454208   9.2558680  57.0618935
  82.6412888   8.3509073  56.8260841  83.6610870   9.1956329  57.5591812
  31.1849327  18.7987862  82.8789749  30.3034954  18.7739143  83.2513733
  31.1866055  19.5752087  82.3191528  36.9246101   4.6989393  42.3060074
  37.4903908   5.0309815  41.6089630  36.0884590   5.1440244  42.1682396
  24.1386814  55.8902969  44.2783699  23.7294445  55.7347794  43.4271507
  24.2124081  55.0205231  44.6711655  82.7960815  52.7885017  77.5038300
  82.9447174  53.7305717  77.5853424  83.4429550  52.4987411  76.8605423
  57.6590843  69.7819366  81.6659012  58.3381195  69.2705612  82.1059418
  56.8859634  69.2178040  81.6823349  85.7612228   0.7391588   2.3791103
  85.6026688   0.9645964   3.2957733  86.0757904   1.5520387   1.9835027
  71.0488739  65.3101959   1.6484716  71.8576736  64.8381424   1.8465368
  70.3729858  64.8444443   2.1408961  27.5741806  14.9168072  75.5375595
  28.4759808  14.9577780  75.2192612  27.3906174  15.8021517  75.8517227
  73.2388229   3.8774226  50.8047905  73.4095917   4.3919892  51.5936432
  72.8279572   3.0749865  51.1265335  53.9787521  47.8470764  65.0444031
  53.4372177  48.5284729  64.6460648  53.7393799  47.8620987  65.9710617
  21.2181816  51.4540977  85.4001770  21.2805519  50.7233429  84.7850800
  20.6911716  52.1086388  84.9418411  34.4307442  70.9460754  54.1287079
  33.8789368  71.0978851  54.8959694  35.1578789  71.5600586  54.2313728
  41.1643791  52.6821594  27.2376366  40.2933235  52.2969856  27.3332233
  41.5871239  52.5311546  28.0830460  26.7541199  68.4634857  26.0061493
  27.3197002  67.7094803  25.8393345  26.3736191  68.2915649  26.8674812
  62.6347694  19.8710575  26.5648403  63.0707207  20.1933441  25.7759762
  63.3109436  19.9016991  27.2416573  37.2996292  15.5429668  79.1978912
  37.9671974  15.2999468  79.8393936  36.4786453  15.5298109  79.6898727
  13.4700260  29.0526562  18.3961773  13.6342211  28.3067074  18.9730930
  14.0577545  28.9148502  17.6533337  73.2436600  51.6413231  37.6763573
  73.3225937  51.5431480  38.6252327  72.7194977  52.4338074  37.5603409
   5.2786641  67.4503021  84.2506409   4.7397509  67.2728653  85.0215607
   6.1188612  67.7389069  84.6070251  53.9687538  61.2712097  55.6838722
  54.3797531  61.8690338  55.0594368  53.6813202  60.5293770  55.1516151
  15.1280880   2.8094320  84.1274719  15.5475130   2.2159412  83.5045090
  15.6987658   3.5776408  84.1478424  31.9776058  36.6954803  11.5681267
  31.8523216  35.7967606  11.2634306  31.0916405  37.0182610  11.7327805
  73.0640259  71.2606506  30.7261696  73.2248306  70.4986191  30.1696854
  73.3995361  72.0012283  30.2209816  54.2143135  68.2139130  49.4048271
  53.5309105  67.6280136  49.0793800  53.7411118  68.8807373  49.9024734
   0.7374091  67.5239258  27.4133282   0.8425552  68.1347733  26.6839142
   0.0126684  66.9573898  27.1487198  31.1222038  41.8591957  17.1658134
  31.4607067  41.4557724  16.3665028  31.9037018  42.0752258  17.6745625
  13.7420673  39.8389587  15.8432322  13.8576593  40.3930588  15.0713224
  13.4957533  38.9841919  15.4897738  77.3030930  23.6892109  51.3297119
  77.1902618  24.1848621  50.5186462  77.2097397  24.3415089  52.0239944
  61.6210594  30.3759384  11.7731924  62.5476189  30.6145363  11.8013096
  61.3181152  30.6918373  10.9219198  68.5061569  42.5358620  47.7768097
  69.3157730  43.0271111  47.6374054  68.6819153  41.6730194  47.4015160
  71.3692932   6.5711608  51.3774033  70.5788727   6.7242785  50.8596954
  71.3017120   5.6570039  51.6530533  75.0740814  50.7209511  74.9750748
  75.3387451  51.6070976  75.2219162  74.5346909  50.4196815  75.7061844
   0.5377723  37.5854034  76.3854523   0.4681387  36.6448898  76.5492096
   0.4446868  37.6708565  75.4366302   3.9039235  35.9082832   7.2005448
   3.1124587  36.3844261   6.9493408   4.5346723  36.5928802   7.4235148
  53.3618851  62.9125748  57.7137566  53.8132324  62.6225433  58.5064735
  53.7543602  62.3940582  57.0113754  14.9949675  34.3069229  17.4239902
  14.2630501  33.8813400  17.8705406  15.7739563  33.8797722  17.7802925
   2.2595739  29.2132912  12.6028223   2.0270672  29.0013485  13.5068426
   3.0840735  28.7507572  12.4528370  44.4515457   4.4006934  22.9752674
  44.8054352   3.8669264  23.6866665  43.5045357   4.2714109  23.0270920
  52.6225853  36.8938484  84.5188293  53.0220718  36.2355194  83.9502869
  52.2989082  37.5647888  83.9177475  41.2419128  10.1770315  17.1088200
  41.2677841  10.8206987  17.8168144  41.6203117  10.6327162  16.3568916
  70.4923401   3.9834514  52.9494209  71.4307327   3.8427825  53.0753822
  70.2621994   4.6539354  53.5926323  55.9394379  48.2778473   6.7133422
  55.8470993  47.5169487   6.1399846  56.8299141  48.2113037   7.0580997
  81.8984604  25.2183590  55.5745239  82.5347595  24.5032940  55.5807037
  81.3110733  25.0100155  54.8480263  32.8979416  68.4019165  44.1670036
  33.8445244  68.5403900  44.1992989  32.5757256  69.0858231  43.5799103
  37.7705383  68.3882980  64.3869629  37.9963226  68.1698685  63.4827843
  37.6237106  67.5415039  64.8084183  12.0894184  53.7057724  17.8068199
  12.0733919  54.4975319  17.2691517  12.8844738  53.2474747  17.5346394
  71.3952713   9.7317705  36.6450653  72.1125793   9.1032801  36.5631981
  71.1654358   9.9518280  35.7423019  28.0196533  54.4186211  29.1454010
  28.9575310  54.6024246  29.1986008  27.6386070  55.2197037  28.7858162
  64.3076553  34.6525841  70.3874893  65.0241013  34.2494125  70.8777847
  64.1034393  34.0203514  69.6984253  25.7627831  49.3314285  45.1731071
  26.3637657  50.0466194  44.9644203  25.3909550  49.5710068  46.0219727
   8.8956203  52.9228210  41.3686752   8.6843357  53.1578865  42.2721863
   9.5858126  52.2643166  41.4476547  53.8941460   1.4520249  55.3378601
  54.2900276   0.9121369  56.0219879  52.9513206   1.3522621  55.4696007
  51.7541313   9.2513056  76.1922226  50.8681870   8.8929310  76.1383209
  51.7984886   9.8885717  75.4793701   5.8590980  40.4813614  60.0251427
   5.0624061  40.3051414  59.5246811   6.1227241  39.6261253  60.3647079
  14.5684795  11.6123371  24.0319996  14.7615108  12.3201714  23.4172306
  15.3404121  11.5680056  24.5962582  57.4970131  59.5560951  73.9059906
  56.7826004  59.0250740  74.2579269  57.9479790  59.8939438  74.6797638
  59.6475334  13.6945963  72.0654755  60.6044197  13.6780872  72.0472641
  59.3958473  13.9671001  71.1830826  81.0999680   0.4027739  47.6144524
  81.3791046   1.1323481  48.1676598  81.8188248  -0.2270087  47.6678810
  61.2631340  59.5415535   5.4835052  60.4763222  59.3970680   4.9578834
  61.3265457  58.7642097   6.0384336  22.9156609   8.3818588  21.7791805
  22.2194824   8.4965906  21.1323376  22.5191975   8.6505060  22.6079617
  53.9786415  39.0786209  12.1665487  53.1436806  39.2060852  12.6169081
  54.4590797  39.8925781  12.3178358   5.5955172  40.5511208   7.5506287
   6.3285308  40.9188423   8.0442905   5.6714191  40.9438210   6.6809983
   2.5911920  58.2794533  30.4163132   1.8488585  58.2364388  31.0190773
   3.0119166  59.1162415  30.6138210  59.6070557  13.1417522  22.5677071
  59.1155510  13.7755756  23.0901260  59.5008049  12.3128824  23.0345230
  37.6574593  63.8965225  37.5932693  37.8960037  64.4607544  38.3287773
  38.3002434  64.1029816  36.9147148  86.5886612  15.8354836  38.8817139
  86.6867905  16.2209034  39.7523766  85.6649475  15.9634924  38.6658401
  40.3295670  65.0567169  28.9605885  39.6577950  65.3097687  29.5937672
  39.8679276  64.5048065  28.3293076  53.7555733   6.3803158  13.6691093
  54.1927528   6.6684647  14.4704056  54.0395889   7.0062551  13.0029507
  71.5132523  30.9670563  52.7400322  70.6017990  30.8043766  52.4970894
  71.9823074  30.1857624  52.4471169  33.7448235  51.2227020  30.3360329
  34.0639915  50.9252510  31.1880226  33.1724892  51.9624481  30.5396137
  67.9318924  48.4115410  68.4678421  67.4593201  47.5818672  68.4003448
  67.3494110  48.9785194  68.9732895  85.4551544   6.7748356  40.8109856
  85.4436569   6.3151193  39.9714851  84.8344574   7.4947543  40.6983414
  35.8759613  47.6741104  10.2940874  35.6880493  47.4714661   9.3776512
  35.2367172  48.3476334  10.5263939  83.7327042  62.7159424  32.0265007
  83.2033539  63.2733421  32.5968704  84.1514893  63.3248482  31.4181557
  15.7116098  36.6148872  81.3819504  16.2799988  36.4807091  82.1403427
  15.9032621  37.5073776  81.0939178  56.2162590  22.6899967  54.1738739
  55.9182243  23.0088844  53.3219833  55.8540916  23.3137283  54.8031807
  35.5700684  45.9199944  71.7204590  34.9179688  45.4123421  71.2374573
  35.5073624  45.5969505  72.6193161  42.7562943   8.4973612  81.6596909
  43.3572006   7.8891921  82.0901184  43.3262138   9.0941086  81.1745911
  66.2937622  64.1272430  54.1530876  65.7379761  64.7643356  53.7042542
  67.0805283  64.0716705  53.6107368  22.9728069  44.6934166  20.8116131
  23.1678600  45.1714630  20.0055981  23.5802879  45.0545082  21.4572220
  57.1929321  15.5830526  44.4300957  56.6575851  15.7368174  45.2085495
  57.6666069  14.7735300  44.6212387  47.1129379  52.0897522  23.7758942
  46.7819557  51.6734161  22.9800644  47.6942329  51.4359169  24.1642628
  63.6168900  63.9184036  44.8640747  64.1686020  64.1487885  45.6115799
  63.4063377  64.7573929  44.4541969   1.7593675  22.0228119  42.2838135
   1.0243975  22.0474377  42.8965492   1.4026145  21.6079731  41.4984055
  81.9375839  38.3647385  71.3302612  81.0174561  38.2650375  71.5745010
  82.1076355  39.3028793  71.4151764  72.0897598  43.2348061  10.2798462
  72.8333740  43.6347580  10.7307377  71.5239105  43.9720421  10.0506420
  15.9966507  68.1325378  78.1673813  16.4322300  68.7662506  77.5973663
  16.0583363  67.3027573  77.6942062  70.3901978  11.5025320  70.1161194
  70.6364288  11.3667431  71.0310822  70.8898087  10.8440628  69.6333771
  35.5177078  50.0831680  32.7969627  34.7550354  49.7612152  33.2774963
  36.0095215  50.5921021  33.4414291  75.3713074  53.4389229  70.8243790
  74.6127167  53.6992912  70.3019028  75.0112762  53.2470284  71.6902847
  42.9584084  70.6937943  79.8281326  42.0294876  70.7170486  80.0579071
  43.0375938  71.2973709  79.0894470  44.9681129  59.4484444  57.3541946
  44.4526520  58.8797951  57.9261818  45.0140343  58.9746552  56.5237427
  29.4593010  47.4490395   1.4517765  28.7144279  47.1728363   0.9178215
  29.8462276  46.6312485   1.7644024  17.1447506  35.9482384  83.7727661
  17.1817932  35.1712303  84.3305435  18.0446339  36.2740555  83.7558517
   6.4859095  48.6274300  14.5528469   6.8040209  47.9682655  13.9359713
   6.8749962  49.4474640  14.2488880  19.7990322  24.1592522  82.7040176
  20.5147743  24.6600571  82.3126907  20.0692902  23.2453594  82.6146164
  65.6068726   9.8201647  46.3531151  66.4789047  10.2148209  46.3585587
  65.0709381  10.4304419  45.8465881   6.0441394  29.6912251  70.7351456
   5.4598246  28.9330730  70.7313538   5.7851686  30.1970577  69.9648819
  64.2421112  44.8276749  28.0313797  64.1163101  43.8885536  28.1672325
  63.3608704  45.1975479  28.0846176   9.6778173   2.3421004   1.9706807
  10.2121105   3.0676892   1.6477513  10.1928453   1.9641403   2.6835089
  33.2099915  44.9070244   7.9528069  33.9498367  44.3624802   8.2217531
  32.4758568  44.2966537   7.8840652  32.5221024   6.1049385  11.9571342
  33.0569305   5.7640405  12.6740589  32.6490784   5.4783978  11.2447052
  35.5994682  10.9788799  15.8088274  35.1523399  10.4892139  15.1185131
  36.5230484  10.9568682  15.5583315   3.0340488  34.6411324  14.2101288
   2.2802434  34.3472443  14.7216349   3.2411661  33.8997574  13.6411867
  57.9141464  45.2245827  65.3701401  56.9806900  45.0713615  65.2238083
  58.0832214  44.8607864  66.2392197  54.6773071  19.8257065  41.5348434
  55.1942291  19.8235683  40.7292290  54.7159958  18.9215412  41.8466492
  30.8977966  62.4270210  46.2633400  31.3631516  63.0721588  45.7309151
  30.3429470  62.9496880  46.8423004  55.8011665  27.9668903  38.2594757
  55.0846710  28.3252277  37.7355881  56.2034225  28.7321301  38.6703682
  26.2249203  22.1399822  88.0248566  26.3421535  21.4341450  88.6606903
  26.9886189  22.0751057  87.4514618  70.5747452  38.8521461  13.6199064
  69.6442871  38.7741318  13.4092026  71.0209579  38.3960457  12.9063950
  27.3675709  47.4705887  53.5537376  27.8330612  47.8870354  52.8283920
  27.0341854  46.6521568  53.1859703  33.6294708  69.0496902  75.7693481
  33.8948174  69.9482651  75.5734253  33.4885178  69.0426025  76.7160873
  24.3448086  55.3397331  20.9526138  23.9354744  55.7596970  20.1961040
  24.9930763  54.7453194  20.5749207  56.6543846  64.6560440  11.3958921
  55.8465767  64.8209534  10.9095993  56.5248871  65.1010971  12.2333803
  72.4445038  53.2224770   1.2493815  72.7372894  53.8558159   1.9046584
  71.7645874  53.6833191   0.7578924  73.6462250  28.0418892  45.9860039
  73.8430557  27.8023415  45.0804062  72.9696350  28.7151489  45.9140167
  60.3734436  52.6984482  62.9623184  60.3932533  51.7694473  63.1920929
  60.4713554  53.1541100  63.7983932  41.7425499  48.1003227  52.7329865
  40.9385033  48.5815430  52.5376396  42.1900482  48.0293312  51.8898163
  45.0066338  70.8049469   6.8717856  44.1543274  70.6023712   6.4860816
  44.8341026  71.5382919   7.4622612  26.3051186  35.8809471  80.2355728
  25.9891357  36.6740189  80.6685028  27.1509972  35.7041664  80.6472397
  75.1237564  65.6710739  21.3149395  75.6421280  65.8642426  20.5337830
  74.3094330  65.2992020  20.9760838  52.7893295  36.7765007  43.7680855
  52.3479309  37.0823746  44.5604477  53.4814377  36.1976738  44.0877380
  64.5060043  67.7752838  61.7098236  64.8842163  67.5652008  60.8559761
  65.2626419  67.9046860  62.2816467  25.2838078  48.0208893  60.1752968
  25.8164272  47.2480202  60.3629837  25.5468903  48.6597137  60.8378067
  39.4089775  13.1159172  87.1523514  39.9665833  12.4040976  87.4663849
  38.9662247  13.4376173  87.9376602  15.7547855  39.2882195  33.0663071
  15.6674185  38.9021072  32.1948051  15.0378923  39.9201012  33.1212883
  57.7154160  43.6050873  50.4241066  57.2395020  43.9795074  51.1654205
  57.0775795  43.0367050  49.9924393   1.6809548  51.3356171  27.7001381
   2.0217326  51.1829872  28.5815048   0.9441305  51.9330139  27.8283653
  76.9767609  42.9687233  45.7595062  77.3907318  43.5490227  46.3983421
  77.2951279  42.0953331  45.9876938  83.6863174  48.9541435  86.8460388
  83.8658600  48.1718330  86.3245163  82.7382736  49.0708275  86.7842331
  21.1999512   5.8661089  23.6148090  20.3057880   5.7793293  23.2843914
  21.2940445   6.7986460  23.8091087  58.9389343  15.8940706  49.9083977
  59.6584663  15.5756741  49.3633003  58.3888397  15.1241131  50.0525932
  37.7204742  26.6262779  83.1208420  37.2445259  26.6654568  82.2912827
  38.4350700  26.0105591  82.9581375  16.5434837  56.0658150  31.5234928
  17.3550224  56.2255592  31.0417042  16.8250751  55.6363754  32.3312798
  50.9272232  52.9443283  31.2137775  51.5593224  53.2091064  30.5455151
  50.2398987  53.6090927  31.1701126  69.3163757  56.1793137  84.6520081
  69.7747803  55.5192680  84.1319733  68.5976028  55.7014389  85.0658112
  23.5073853  65.3472519  76.5727005  23.2793217  65.3626404  75.6431961
  23.3992290  64.4318542  76.8307343  48.4045525  57.0411034  62.2411499
  48.7835770  57.1339226  61.3671036  49.0318184  56.4973679  62.7177200
  38.8387108  55.9335632  23.9442787  38.0619812  55.9090958  23.3854179
  39.5732956  55.9726982  23.3318367  61.3211403   2.6750026  81.5230255
  61.6800957   3.5351112  81.3048630  60.4405289   2.8589115  81.8500443
  15.7443581  18.1699352  31.0774479  15.3977556  18.6937733  31.7997303
  16.5365524  18.6327343  30.8045406  24.4283772  61.4663086  73.6178894
  24.3114643  61.0849228  72.7477646  25.1683102  62.0654831  73.5193253
  78.3254776  19.2827339  25.9565506  77.4813538  18.9616280  25.6394024
  78.9592743  18.6350288  25.6483135  24.7455769  49.7036514  39.0017319
  25.3045845  49.3069572  38.3336220  24.7006874  50.6282921  38.7583084
  86.4682083  15.7148151  12.3561144  86.1829987  15.4699898  11.4758024
  86.7228394  16.6342411  12.2783432  45.2620049   6.5337601  24.7880440
  44.8438034   5.9920135  24.1188297  46.1996536   6.3870292  24.6634579
  37.7917252   1.3816555  83.2538147  37.2267494   0.6120223  83.1852722
  38.3476448   1.2038798  84.0124893  38.5146255  62.2403183  70.3118515
  38.6436615  62.0847359  69.3762360  37.7452621  62.8080597  70.3563766
   0.3172733   3.0945520  26.7512589   0.5977615   2.8611801  27.6361866
   1.1097494   3.4249854  26.3281441  48.2340736   5.3195682  32.0847702
  47.9113426   4.4332891  32.2478218  49.1857948   5.2444611  32.1542091
  59.0447006  54.0834351  36.0786591  59.4617729  53.7743073  35.2744675
  59.7727318  54.2491951  36.6775970  17.2156754  46.7530899  19.0549603
  16.8380871  47.6224289  19.1887722  16.6101475  46.3188477  18.4541264
  10.5466661  60.2894974   3.9602294  11.4392757  60.6317787   4.0084333
  10.5845861  59.6165237   3.2805982   5.0681019  28.6363716  50.9711571
   5.9755130  28.4050655  50.7728271   5.0572925  28.7728310  51.9185181
  12.6520023  47.0429192  81.9420929  13.0965710  46.3999176  82.4944916
  11.7485781  47.0465698  82.2583923  49.2855949  35.1942940  55.9334869
  48.5920486  34.6794052  56.3459320  48.8989220  35.5044746  55.1146431
  16.7661114  33.8563461  75.5155792  17.4204979  34.5545082  75.5396118
  16.9818516  33.3527718  74.7306595  61.2473831   1.8135992  51.1136665
  61.1827698   1.3807451  50.2623787  60.4913139   2.3999245  51.1422348
  41.3848610  47.5842056  24.0640316  41.1048241  47.3160172  23.1888809
  41.4505501  48.5377731  24.0127602  82.4658890  44.3067741  85.5404663
  82.8519211  45.1043968  85.9024048  82.4205093  44.4688911  84.5981827
  60.3377266  40.8029480  79.1383820  59.5128555  40.4129829  79.4277649
  60.1221008  41.7196236  78.9667969  47.5558624   8.8060179  43.4503021
  46.8782997   8.3123083  42.9883575  47.0709305   9.3952856  44.0280876
  60.9425430  43.3384857  69.2491989  60.2299232  42.9308434  69.7413635
  61.5509758  43.6476059  69.9203796  61.4987640  24.6610050  55.7526474
  60.8186874  24.2714977  55.2030869  61.9775581  23.9122124  56.1080284
  36.4820786  64.1922302   0.3894863  35.6764221  63.8019447   0.7283475
  37.0664444  63.4479904   0.2450809   8.8355560  59.6841736  66.1066818
   8.6971312  59.5279922  67.0408554   9.7393446  59.4108772  65.9494934
  57.5079918  10.6410408   8.5080032  57.4581070  10.3992367   9.4328136
  57.3230362  11.5801210   8.4956617  69.0551682  41.5135689   2.8584490
  68.3767548  41.4604111   2.1852727  68.9177856  42.3667488   3.2700884
  38.7482147  55.3827324  74.8223724  37.9521332  55.2255630  74.3146515
  38.8045120  54.6348648  75.4171524   1.4141811  64.6143646  47.3466568
   1.5957540  63.7329712  47.0204544   0.7254475  64.4908600  47.9998207
  15.9503860   0.1575038   1.2099409  16.1592560  -0.0340539   2.1242225
  15.3295832   0.8847917   1.2533895  21.9813900  25.0516701  81.2200317
  22.5604420  24.8355732  81.9509430  22.0753422  25.9980736  81.1117477
  71.5328293  56.5971451  15.8660030  71.5028763  56.0042992  15.1150904
  72.4005585  56.4590149  16.2457504  13.2956820  37.5394974  19.5071621
  13.4119978  37.3772888  20.4433193  14.0826902  38.0184631  19.2474728
  73.6268616  62.6565628  29.3019905  74.4114075  62.7528763  29.8418484
  73.5897827  63.4628067  28.7873707  80.7382050  31.5927048  61.5236282
  80.6513367  32.2043610  62.2547646  81.6611557  31.3390808  61.5318985
  54.5946846  56.0860748   6.7059789  54.0844002  55.8620758   5.9277358
  54.2047310  55.5634193   7.4066906  30.1581898  59.8593941  45.7933388
  29.2753868  59.9455757  46.1531487  30.5340214  60.7365379  45.8681793
  54.7320137   2.7796640  49.7315140  54.5610580   3.5206084  50.3128967
  53.8632584   2.4791782  49.4646721   3.4460955  70.5525360  15.0805922
   3.4311352  69.7402649  15.5867720   3.3272994  71.2432480  15.7325449
  42.5335808  21.7855015   6.6830854  42.0546074  21.7962341   5.8544106
  41.8632126  21.6161518   7.3450222  16.7998028  43.5809212  12.4962368
  16.5912514  43.9268570  11.6284437  17.1105156  42.6907768  12.3309040
  31.4597454  45.2085533  25.9406261  30.6744499  45.7001839  26.1811314
  31.1816616  44.6550064  25.2109070  44.8224487  33.4967232  18.3549709
  44.7859383  32.5617714  18.5568695  43.9204521  33.7996635  18.4591904
  61.9886093   9.8189240   1.1174581  62.3280945   9.8486090   0.2229740
  61.0374413   9.7987309   1.0120959  22.3647327  14.3877802  68.2357635
  22.5286503  13.7192202  68.9008865  23.1721573  14.4180965  67.7225647
  23.8448792  61.5793076  14.9595137  24.3890667  61.5474930  15.7463303
  24.1477966  62.3565331  14.4900541  41.1135864  59.5448074  59.6268539
  40.5771179  58.7537384  59.5755043  41.4231377  59.5659142  60.5323715
  40.5294609  57.0847282   6.6712132  40.6067429  57.7550392   5.9922872
  41.3158264  56.5485992   6.5690799  85.0651093  48.4891548  62.5213699
  85.0432358  49.0104027  61.7188416  84.1876221  48.5832214  62.8920517
  21.0962086   3.6112790   2.0598164  20.2576942   3.3544061   2.4434083
  21.6717968   3.7484624   2.8122201  81.7300415  18.8828678  36.1686630
  81.6768723  19.8187447  35.9749107  82.6381683  18.7452736  36.4381065
  23.0511608   5.6437912  77.7143707  23.3067017   6.4260035  78.2033310
  22.2219677   5.8810983  77.2992172  21.6682453  60.6042023  63.6086121
  21.4324074  61.5089645  63.4036140  22.5395508  60.6665993  63.9999733
  75.2193680   4.1242075  31.7443848  74.9125290   3.3514309  32.2186203
  74.7550735   4.8553414  32.1519470  17.0942516  63.6379318  88.5297699
  17.7655621  62.9576302  88.4772415  17.4228668  64.3423386  87.9711456
  78.5888748  28.5966759  58.1413574  79.0024643  27.7433147  58.0111885
  79.0469284  28.9726772  58.8930473  54.9439621   1.6536367  82.4019928
  55.8943596   1.5527596  82.3490143  54.6065216   0.7581308  82.3811417
  74.0217361  38.0371437   0.4016124  73.4780426  38.6299973   0.9204182
  73.7978134  37.1637802   0.7230664  68.6369400  63.5308533  67.2580795
  69.5842438  63.5651207  67.1251755  68.3293610  64.4043655  67.0159988
  68.9193802  14.7583847  41.5337753  68.6700439  14.2079334  40.7914391
  69.8467484  14.5666599  41.6732903  20.1668663  69.8770370  28.8344421
  19.4387550  69.2600021  28.7612495  20.4813404  69.7710037  29.7322693
   1.3703622  66.1533127  39.1562233   1.1407379  67.0224457  39.4850311
   0.5992994  65.8721771  38.6636238  54.2096710  19.8991070  45.3191605
  54.3228607  19.1004105  44.8038940  54.6138573  20.5856953  44.7886314
  77.1631012  57.6410370  47.5421715  76.9553299  57.4784393  46.6220512
  76.3776016  57.3690376  48.0167732  59.9083443  63.5625267  86.9700775
  60.5837326  63.1524696  87.5103912  60.3866425  63.9301453  86.2268906
  83.8696899  10.7307110  10.1904221  84.4455414  10.1871204   9.6527100
  83.3240204  11.1992264   9.5587788  47.3086128  11.4383764  29.4427090
  48.1140556  11.8643236  29.1493416  47.2246742  11.6919432  30.3618889
  21.6413479  50.4361839  77.4477234  22.1102009  50.1411438  76.6671066
  22.1619854  51.1686935  77.7772598  45.3741798  21.0086327  40.6420517
  44.6305733  20.7140541  40.1162186  44.9865952  21.2799339  41.4741631
   6.2902503   3.0488725  25.8651943   5.4368334   3.1465380  25.4428520
   6.6593223   2.2547829  25.4786205   6.7733998  29.4296074   4.6203303
   7.1204939  29.7519360   5.4521127   6.5284576  30.2207165   4.1403503
   3.4960563  53.8515663  47.5768433   4.1196527  54.5776443  47.5899620
   3.1185138  53.8759575  46.6975822  38.3130646  69.1414719  44.6144257
  38.3923721  70.0895538  44.7197418  38.7232208  68.9592667  43.7689629
  35.9691010  20.5070553  20.3825531  36.6040001  21.2209816  20.4412651
  35.2434464  20.8728561  19.8767433  54.2144737  19.6037502  59.6472740
  54.5105286  19.5341740  60.5548782  54.1666107  18.6981792  59.3408661
  70.8808975  27.5375633  75.4230881  71.6059418  28.0842190  75.1202545
  71.1133804  26.6531467  75.1402588  54.1283951  51.7104568   1.5699319
  54.6591949  52.4609566   1.3030388  53.2550964  52.0743561   1.7153945
  55.4186134  42.9873428  38.9434738  55.7416115  43.5054054  38.2062416
  55.0981140  43.6361885  39.5699806  52.0874176  32.0290489   1.7967141
  51.4485474  31.5423641   1.2759278  52.5635452  32.5590973   1.1575100
  30.3443146  42.1586113  20.6176491  31.2498760  42.0348511  20.3332653
  29.9051762  42.5421906  19.8585320  75.8960266  13.3669014  20.8688812
  75.0979614  13.3937502  21.3967152  76.1848068  14.2784348  20.8247948
  74.7414551  25.8734818   1.0012281  75.0274582  25.9680862   1.9097899
  75.2695312  26.5079098   0.5166018  49.2399139  63.0371971  44.1553459
  49.0629044  62.0965576  44.1456528  49.2653732  63.2856560  43.2313042
  82.6881256  58.4872284  21.8251820  83.3867493  57.9102859  21.5164757
  81.9849472  58.3754234  21.1854439  81.5522079  12.0374680  45.3202248
  80.9732666  11.3073225  45.5391846  81.0660706  12.8172798  45.5881767
   6.8337450   5.5206804  60.7233391   6.2093449   5.2919655  60.0348282
   6.2886295   5.7196412  61.4845848  67.9974442  50.9495621  57.0571861
  68.3791046  50.8986931  57.9335289  68.6124496  51.4878807  56.5589790
   7.4234443  52.7725258  84.5360718   6.6703286  52.8871460  85.1156464
   7.0932312  52.9989700  83.6666336  45.5088310   2.0313556  27.5381641
  46.3485451   1.5804135  27.4500561  44.9425087   1.3988197  27.9802132
  78.3026657  41.5465279  82.6110001  78.8805542  41.2409134  81.9118042
  77.6672287  40.8394470  82.7227631  41.3798752  19.1109295  14.0466843
  41.3174210  20.0660877  14.0493898  42.0345573  18.9156132  13.3762550
  64.2857895  12.7535114  23.3460789  63.5629539  12.4026470  23.8663063
  64.9484177  12.9990883  23.9917126   4.4640918  64.0220337  26.5381546
   4.8713965  63.2851067  26.0828762   5.1985917  64.5053787  26.9164619
  79.8590012  30.7069168  64.4871292  80.0503464  30.9109039  65.4025574
  79.5648041  31.5374527  64.1131134  58.8269310   0.0099568  69.4840393
  59.3590088   0.6380118  69.9725723  58.3367043   0.5454712  68.8602295
  52.0753784  39.0639000  15.8898382  51.6545715  38.3186836  16.3185673
  51.9073334  38.9298172  14.9570923  13.4800825  12.6337709   4.0995359
  13.8875322  13.1794920   4.7721462  13.9439936  12.8606386   3.2935898
  62.8391609  12.8278503  11.3698740  62.0714455  12.8070202  11.9411983
  62.6056709  12.2617245  10.6342010  64.8954849  33.9313774  49.8369713
  64.3188782  33.8947716  49.0738068  64.4715729  34.5538177  50.4278107
  63.2978973  33.9696655  85.7538376  63.1999359  34.0887070  86.6985397
  64.2334442  33.8109436  85.6281738  39.5064545   3.0055447  63.5397415
  38.6087036   3.2430701  63.7718086  39.9894485   3.0602260  64.3643341
  77.4520493  67.3780060   5.2903452  77.0462875  67.7166138   4.4922595
  77.6642761  66.4678268   5.0835466  33.5342789  60.2614899  14.7469282
  33.7843590  59.6156502  15.4076748  33.9871063  59.9789085  13.9523659
  60.7029343  58.4145164  27.5787277  59.8855171  58.9010048  27.4720039
  61.3542747  58.9343643  27.1078320  30.8624325  52.1290321  45.5704613
  30.1123066  52.2636070  46.1496277  31.5838757  51.9095383  46.1600151
  54.0227623  11.3726435  72.1422272  53.8705711  10.4521971  71.9281006
  54.9730186  11.4435081  72.2328949   3.1962011  46.9101486  88.2236710
   3.1688662  47.8423576  88.0081024   3.5768840  46.8783302  89.1013412
  36.1082268  52.7489815  27.3737240  36.6746178  53.4204674  27.7539024
  36.3895531  52.6870842  26.4608936  50.4975700  40.8421516   9.3523216
  50.0333099  41.6441422   9.1125069  49.9108238  40.4001312   9.9659834
  13.9345407   4.2187123  63.4194374  13.0576448   4.1382966  63.7946968
  13.8604555   3.8236482  62.5507202  24.6900024  52.3995667  47.5089684
  25.2570591  53.0705528  47.8890419  25.0158024  51.5763893  47.8729248
  72.3128510  42.6527023  67.7733917  72.5539932  42.4079361  66.8799896
  72.9711533  42.2286224  68.3238754   7.4981632  56.1682053  60.7853165
   8.4462910  56.2409439  60.8948326   7.3149834  55.2354012  60.8973389
   4.6118751  41.8056030  88.6403198   3.7012959  41.9165535  88.3668823
   4.6318126  42.1256180  89.5422211   8.1680479  63.9170914  58.6999130
   7.6346807  63.1322136  58.8252831   8.8189545  63.6624031  58.0459366
   0.4879736  61.5014572  30.0644169   0.6119930  62.1364555  30.7698402
   1.2068768  61.6750755  29.4567432  53.3844566  21.3604164  85.6158829
  53.0254745  22.1718616  85.2568359  54.3113861  21.5514050  85.7592773
  35.1574745  43.8458519  85.5068207  34.9787903  44.1179695  84.6066742
  35.6434479  43.0260735  85.4172211  74.4691238  55.9763527  45.7889900
  75.2740555  56.4199409  45.5214958  73.9976044  56.6280251  46.3078537
  81.9578094  33.6823082  34.9763260  81.3938980  33.1612930  35.5479698
  82.7701111  33.1793022  34.9181290  10.2487354  59.3971329  12.1313457
  10.1372814  58.4493217  12.2052689   9.7171860  59.7569046  12.8414507
  60.3036118  22.8279743  66.0496140  59.7275734  23.2427940  65.4074783
  60.6497154  22.0578518  65.5986710  72.9371490   5.9312582  62.9376411
  73.4071045   5.4637065  63.6281242  73.2963562   6.8181763  62.9616928
  64.7121658  32.3255539   3.8065798  64.6924133  32.8215256   4.6250253
  65.3385468  31.6202202   3.9690092  12.6600580  44.9850197  49.0664368
  11.9057741  45.4976540  49.3571129  12.9652100  44.5388603  49.8564110
  75.7788315  11.8574781  85.5660706  76.6375046  11.5445337  85.2815018
  75.1549530  11.2902861  85.1129684  40.7788124  42.3842850  26.0231209
  40.5060539  41.4701538  26.1018562  41.7306252  42.3430977  25.9304371
  44.1437569  52.0737953  82.4747086  44.5431099  52.1558952  83.3407364
  43.2083511  51.9728012  82.6509018  74.0009613  54.6703606  11.8994274
  74.3383865  55.3864822  12.4375286  74.4314728  53.8881378  12.2444239
  32.9837914  62.6073341  73.6638336  33.3365059  63.4967804  73.6371384
  33.6283531  62.1090584  74.1663208  29.3969460  62.6212349  42.5307236
  30.2869530  62.7981606  42.8353844  28.8789330  63.3526688  42.8667221
  31.0262756  25.4547958  66.4797211  30.8360901  24.6310940  66.9286957
  31.8455887  25.2896442  66.0131531  83.7456055   7.7320828  53.0485039
  83.7923660   8.5769835  53.4959259  84.6591797   7.4930463  52.8920174
  44.9125977  12.9793663  73.0415649  44.2683830  13.6203842  73.3420944
  44.3883553  12.2564297  72.6969452  47.0674095  56.4658852  38.5906296
  46.2679024  56.9429359  38.8129768  47.2861366  55.9809761  39.3864021
  27.0067863   5.3824549  86.1045456  26.3329697   5.7561483  85.5366058
  27.5371132   4.8392000  85.5215759  31.7436237  41.4726372  12.1795321
  32.4043388  41.6338234  11.5059538  31.4709225  42.3458138  12.4613552
  72.3588562  20.6235275  82.5088120  71.5168457  20.8417435  82.9083481
  72.9268188  20.4093647  83.2489319  26.5831795  29.7582855  16.6878147
  26.6947823  29.8464508  17.6343899  25.6508312  29.5747280  16.5726357
  32.3849106  52.3740158  69.9057465  31.7042427  51.7104568  69.7934418
  33.2040901  51.9071236  69.7408600   3.1872416  67.7903061  24.9648800
   2.3103638  68.1210251  24.7700863   3.5498593  68.4234695  25.5844364
  18.3212337  64.8977203  18.6602707  18.8745384  64.1437225  18.8641605
  18.9190445  65.6450882  18.6773682  64.5202179  33.8207169  30.1409378
  64.6220245  34.5529938  29.5329590  64.7462006  34.1863213  30.9962139
  58.3767815  43.3802299  35.4071770  58.0144768  42.5058327  35.2643814
  59.1913490  43.2267342  35.8858757  22.2836151  54.5905876  25.7935734
  22.7221966  54.5800705  24.9428272  22.2106667  55.5192070  26.0139713
   3.3964164  27.0186844  11.1797037   2.6751320  27.3763523  10.6619644
   4.0886321  26.8487911  10.5407934  63.8239708  24.6585407  78.2692413
  63.8237343  24.2266350  79.1234589  63.8981552  23.9422092  77.6386871
  83.0343857  48.0058517  49.3244858  83.1925354  48.7829704  49.8604965
  82.2409973  48.2129211  48.8306351  19.3069019  46.2399750  21.3260803
  20.1197205  46.6812668  21.0794525  18.8298683  46.1387825  20.5024128
  75.3525848  49.3828354  22.2179356  75.1080246  49.8242493  21.4045620
  74.9414825  49.9050293  22.9068012  73.8452148  23.6270485  22.4005165
  72.9252625  23.4603138  22.6057720  74.2684250  23.7179890  23.2542458
  56.0183601   3.1633260  26.6315823  55.4596710   3.8196619  27.0479050
  56.8852768   3.3125918  27.0089512  65.0214767  11.7192154  77.8912430
  64.6280594  11.6431618  78.7605362  65.8397293  12.1933174  78.0393143
  39.5998116  47.7191505  27.1958027  39.4047012  47.1069756  26.4862919
  38.8302383  48.2865601  27.2409840  43.7417717  62.4743729  44.2240753
  44.6394691  62.6179962  43.9245110  43.5127869  61.6079369  43.8877907
  32.1342354  50.0810280  44.2071037  31.8602066  50.8117294  44.7613716
  31.5507946  49.3627701  44.4519119  74.2535400  12.7740993  34.9403381
  74.1937866  12.5843401  34.0040398  74.8757706  13.4991341  34.9985428
  72.7258377  48.1610641  65.6253815  71.8881989  48.0497627  65.1757126
  73.3642044  47.7387085  65.0506287  36.0378647  66.2319565  53.3520050
  36.6812630  66.7925491  52.9184036  35.3955574  66.8414307  53.7156296
  56.4472961  38.8905869   3.1435387  56.0894394  39.0618286   2.2724214
  57.1460609  38.2536125   2.9944491  63.2637367  58.5278549  64.8398590
  62.4213219  58.0775223  64.9012222  63.0345001  59.4492683  64.7186966
  19.3941078  44.8858490  41.0556297  20.1369591  44.4486771  41.4719086
  18.6326065  44.5929375  41.5561829  54.5841789  24.3790092  55.5049820
  53.8220253  24.1532516  54.9717026  54.2176323  24.6272755  56.3536491
  54.0491142   0.3855685  75.6164169  53.2400780   0.1670928  75.1538544
  54.1831207   1.3164003  75.4380188  56.7367897  63.8453789  84.2441101
  56.7362976  64.5566406  83.6035385  57.6347771  63.5141068  84.2334900
  43.2604790  28.8098660  64.9025497  43.9090309  29.0423527  65.5670547
  43.1728897  29.5984592  64.3671265  83.1527328   0.7588121   9.2029152
  83.8739166   1.3684593   9.3593235  82.9730682   0.8356947   8.2658777
  19.5997028  44.8475342  30.4303608  20.4758549  45.1372910  30.6845856
  19.7085361  43.9231224  30.2070961  17.2986240  53.6085472  35.7552872
  17.3475475  52.7017212  36.0577774  17.0999012  53.5391655  34.8215141
  17.0108547  20.7421951  61.0124435  16.1048527  20.9182549  60.7586784
  17.4947929  21.5165348  60.7253380  79.6009750  38.2544441  74.8314209
  80.4602509  38.2802467  75.2523727  79.4418869  37.3247185  74.6685333
  74.9244766  56.1971550  29.3113899  74.5617752  57.0499611  29.0718079
  74.8232040  55.6637764  28.5230484  67.3112488  70.4697876  61.5595360
  66.4989471  70.9451141  61.7340813  67.0331802  69.6867447  61.0843964
  83.7408600  36.5830536  63.2847061  83.4008408  35.7109566  63.4848671
  84.1621933  36.4856682  62.4307594  48.1568985  67.0046539  37.0671196
  49.0021019  67.4361877  36.9420280  48.2700577  66.1383743  36.6759987
  60.1473923  31.1015663   0.7461545  60.0797005  31.9089394   1.2558566
  60.0426178  30.4018269   1.3908408  47.4632454  32.6801186  28.6893501
  48.2760391  32.9846535  28.2857933  47.7422485  32.2623825  29.5041428
  10.5116806  39.6714439  21.7382355  10.0072079  40.4669876  21.9080944
  11.4073744  39.8977623  21.9887218  39.5919647  45.8531342   4.5862045
  40.0464211  46.5208855   4.0725822  40.2085762  45.6253471   5.2820029
  67.1794205  59.0266037  82.5986481  66.7296066  58.2205391  82.3453522
  66.9463272  59.6556549  81.9158630  50.2295837  43.7378082  85.1596069
  49.6720505  43.0648308  85.5501099  51.1059151  43.5463257  85.4936905
  64.4534760   2.4986315  18.1196671  64.6921616   3.1539917  18.7752323
  63.8220863   2.9439638  17.5546398  72.6751785  36.1742134  18.0352764
  71.9317093  36.2811012  18.6286240  73.2518692  36.9105682  18.2388439
  75.3575516  14.1252394  60.1935120  75.7798386  14.0102749  59.3422241
  74.7745056  14.8746510  60.0723915  12.7665215  59.0434990  27.1059551
  11.8972635  58.6575813  26.9978371  12.6457548  59.9690361  26.8937531
  78.8097839  14.5134296  34.3299675  79.5068359  14.0328388  34.7764931
  78.8014832  14.1541405  33.4427948   7.1988721  52.2916832  39.1822624
   6.9389324  53.2087593  39.0948944   7.8055377  52.2841835  39.9226227
  12.0673866  53.4470253  36.1268234  12.7464571  54.0190544  35.7692223
  12.5388269  52.8493843  36.7071648   0.3793870  16.4520416  83.1187286
   0.0934280  15.5397491  83.0720139   0.3413167  16.7616119  82.2137680
  29.0665588  16.9391270  82.2793198  29.8917789  16.4797878  82.1235886
  28.9268742  17.4562378  81.4860229  79.5077438  16.7282028  80.3771362
  79.9100189  15.8628120  80.3029251  79.9771271  17.2660027  79.7394180
  49.1218758   3.6959479  67.5688171  49.4958420   4.5488176  67.7901688
  49.8511543   3.2059479  67.1889648  10.6652889  66.7836227  11.5920143
   9.8767891  67.3259888  11.6103230  10.4976950  66.1405258  10.9031210
  51.2595482  50.4625244  40.0288086  51.4870911  51.3260841  40.3733597
  51.2105179  50.5880699  39.0811424  78.5946884   9.4711380   1.6036499
  79.4746552   9.5965700   1.2484496  78.4242706  10.2667370   2.1078417
  50.4526672  67.4901352  28.4936352  49.7915688  67.2154922  27.8582191
  50.6558762  66.6951981  28.9866066  62.9379387  10.9705009  62.8128357
  62.8592415  11.5335045  63.5829430  63.7377968  10.4671583  62.9648552
  46.9617844  37.7847252  14.7050581  47.1088791  37.7529716  15.6503544
  46.0125542  37.8667145  14.6129932  63.5630150   2.8908746  84.0732498
  63.1446495   2.2664859  83.4805145  63.9066925   2.3516147  84.7855148
   6.8545895  16.1279621  68.3927231   6.6944108  15.1842594  68.3928757
   6.0209756  16.5124359  68.6638260  77.2653503  14.9036970  64.7106628
  77.8228226  15.6325893  64.9830093  77.3655472  14.8679743  63.7593918
  36.3632698  51.3003311  49.3465652  35.9532890  50.9344139  48.5628204
  37.3016167  51.2774620  49.1589050   8.5964460  12.1796656  69.1999359
   8.7617817  12.7669926  69.9374619   7.9894981  12.6635284  68.6398239
  37.8700981  54.5032310   7.8842559  38.5712433  53.9925575   8.2890291
  38.0710182  55.4103851   8.1143217  75.6347504  22.5236855  85.8264084
  75.8565598  23.2232819  85.2119217  76.4639282  22.3079739  86.2532196
  71.3039551   9.5600967  55.7204285  71.9161530   8.8783407  55.9972954
  71.4776917   9.6728678  54.7859077  35.8361015  69.3301544   4.6083508
  36.0146332  70.0787964   4.0392303  34.9580841  69.4947128   4.9522104
  18.7036209  15.1920509  27.0457115  19.1475830  15.4467316  26.2368450
  19.3943157  14.8119440  27.5885658   4.1582847  48.5055161  73.0490799
   4.1375890  48.4752426  74.0055771   3.2369337  48.5109329  72.7896271
  58.4019089  34.9781799  32.9827423  58.1572990  34.4068260  32.2547646
  57.5708084  35.3326912  33.2986908  71.3364944  44.1464195  21.2388306
  72.0019989  43.9614563  20.5761700  71.7966995  44.0533638  22.0729618
  38.8862648  71.5680695  52.0389137  39.2096558  72.1803131  51.3779984
  38.7452011  70.7512970  51.5601463  80.3235016  28.6920242   0.1527759
  81.0598526  29.2739983   0.3407143  80.0129242  28.4128990   1.0140921
  81.5420914  64.0516510  18.5471649  80.7530441  63.5100708  18.5290012
  82.1592941  63.5949249  17.9755936  63.6502419  68.2421570  66.8361053
  63.2146492  67.4449081  66.5346222  64.5150986  68.2118835  66.4270325
  41.6101990  48.0819817   3.5119307  41.0201149  48.5921478   4.0666943
  41.1089706  47.9224892   2.7122023  77.5754318  39.9366035  24.2445068
  76.7955246  39.4247589  24.4589539  77.3724060  40.3403511  23.4007053
  50.6560745  64.8038788  62.9315147  51.1719284  64.2166824  63.4840813
  50.2935715  64.2360001  62.2515640  30.9517345  11.4696379  71.9629593
  30.4593430  10.6501007  72.0092316  31.7896118  11.2695341  72.3802719
  78.4912720  12.6278505  21.7311764  77.7321014  12.9884377  21.2730579
  78.1467056  12.3411121  22.5769215  21.2710304   2.1597781  55.7792969
  21.7681580   1.8529243  55.0210533  21.4530964   3.0985737  55.8211021
  24.5040741   1.3082416  17.0930176  24.1507511   0.4190804  17.0649586
  23.8155708   1.8517588  16.7098923  28.7282887  18.7510948  84.1734009
  29.0657444  18.3920727  84.9940414  28.5489407  17.9826450  83.6315918
  44.3604240  57.5397377  81.2398529  43.5880585  56.9920311  81.3802185
  44.3577385  57.7212563  80.3000259  85.3765030   5.2566633  29.7475414
  84.7373581   5.9423165  29.5536022  85.0874557   4.5060759  29.2285938
  73.0290527  64.9646454  49.7683220  73.6233444  65.5540466  49.3039398
  73.5359802  64.1622238  49.8923111  48.3955956  65.2493515  85.6264496
  48.3112984  64.4213104  86.0991669  49.3270950  65.4627228  85.6813278
  45.3007698  37.2915573  73.3322754  45.7408524  37.1686707  74.1733856
  44.6165352  36.6223030  73.3199310  72.5553818  70.8786774   4.1203465
  72.0278244  70.7657166   3.3296793  73.4606705  70.8390198   3.8119371
  24.9267025  68.4006882  28.1857033  24.9251366  68.1691360  29.1144714
  24.0145721  68.6159515  27.9909897  65.9623718  30.1263638  73.3352661
  66.6427765  30.4508266  73.9251862  66.0927505  29.1782475  73.3177338
  26.6753578  70.3336639  54.1126328  25.8701210  70.8177795  53.9297142
  27.2737312  70.9901428  54.4692993  63.3042336  19.9556160  23.5908947
  62.8183479  19.9729023  22.7663670  63.9972038  20.6055470  23.4742088
  83.0786057  24.4523869  22.7543030  82.8434677  24.0919075  23.6092854
  83.9875946  24.1829338  22.6225414  59.3341637  40.6905098  74.9062195
  58.9175835  40.2742805  75.6608353  59.4817505  41.5949364  75.1827393
   4.0249853  34.9233780  52.6018867   4.7772841  35.2502289  52.1084862
   4.2023501  33.9900322  52.7186813  51.8040009  56.2882690  28.7887478
  52.6343307  56.7644844  28.7871170  52.0559921  55.3677330  28.8618832
  78.2063141  57.3679810   8.2965403  77.7286911  56.5385551   8.2837172
  79.0452728  57.1676979   7.8814955  79.8756409   1.4170114   0.8794600
  79.1898346   1.8449074   1.3921084  80.6355286   1.4019988   1.4613352
  60.0771866  10.1281757  87.8045807  59.9604683   9.1850376  87.9190369
  59.7512627  10.3044920  86.9220200  74.8307877  24.4496422  24.5923615
  74.2096405  24.9739494  25.0978374  75.6705475  24.8936615  24.7101860
  39.5134010  37.8370018  31.3157940  39.5692253  36.9014931  31.5105629
  39.7578926  38.2672424  32.1351509   5.4559875  20.7791061  54.7750626
   4.7116976  21.1438065  54.2962532   5.7997446  20.0960789  54.1992722
  61.6397591  65.9616318  36.3689690  61.5849457  66.6441650  37.0378227
  60.7288780  65.7769165  36.1400414  37.6613998  13.4326420  13.3281488
  37.2204247  13.0089970  12.5917397  37.0196228  13.4080887  14.0379038
  66.6387711   5.3266006  30.8059978  66.8661575   4.3968606  30.8165188
  66.3979568   5.5040016  29.8967304  27.8077564  35.9941902  65.4389725
  27.2310333  36.2848282  64.7324677  28.4604702  36.6899796  65.5168915
  15.1254187  28.1141720  16.3880711  15.4735756  27.4709034  15.7706356
  15.6964455  28.8758259  16.2878513  52.2304420  49.8229637  58.5069122
  51.4142952  50.0961113  58.0879517  52.0516968  48.9382095  58.8254929
  34.1265640  39.9500694  12.9853106  33.9896927  39.9070473  12.0389233
  33.8828773  39.0803909  13.3023357  19.7795067  52.9470596  44.4531288
  18.9453545  53.2571182  44.8056717  19.9618378  53.5332375  43.7187004
  70.1218719  20.8270473  36.8410110  69.2856750  21.2754421  36.9673157
  70.7066040  21.2244396  37.4862976  55.5655785  13.4973516  32.7093239
  54.8593941  13.0062466  33.1292610  55.1258698  14.0293274  32.0460815
   5.3317752  46.4113808  45.7190323   5.3112874  47.3435860  45.5026932
   6.2537389  46.2274780  45.8990211  81.0589600  18.9325504  60.3426971
  81.0417252  19.3673248  59.4901085  80.4499512  19.4376011  60.8814583
   7.4509606  24.7022629  79.5783691   7.3866363  25.2503014  80.3605118
   6.6908894  24.9476357  79.0508118  55.5877991  24.2212048  15.6727877
  56.1915855  24.0565033  16.3970432  55.0005608  24.9022827  16.0006828
  21.6053905  68.9308548  41.6949654  21.6039162  69.8789139  41.5629921
  22.1197624  68.5880966  40.9640961  85.4882660   1.9759383  22.3141079
  86.0314026   2.1954904  23.0710983  85.2656784   2.8219500  21.9255848
  81.6083145  23.9316807  33.6683617  81.3974686  23.2776890  34.3347511
  82.5304031  23.7764359  33.4637222  46.0542259  49.0997620  47.6556625
  46.0466042  48.3625641  48.2661629  46.6179085  49.7508888  48.0734215
  41.6594582  48.2192345  82.4510498  40.9686089  48.7918968  82.1178665
  41.2595482  47.7695351  83.1954117  75.6058502  64.8391037  58.6618843
  75.6189804  64.6723557  57.7194138  76.5215988  64.9998627  58.8894539
  12.8183022  14.1364908  16.0553207  12.6294994  13.4902277  16.7357082
  12.4902964  14.9621506  16.4115944  57.1345634  68.7101822  19.3181515
  56.7341576  68.7929153  18.4526672  56.9089890  69.5258636  19.7653751
   0.2063940  24.0477562  84.1142654   0.9927460  23.5786972  83.8352127
  -0.5167834  23.4720325  83.8656921  42.9643097  43.6984482  67.8889999
  42.5960236  43.8426590  68.7606659  42.4232674  43.0045319  67.5121994
  35.5681381  65.1075974  66.3042831  34.9109154  64.4959641  66.6362305
  35.1954384  65.9733658  66.4709473   4.0702996  32.7348213  83.0913773
   4.6594820  32.5378761  82.3631516   3.6149361  33.5325279  82.8220444
  71.5278854  21.6900864  20.3147812  70.9680328  22.2076950  19.7360935
  72.3885880  22.1035767  20.2481117   9.3964958   0.4934886  18.8929424
   9.1623335   0.3429541  19.8087692   9.0800304  -0.2845121  18.4338150
  83.9209213  31.1079311   5.8906150  83.8605194  31.3347111   6.8185992
  84.0932083  31.9407101   5.4512634  69.4229431  63.0601234  35.1729851
  70.2768631  62.8732719  34.7829437  69.2366562  63.9642410  34.9197998
  46.8310966  40.6090546   0.8564051  47.6767426  40.9430084   1.1557292
  46.4095306  41.3617439   0.4417120   1.9656764  55.1794434  49.4924316
   1.9992532  54.6225433  48.7146339   1.9470706  54.5651093  50.2262459
  63.8858109  61.2554932  28.3470497  63.2128372  61.9336014  28.2878265
  64.6831589  61.7293663  28.5834999  69.6438751  21.5366707  59.5022125
  68.8361893  21.9154491  59.1552315  70.2984009  21.7064476  58.8247108
  47.6546135  59.3373604  37.0186996  47.2761879  59.8536987  37.7303314
  47.5465317  58.4283943  37.2985802  55.7451286  14.0080061  73.9431076
  55.0546112  13.6707296  74.5137787  55.5074997  14.9233007  73.7947922
  46.1317902   6.1200399  73.6256104  46.6601906   5.5182719  73.1012955
  46.2036552   5.7852993  74.5194855  86.2090988  15.3965435  77.3467026
  86.5818100  15.4462872  78.2269592  86.5737839  16.1540241  76.8890381
  52.5529556  12.0400801  20.6778183  53.1456795  11.6405172  21.3144169
  51.6804008  11.9127998  21.0502148  14.0885191  22.2873840   5.4325523
  13.5587397  23.0097065   5.7699189  14.9917936  22.5492821   5.6107011
  72.2712479   9.3770866  84.8653259  73.0563507   9.3571596  85.4125443
  72.5090942   9.9359150  84.1254730  21.3864441  62.5116043  38.7109261
  21.2464046  62.3002129  37.7879257  22.2749958  62.2065506  38.8943672
  49.3261375  15.6685009  83.4001312  48.5970345  16.2626171  83.5780869
  49.3495750  15.5971994  82.4458847   5.9994187  49.4248009  38.4427643
   5.5565491  49.0812073  39.2186775   6.4969506  50.1767006  38.7642326
   0.3526072  61.3475876  49.3160553   0.0742519  61.0839233  48.4389954
  -0.2208361  62.0808563  49.5390091  43.8240738  33.2466507  84.9623718
  43.7206841  32.2965202  84.9095230  43.0167885  33.5967484  84.5856018
   0.4466786  36.2842255  17.2438030   1.1698340  36.5383797  16.6704922
   0.4838177  36.9094009  17.9676857  25.4557762  33.6950111  72.4324036
  24.9973106  34.0108604  71.6537628  24.8603287  33.8892708  73.1562424
  78.9446945  28.6471195  24.1475239  79.0894775  28.6098099  25.0929756
  79.4418182  29.4125748  23.8591175  18.6708870   8.6494923  87.2439117
  18.9544926   9.3168688  87.8687363  19.2053337   8.8074627  86.4656830
  17.3153286  65.6242371   3.4890027  17.9664116  64.9315796   3.3770196
  17.8302746  66.4282455   3.5571113  84.6126175  33.4191017   4.5994916
  85.2113419  33.7225227   5.2819095  83.7610168  33.7757149   4.8521385
  60.1987152  44.3277931  39.2571182  60.9074478  43.7823868  38.9158516
  59.6710129  43.7306366  39.7873688  28.7899704  27.1591854  65.7513351
  29.0598907  27.7942371  65.0879517  29.5837955  26.6591930  65.9412842
  76.5712662  52.9750481  78.1690979  76.2473145  53.4802666  77.4234161
  77.5214996  52.9615555  78.0545883  60.3222733  31.3820782  35.5934258
  60.8595619  30.7374763  35.1329460  59.4227715  31.0830173  35.4603996
  26.1407146  67.8682251  60.9974289  26.3398571  68.7799301  61.2104263
  25.3707371  67.9172974  60.4308968  82.9451294   3.1085529  53.1573753
  83.5101242   3.8612211  53.3320198  83.4573898   2.5565159  52.5665474
  22.7341290  55.1937370  62.8560333  22.1107464  55.6767387  62.3135071
  22.7456322  55.6678467  63.6874886  37.3084183  62.0771332  76.8127899
  37.3807983  62.4879723  77.6743088  37.4207916  62.7981949  76.1933746
  51.2783699  65.4640579  85.7554932  52.0805130  65.9056015  85.4765091
  51.3776131  65.3626480  86.7021179  66.5207520  47.5236588  81.9252777
  66.1261063  48.0339432  81.2181091  66.2544403  46.6216583  81.7472305
  78.4497223  32.3637543   0.6632316  79.3855972  32.3241272   0.8601934
  78.0499115  31.7450981   1.2745011  17.6052914  46.7992210  36.8795853
  17.8056335  46.9902916  35.9632950  18.2715130  46.1644402  37.1430855
  33.2912674  50.8423500  79.4427795  32.8065948  51.3208084  78.7701721
  32.6870346  50.7923622  80.1834793  51.1546936  69.9038010  15.9944735
  51.4816628  70.6114197  16.5499916  50.3903084  69.5663834  16.4614830
  83.6473083   6.8157310  66.7776947  83.1333618   6.9731612  67.5697250
  84.0924301   7.6467600  66.6118927   0.1294847  51.7686958  50.7458191
   0.1202843  51.9903450  49.8146782   0.9070587  52.2088623  51.0891266
  51.4681091  59.9029922   4.9372115  51.0900269  59.3935280   4.2204633
  51.0528450  59.5525436   5.7252283   3.9797459   0.5373475  12.8495464
   3.9863012  -0.1727051  13.4914293   3.0513797   0.7117813  12.6948175
  22.0967979  40.0986671  24.4726944  22.2829704  40.6836395  23.7382698
  22.2557220  39.2207680  24.1258926  72.6399536  28.9417114   0.1253376
  71.9636002  29.2257366  -0.4895651  72.2286835  28.2361984   0.6246751
  78.2615814  52.7030144   5.8848171  77.3871231  52.6778069   5.4963441
  78.1814423  52.1895905   6.6886864  40.0155220   9.0766668   4.3798475
  39.8729286   9.4745359   3.5210111  40.9298248   8.7937803   4.3639393
  81.7834167  35.0797729  75.3906555  82.4974518  35.3384209  75.9733047
  82.1597443  35.1334190  74.5121765  12.7287664  34.5847054  59.6804619
  13.2150822  34.6511917  60.5022354  12.9517317  35.3848686  59.2047958
  40.9070015   0.8103691  89.2875519  41.6535225   0.2349039  89.4542160
  41.0751572   1.1752859  88.4187622  16.0477314  61.0629082  83.6087952
  15.1292830  61.1658630  83.8579636  16.4405384  61.9181938  83.7832031
  36.7378578  60.1187096  44.5277023  36.5210876  60.8578491  45.0959625
  36.7362328  59.3596916  45.1108971  79.1224060  29.7502747  21.0296211
  78.7839127  28.9085407  20.7244396  78.3882217  30.3555794  20.9256630
  16.7842045  64.5901337  41.3887253  16.5578480  64.8194809  42.2900543
  16.9675274  63.6511497  41.4193344  57.0237961  65.2342377   1.4248142
  56.2992630  65.8423843   1.2783852  57.6667175  65.4614792   0.7530673
  48.1632385  27.7344685  84.8860168  48.2131348  28.6325779  85.2133408
  48.5966377  27.7659626  84.0331421  83.1254272   5.4074831  27.2336693
  82.7964935   5.2085891  28.1102962  82.3387833   5.5780382  26.7156658
   3.3672667  61.8039398  54.2945709   2.4488132  61.5424500  54.2290115
   3.8543334  60.9811401  54.2498131  79.8742981   0.1286611  16.3338890
  80.5177460   0.3080163  15.6482944  79.1412811   0.7103547  16.1325073
  35.2329330  26.4604340  70.4944077  34.7347565  26.0274258  69.8011856
  35.6283226  27.2199402  70.0665665  30.3610802  30.7114620   7.4700484
  30.4436951  31.6297112   7.2127085  30.1766567  30.2492332   6.6523900
  59.3039818  35.0269241  86.8316269  59.0481224  35.2973633  87.7134628
  59.3258286  34.0707932  86.8712082   4.4664040  15.6692734  16.6821194
   4.4652624  15.0787115  15.9288139   5.0740066  16.3675060  16.4381504
  51.3833389  25.2712402   1.1771146  51.3166389  26.2130222   1.3346876
  52.2704544  25.1470909   0.8396993  65.7203140  53.9285164  43.0309563
  65.9530334  54.8446655  43.1817703  66.5243454  53.5285912  42.6995544
   9.4517670   3.1118386  21.9227600   9.1542578   4.0204711  21.8768597
  10.0404930   3.0144804  21.1743259  13.7128572  35.6759033  72.1625214
  13.4475880  35.9384384  73.0439606  14.6693964  35.6609192  72.1947556
  48.5944252  29.9354935  86.2092285  49.2208862  30.0108337  85.4894409
  49.1376038  29.8104439  86.9874039  48.1035233  19.9498100   9.8649349
  48.4432793  19.0553436   9.8919191  48.8679733  20.5014915  10.0307541
  17.7356834  43.2853317  32.2468948  18.1430283  43.6545105  31.4633064
  17.4638348  42.4060402  31.9838829  43.0177727   4.7156768   9.2494049
  43.3649216   4.9656744   8.3931227  42.6143341   5.5153422   9.5870514
  50.5738716  64.9808273  29.5546379  50.0523033  64.4319000  28.9690838
  51.3114815  64.4263229  29.8089809  80.7341309  30.6661491  35.3134041
  80.2216873  30.7084427  36.1207733  81.0348892  29.7585697  35.2678833
  57.7842560  28.7985554  -0.2007292  58.1691055  29.3897991   0.4462256
  58.0766640  27.9273605   0.0671313   0.8517635  12.6643610  14.7790880
   0.4527641  12.4504137  15.6224489   0.6596153  13.5934286  14.6520290
  50.9409027  23.4449673  39.0683022  51.0506248  24.0632324  38.3458481
  51.5599976  23.7430153  39.7347260  14.1895962  51.4252701  49.0542068
  13.8966494  50.5152397  49.1016922  13.7109404  51.8678551  49.7550926
  20.7231064  21.4229527  82.8378983  20.9755001  21.3161411  81.9207764
  21.5287704  21.2604027  83.3285294  73.2512512  67.7635269  57.8940735
  73.0868912  68.2537155  57.0885086  74.2039185  67.7679138  57.9869652
  75.9299698  50.3744164  58.9453278  76.0486069  49.5411911  59.4012794
  75.8565903  51.0224953  59.6459236  63.8723412  47.4855461  73.3831253
  64.6207047  47.8458519  72.9073563  64.2485962  47.1321907  74.1892319
  27.4130497  28.1147499   5.3071499  26.9910851  28.1055756   6.1662745
  26.7080975  27.9129028   4.6919003   4.0406861  52.6475677  15.0825233
   4.9758797  52.5457230  14.9056835   3.6457210  52.7706604  14.2193422
  28.0120010  50.4215698  19.1626663  27.9741516  50.3538132  20.1167145
  28.1131630  51.3581467  18.9928913  70.1784973  69.9664993  64.9116821
  71.0222473  70.1435318  65.3275833  70.3123398  70.1947098  63.9917717
  19.9404678  21.2891788  27.7196503  19.8473797  22.1259804  28.1749840
  19.4316082  21.3959084  26.9159698  17.9507561  68.1295547  88.5082703
  18.0279808  69.0836258  88.5131683  17.2399158  67.9436417  89.1217575
  23.2067986  12.7677774   7.7637625  22.6893063  12.0065470   8.0263691
  24.0851707  12.4192524   7.6113725  81.6433792   1.7475878  83.0360336
  82.3874283   1.8668725  83.6262894  81.9195099   2.1580777  82.2165985
   6.7403617  27.5000610  14.7306147   6.1351309  26.9527683  14.2302160
   6.3307743  28.3651714  14.7379818  19.0690765   1.9793618   6.4544568
  18.1458149   1.7790663   6.3004980  19.0559196   2.7040055   7.0797167
  75.5187073  21.9654140  49.3925362  75.8849030  21.0929317  49.2479439
  76.0885544  22.3577309  50.0540390  54.5923576  35.2562981  33.9874954
  55.1059494  35.7809715  34.6016388  53.7317581  35.1795578  34.3994560
  18.2390118  39.6570282  57.6519623  19.0148449  40.1091957  57.3205185
  18.4489670  38.7270622  57.5664330  83.5564499  70.2329483  11.3691206
  82.7703629  70.1339111  10.8320084  83.4594345  69.5765076  12.0589819
  41.3066597  46.4929619  12.3199329  41.5768280  47.3531113  12.6414661
  40.5199089  46.2851257  12.8239775  68.3784027  68.7784729   6.8908114
  68.9352341  69.2517319   6.2725949  68.0464630  69.4552460   7.4807515
  74.3272705  54.2516289   7.1668234  73.9278946  54.7161026   6.4313002
  73.8369064  54.5496292   7.9329638  53.7470093  10.1365395  14.7761450
  54.3760452  10.7710381  14.4327011  53.1519928   9.9694614  14.0452042
  77.5545197   1.5155298  25.3287411  77.4573669   0.9505101  26.0952568
  76.6952515   1.9234105  25.2213955  37.9313812  28.8588219  75.9504242
  38.2262573  29.3832207  75.2059174  37.0003242  28.7104187  75.7850723
  84.8666000  41.9656143  42.7423363  84.0480194  42.0096436  43.2365265
  85.1140976  41.0414009  42.7707253  71.7628479  65.7808990  35.6886177
  72.2632675  65.4200211  34.9567833  71.1258240  66.3655548  35.2779961
   7.5851288  52.7775154  21.6519604   7.1803322  52.1704140  21.0324478
   7.8731284  52.2230988  22.3771572  37.0339394  19.4058685  69.2827988
  37.3877754  19.9390125  69.9946899  37.3590469  18.5232201  69.4601898
  52.6652985  53.7054291  29.2958889  52.6410179  52.8780746  28.8151340
  53.5699043  53.7792969  29.5999641  45.6517067  19.9740772  72.6492310
  44.9554482  20.3003864  73.2192993  46.4576530  20.1324482  73.1407623
  50.8073540  47.0742378  51.3141708  50.1627388  47.1891670  52.0123825
  50.4892120  46.3213348  50.8160248  48.7354393  34.4053955  15.2273903
  48.5321960  34.7011948  14.3400202  47.9130173  34.0385170  15.5518198
  76.2881775  59.3289413  85.7095947  77.0106812  59.0254250  86.2592316
  76.4690781  58.9540291  84.8476486  26.1401978   0.3076075  83.9614410
  25.5430012   0.5622727  83.2580719  26.0317822   0.9881082  84.6258240
  15.7145691  21.1680927  76.0505447  15.5118189  20.2699566  76.3122253
  15.1300831  21.3402100  75.3123169  59.4554100  47.5331879  75.4957428
  58.5508194  47.5787125  75.1861038  59.8152275  46.7547646  75.0705109
  65.0429688   5.7155519  41.9999771  65.0466003   4.7640891  42.1045609
  65.5147858   6.0425043  42.7659607  50.3446045  61.1818199  38.8060913
  50.2883682  60.9327812  37.8835678  49.9307671  60.4574356  39.2753830
  72.4029465  39.9197502   1.6803966  71.8586578  39.9319420   2.4676876
  71.8820496  40.3794785   1.0219537  27.7628365  48.3000298  23.2236099
  28.7100773  48.1640472  23.2017765  27.4282761  47.7718391  22.4988232
  49.1601830  44.2796974  38.6509476  49.9330750  44.6178169  39.1032104
  48.9852524  43.4381371  39.0721436  83.8875427  22.8414974  12.8739471
  84.3190460  22.8094997  13.7277708  83.6284866  21.9361229  12.7024288
  35.2106133  20.2827034  67.2098846  35.7006721  20.3104019  68.0316544
  35.7119293  19.6880054  66.6519928  25.2995358  61.4090691  86.5190048
  24.8992729  60.9476585  87.2559738  24.6931992  61.2699738  85.7915192
   1.3335379  58.2015572  54.2693405   1.2898031  58.7018509  55.0842171
   1.0193297  58.8080559  53.5987701   9.4113684  51.0933189  24.7219372
   9.8739710  50.2862015  24.4965668   8.5675592  50.7981796  25.0641518
  64.3767776  15.7089481  48.4364395  64.2838440  16.5638103  48.8569260
  63.8628273  15.1155176  48.9840965  41.6885033  26.0580673   4.7515697
  42.6186562  25.8422375   4.6847577  41.6733704  26.9957924   4.9430809
  23.8287220  22.7772293  14.7288227  24.3167553  23.0597076  15.5022964
  23.0355244  23.3129501  14.7372465  52.1892815  63.2092857  24.3370819
  51.2483292  63.2187691  24.1617317  52.2755013  62.7202950  25.1554241
  38.7825089  20.8621426   2.6215003  38.2085876  20.8859806   3.3871865
  39.0523224  19.9463272   2.5528328  66.6722336   0.0899470  75.6208649
  67.2355652   0.3425037  74.8893509  65.8540955   0.5625252  75.4673996
  30.9422646  52.3740311  53.3209724  30.1971054  52.2377129  52.7358322
  30.7103291  53.1529388  53.8266792  86.6167068  56.5787239  24.4375648
  85.6928177  56.6492653  24.6777573  87.0880508  56.9304390  25.1927891
  71.8608246  53.7157135  81.5215836  71.1562195  53.6992073  82.1692581
  72.4748535  53.0441208  81.8184967  72.1796494  11.1089907  29.3970642
  71.5486450  11.8040485  29.5840473  73.0026398  11.5699959  29.2346230
   0.2864902  28.4275570  14.8904982  -0.5560502  28.6436672  14.4909306
   0.3365867  27.4728851  14.8422928   5.0894413  25.2021217  78.0669022
   4.7745056  25.3174229  77.1703796   4.6542988  25.8944092  78.5645142
  10.2876844   8.5627470  75.5742035  10.1889601   7.6172123  75.4626312
  10.2184706   8.7009745  76.5188370  71.3157349  42.1098938  89.3471451
  70.8072739  42.5613976  88.6734772  72.0319519  42.7116013  89.5501556
  61.7201309  66.8661728  86.5948563  61.3828926  67.5574493  86.0250854
  61.4619675  66.0521698  86.1624374  84.8191223  55.2422180  75.7571106
  83.9627609  55.5529442  75.4632950  85.4461136  55.7139130  75.2088318
   2.6544809  12.5975075  34.9471779   3.0571911  12.6150026  34.0789909
   1.8471565  12.0975647  34.8266907  63.1718636  61.9815102  58.0681992
  63.9994202  61.5006294  58.0799026  62.5374031  61.3757362  58.4512482
  74.1729813  56.2432556  54.2242165  74.4289093  55.8549347  55.0608406
  74.3588562  57.1766434  54.3265610  12.1272211  20.4633827  19.1863136
  12.7241888  20.2648926  18.4648819  12.3752899  19.8500996  19.8781052
  11.1750336  60.8431358   0.2865672  10.5221786  60.1816711   0.5156391
  11.6872654  60.4411850  -0.4150644  69.2236862   8.8210478  57.4624367
  68.5565109   8.8074408  56.7761993  69.9968643   9.1922884  57.0374565
  18.9812965  58.1931610  40.7822075  18.4023495  57.7646446  40.1517906
  19.4520760  58.8488960  40.2678032  36.0137405  23.7288647  83.7506714
  36.1762619  24.2889652  84.5096893  36.8828392  23.5611687  83.3862762
  22.2061062  30.1427822   6.4492993  22.3955975  29.7163219   5.6135631
  22.5201855  29.5253658   7.1098914  68.4668732  40.1846581  38.4640884
  68.0123520  40.8565941  37.9560127  68.2592926  40.3919868  39.3752174
  77.8159332  51.5469704  83.9277191  77.4255066  51.3582039  84.7810516
  77.4195175  50.9073105  83.3361816  60.3812027  61.3694839  45.1298294
  59.9734993  62.1938171  44.8643379  59.6573982  60.7439804  45.1627388
  62.4158020  43.2553291  31.2462330  62.3361778  42.6375542  30.5194263
  61.5470695  43.2657204  31.6480122  73.5673904  22.4817867  18.5859814
  73.6600342  22.0732689  17.7253056  73.2146378  23.3522263  18.4012318
  71.4292374  67.1975327  69.9274445  71.5789871  66.9651413  70.8438492
  70.5483475  67.5718842  69.9161453  29.5375061  26.2971210   2.1934450
  29.2878551  27.2198963   2.1445324  29.2402496  25.9242611   1.3634772
  73.4478302  58.4604073  46.5358429  72.5750198  58.8105927  46.7141876
  73.5616837  58.5702858  45.5918121  86.8407059  70.0817566   1.7243668
  87.1145248  69.7860794   2.5926020  86.4585648  70.9462967   1.8752484
  13.9211826  62.6928596  24.9835835  14.3440485  62.4863014  25.8171005
  14.3160591  62.0857124  24.3577404  23.7486362  65.7880173  57.6957970
  24.4032001  65.5270615  58.3436203  24.1496334  66.5237961  57.2331238
  63.3145599   0.9386004  42.4869766  62.8940086   0.1518047  42.1401024
  62.6077194   1.5812341  42.5472336  70.6551743  57.8397713   8.1398058
  70.1768188  57.7874756   8.9672546  70.9021988  58.7614174   8.0637932
  15.4642763  47.9719048  37.8054161  16.3512478  47.7124405  37.5560341
  15.4645195  47.9369278  38.7619781  69.1300430  18.2956467  80.7969666
  69.0035095  19.2386494  80.9017029  68.3891830  18.0126476  80.2609940
  12.8318081  57.4199677  63.8701515  12.5133801  57.0210190  63.0604134
  13.1505404  56.6828995  64.3910828  78.2065048  30.6900330  47.8672600
  77.7541351  30.9259930  47.0573730  77.5342178  30.2694035  48.4032974
  56.8641167  56.4106255  40.8814697  57.1950073  55.5338821  41.0765800
  55.9190865  56.2937660  40.7840157   1.9208641  46.0973663  15.4960070
   2.6788917  46.4808159  15.0548792   1.4333253  45.6601448  14.7978859
  80.7339020  17.4208984  18.7366371  79.8137741  17.6658459  18.8345490
  80.9155426  17.5398884  17.8043919  73.9139786  51.3529549  86.9703522
  73.1319046  50.8036537  87.0237885  74.4133072  51.1359940  87.7576447
  21.0278854   5.8885274   0.7881421  20.7034969   6.5762973   1.3694994
  20.9239979   5.0808887   1.2912914  41.6565552  70.6633682  61.4847794
  40.8507690  70.9867783  61.8876915  41.4748192  70.6724319  60.5450325
  75.2359619  23.3491249  76.4860687  75.9064026  23.8779697  76.0535507
  75.7078400  22.8803844  77.1744308  15.2513342  18.5277290  75.5743179
  15.7105503  17.7073059  75.7539215  15.4462395  18.7152634  74.6561279
  38.1901932  67.7685623  88.6062241  37.6586571  68.2680817  89.2260437
  38.8335075  67.3166275  89.1522446  45.9297256  53.8085022  81.5462189
  45.4141998  54.5877113  81.3381271  45.2780266  53.1265297  81.7087936
  31.8851261  34.5558395  61.7942810  32.0006905  33.8884354  61.1179314
  32.1059875  34.1092949  62.6116257  48.6084175   8.9314299  85.5050201
  47.9779472   8.3235474  85.1187286  48.5022430   8.8184576  86.4495850
  37.3895531  31.9816532  17.1754379  37.9274635  32.4216232  17.8337040
  36.8687820  31.3517723  17.6737118   8.1310701  35.2606049  71.1020355
   8.6365662  36.0714302  71.1591797   8.7388077  34.5787888  71.3884125
  84.5469818  49.2672081  77.6412201  83.6858521  49.3320236  78.0541077
  85.0330811  50.0181236  77.9818954  19.5938511  47.5722542  79.4255066
  19.4559174  48.1756439  78.6953506  19.0916386  46.7922287  79.1897736
  76.0860825  63.2473831  13.2964344  75.2123566  62.9088135  13.1009588
  76.0743637  64.1456146  12.9658728  83.4723740  59.6214561  66.2648315
  83.9860992  59.1842690  66.9439468  83.6384964  60.5541000  66.4019852
  55.4804535  51.4956207  48.9963264  54.7819519  51.8577461  49.5414810
  56.2540474  52.0110550  49.2246017  70.8404160   2.2984495  60.0297813
  70.5499268   3.2002096  59.8931160  70.0443268   1.8240950  60.2694969
  20.6070995  65.6406631  86.4082184  19.7603455  65.8795700  86.7852631
  20.8752708  64.8618851  86.8958817  72.4139709  48.7458458  87.1699371
  72.1728058  47.9178276  86.7546539  71.5796890  49.1904716  87.3199539
  45.9865189  52.2680969  31.3400764  46.6875381  51.7789955  30.9092827
  45.2144241  52.1082230  30.7973576  42.5891724   0.5912353   4.6131973
  43.1529312   0.9892086   5.2765422  43.0026054  -0.2504521   4.4211893
  35.5288544  60.6316719  70.7633362  34.6607246  60.2339859  70.6967850
  35.4522781  61.4557838  70.2824936  70.2697830  25.2392521  86.3070526
  70.0037079  25.0452137  87.2058258  70.9214249  24.5693016  86.1002502
   3.7356646  50.4690933  50.5189095   4.2111673  49.6960106  50.8230019
   3.9648252  51.1537857  51.1473274  21.2286396   3.2899997   7.6750898
  20.5552521   3.9219458   7.4232459  20.9345665   2.4622889   7.2947645
  55.2856789  27.5284023  87.9645081  55.9948006  27.9002743  88.4889984
  55.0815659  26.6970577  88.3927994  85.9990616  46.0309029  18.7051334
  85.5399094  45.6599045  17.9516258  86.6389771  45.3620453  18.9487839
  84.1110306  44.4627457  11.4257021  84.5675430  45.0809250  10.8550186
  84.3161240  43.6024399  11.0595903   8.9056044  62.3153572   0.2799703
   9.7554188  61.8749886   0.2910404   8.9422398  62.9251938   1.0168502
  75.6689911  64.0881424  56.0417557  75.1789474  64.1644974  55.2230644
  75.3155975  63.3030739  56.4600983   0.8038806  62.6608200  69.5734253
   1.3167250  61.9531479  69.1830139   0.4982361  63.1753998  68.8264160
  81.2277069  58.0734749  85.5543747  81.5458145  57.2442589  85.1973801
  81.2548828  57.9518013  86.5034180  72.7760544  24.6017265  41.7017479
  73.6116486  24.9646988  41.9954643  72.1224289  25.0234146  42.2595863
  35.3150330  17.8267136  73.8515396  35.8406982  18.5025196  74.2795563
  35.9567947  17.2006969  73.5161591  37.9685783  58.9509773  62.4329376
  38.5399323  58.2052879  62.6166115  38.2355270  59.6185989  63.0648041
  41.5075874  56.9197273  34.9488754  41.7820015  56.1425819  34.4620743
  40.5721054  57.0008087  34.7630386  13.3881826  69.1787109  59.9825249
  13.7390327  69.6022949  60.7659225  13.5601578  68.2467117  60.1167908
  31.9364090  37.0618935  51.7590828  32.8709526  37.0612946  51.9661064
  31.6548157  36.1613541  51.9202271   6.5550289  67.4733658  66.6945953
   6.5591702  67.2313919  65.7685013   7.1184139  66.8233643  67.1145096
   8.9261036  12.2411804   4.5030832   9.6729422  12.7618389   4.7986808
   8.8953476  12.3821945   3.5568271  42.5062332  67.7508087  15.0874147
  42.9685364  68.5717545  14.9184227  41.7338142  67.7904358  14.5234747
  46.5172005  12.0859165  54.1834793  46.3131828  12.8143902  54.7699394
  45.8680840  11.4161634  54.3986778  11.0441065  24.4079475  89.0288162
  10.9357586  24.8300552  88.1765747  11.1230698  25.1341019  89.6474457
  73.6794357   9.2353258  42.5048790  73.1497498   8.6095276  42.0108757
  74.1261673   8.7035704  43.1635933  58.6863899  49.7932816   9.6953259
  58.8620033  49.3419151   8.8696995  58.1591263  49.1736603  10.1996002
  78.8643951  63.7637177  45.8654327  78.0353546  63.4242287  46.2025719
  78.6342621  64.1723938  45.0310135  74.5747070  26.3648033  18.7661304
  74.4375229  25.9643326  19.6246376  74.0458755  27.1623898  18.7866287
  30.0273495  43.9868889  53.6000710  30.2632313  43.7199821  54.4885254
  29.2383575  44.5174026  53.7108727  58.2058182  27.5244522  43.0587997
  57.2830124  27.3679295  43.2592163  58.5295944  26.6797371  42.7459793
  61.4313927  68.7186890  80.0874329  62.0333290  69.2928925  79.6139374
  61.0678673  68.1445847  79.4132843  12.1678953  59.0591316  38.8448029
  12.3509665  59.1510506  37.9097824  12.2082062  59.9526558  39.1857262
   4.3978605  19.3626137  13.8787689   4.5827579  18.9499989  13.0350904
   3.6648297  18.8608131  14.2352734   6.7079058  60.8329773  64.9877777
   7.3866024  60.8122139  65.6624374   7.0268292  60.2383728  64.3088303
  83.4918137  56.5551758  68.5028152  82.9082794  57.2552795  68.7953568
  83.3934708  55.8696442  69.1635818  14.1089039  60.1773529  69.2917862
  14.7084341  59.8369904  69.9558258  13.3290243  60.4356155  69.7830276
   5.4659338  26.5554123   9.5449371   6.3382602  26.9079494   9.7209940
   5.3912334  26.5664711   8.5907202   0.1243045  16.0652542  87.0485916
   0.9584914  15.7302580  86.7197418   0.3681180  16.7830582  87.6330109
  50.3273811  30.5504284  77.3739624  50.1774940  31.3570442  77.8670578
  50.2063217  30.8032036  76.4587173   5.9891300  40.0536079  40.1416359
   6.9295483  39.8811417  40.1874733   5.5870266  39.1851807  40.1222191
  83.4679031  34.8628082   0.3423408  84.0812607  35.5788994   0.5073850
  83.9983444  34.1847572  -0.0761270  63.3549385   4.7338648  31.1074047
  63.7523232   4.7956219  30.2387829  64.0324020   4.3341718  31.6528549
  81.6759338  40.8548164  82.5590515  80.9916382  40.2019463  82.4116287
  81.6019211  41.0738029  83.4879227  71.9761429   9.0658360  78.1324310
  71.1843033   9.4586306  78.4997711  71.7733994   8.1324835  78.0693283
   3.8641820  41.0614586  73.3477936   3.1957312  41.7374344  73.4594421
   3.5272231  40.5050812  72.6455612  65.1439667  15.9684591  65.5272751
  65.1917648  15.0155153  65.4508286  65.7999802  16.2915001  64.9095993
  39.4412270  49.6093864  51.4325218  39.9771385  49.2657547  50.7177162
  38.6698494  49.0428238  51.4472923  43.2964706  71.4836655  33.0397186
  42.7771606  71.2195282  33.7991791  44.0923309  71.8618927  33.4135933
  78.1579132  11.1508980  84.6780624  78.2254486  11.5630865  83.8167953
  79.0357895  11.2305269  85.0511932  49.1160622   5.6399736  80.2167053
  49.8261452   5.0161109  80.3677292  48.3449440   5.2227540  80.6008072
  34.7782707  32.9844589  19.1861629  35.4722328  32.4873314  18.7531376
  34.4114571  32.3753662  19.8270092  49.3085709  57.2233391  29.0058517
  49.3581467  58.1784859  29.0441380  50.2190132  56.9393272  28.9242401
  36.5876198  48.3890457  71.1757584  37.2505989  48.0425644  70.5785599
  35.9865723  47.6575508  71.3167877  20.8043213  55.0184250  28.1595249
  21.4851322  54.7160110  28.7605877  21.1968498  54.9333076  27.2906704
  83.3497772   8.7769051  43.5901299  82.8318863   9.5041866  43.2450485
  84.2578583   9.0283966  43.4216957  60.4636345  61.3229103  35.5575409
  60.2533684  62.1521034  35.1280518  61.4186592  61.2697258  35.5210991
  53.0158119   0.4088245  29.9969540  53.7918930   0.7030429  30.4737892
  53.3112144  -0.3605554  29.5101013   3.6082556  41.2234230  62.9721336
   3.2915187  40.4221802  62.5550957   3.2606158  41.9301300  62.4281235
  49.4215584  43.5764580  78.3210602  50.0823250  43.8998108  78.9334793
  49.8762779  43.5312271  77.4799805  39.8115501  54.6235161  79.3197708
  38.8661346  54.5533333  79.1875000  39.9976654  55.5578537  79.2270126
  63.3723984  69.1516342  28.9858265  63.6056442  70.0706787  29.1169491
  62.4466667  69.1717300  28.7432384  37.1355362  47.6157875  14.5536222
  36.8766861  48.0746498  15.3527927  36.9850883  48.2508278  13.8533945
  17.8164482  46.5489769  31.4676685  18.4246902  47.2717018  31.3129387
  18.2814541  45.7732849  31.1541290   7.0646448  47.6283302  57.7357292
   6.7097268  46.7421913  57.8065834   7.9486332  47.5053329  57.3898010
  68.4446869  68.9761124  43.8508911  69.2759552  69.4498672  43.8230019
  68.5438309  68.2799911  43.2014160  22.6955681  56.7695351  11.7845602
  23.4806595  57.3171310  11.7845669  22.5748634  56.5239143  12.7018013
  39.7126503  49.6986160  73.2572479  39.5744934  48.8787842  73.7316132
  40.6642647  49.7889977  73.2073135   3.9857728  15.3997107  71.3765793
   4.1992798  15.7727814  70.5213242   3.9387627  14.4563437  71.2213974
  25.9503613  69.3122559  17.6270695  26.2050705  68.4345932  17.9118004
  26.7681656  69.8096619  17.6235237  82.6519318  53.4747200  60.8737679
  82.0752182  53.7688866  60.1687126  83.2052231  52.8073540  60.4679184
  59.5099831  53.3574715  43.3324738  59.6909485  54.2932129  43.2437630
  60.1960449  52.9310989  42.8189011  42.6238098   1.5069066  26.6980152
  43.2064362   1.0526433  26.0893917  42.5917282   0.9389927  27.4678707
  84.6119995  28.4007320   6.6165361  85.5570831  28.4026108   6.7683349
  84.4009247  29.3110313   6.4090867   7.9931798  41.0675087  19.2894783
   8.2181559  40.1400719  19.2154541   8.2438087  41.3042297  20.1824379
  65.2289276  63.7970963  77.4125671  64.9166641  64.6348877  77.7543640
  64.4877472  63.4495964  76.9164505  23.5059147  16.4234600  43.5683136
  24.0040169  15.8398457  44.1406059  23.3815575  15.9207525  42.7632942
  22.8140526  68.6525421  74.6737595  22.1787949  69.3443604  74.8583527
  22.6702862  68.4348679  73.7527924  75.3149185  68.5929565  53.1753044
  75.6916962  69.4713440  53.2273483  75.8114319  68.0811386  53.8138542
  62.1315460  39.5979233  45.5503960  62.5949860  40.2636147  45.0421524
  62.4503632  39.7148476  46.4453354  27.1202240  10.8188229  66.6824646
  27.5163097  11.2446861  67.4427185  26.3778877  11.3783569  66.4542313
  83.6258011  58.1956673  50.4184074  82.9845657  58.0145302  49.7312088
  83.8652496  57.3326073  50.7560806  80.0152054  42.3086586  49.5473938
  80.7855682  42.5394363  49.0282402  79.3126831  42.8498535  49.1871185
  22.1035843   0.7667287  26.8764515  21.3425179   1.3465035  26.9059296
  22.8504505   1.3568383  26.7754822  33.7030106  17.8900928  82.5722046
  32.8299484  18.2295971  82.3754044  33.5812302  17.3570728  83.3578796
  61.6002274  62.7355537   7.3450184  61.0020638  61.9922562   7.4221120
  61.0317497  63.5049362   7.3784442  11.6271906   1.6584185   3.8203006
  11.0354900   2.0228186   4.4785819  11.9589472   0.8525955   4.2163043
  59.5456848  27.0037556  33.2768173  58.7005959  26.6561832  33.5618629
  59.5912056  27.8752308  33.6701279  76.5188522  39.1718521  54.6687737
  76.6800995  38.4621124  54.0470848  76.8421478  39.9563675  54.2257729
  59.1204414   7.6614790  13.6067734  59.3379326   7.6602936  12.6746101
  59.9684906   7.6704984  14.0505733  80.2006531  36.5484695  62.4139099
  79.3825150  36.8761139  62.0403595  80.6282120  37.3259048  62.7731018
  50.9119568  44.7088547  80.6206284  50.9918098  45.6626663  80.6108246
  51.8085709  44.3946228  80.7371521  35.0673141  37.3414688  19.4729919
  34.7133598  36.5035324  19.1749840  34.5177803  37.5819092  20.2189369
  56.9274292  68.9137726  54.6096611  56.1664619  68.5111694  54.1912384
  56.5563431  69.4916992  55.2763901  58.4142532  47.7623749   2.1083541
  59.0447197  47.2584534   1.5937546  58.0975037  48.4357948   1.5063547
  70.8888474  25.4223232  13.2307262  70.2736816  24.6944275  13.1414356
  70.6398697  26.0328274  12.5368042  50.4299698  32.7892036  79.0149612
  50.8285370  32.8806305  79.8804245  50.1517944  33.6756287  78.7845306
  62.1316414  43.9394722   7.2189898  63.0834427  43.8390083   7.2336626
  61.9824677  44.8469772   7.4843578  51.6071320  41.0424576   6.4271011
  52.5358124  40.9532051   6.2130475  51.1512909  40.6370392   5.6894870
  77.9045410   7.1285448   8.1688061  77.4389038   6.9446383   8.9846449
  78.0280991   8.0777311   8.1722775  27.0249672  54.7722893  65.0873947
  26.5385323  53.9751205  65.2974854  26.6699924  55.0543098  64.2443695
  69.6444931   7.5179110   6.7743993  69.2626190   8.2162142   6.2426281
  70.4686432   7.8843579   7.0949011  48.8756409  12.2115793  65.9047394
  49.8042831  11.9795074  65.9031067  48.8651123  13.1583195  65.7640076
  54.3376465  37.0159988  47.5920830  54.5484657  37.7541046  47.0202522
  54.9769707  36.3426323  47.3595428  57.2614975  65.2589951  53.2346382
  58.0565071  65.2198868  53.7663002  57.2193451  66.1665192  52.9332161
  64.4088135  69.7294388  48.4273529  64.5390625  69.9963531  49.3373108
  64.1982651  68.7971115  48.4790230  51.7097549  20.7531090  39.4967422
  51.3562927  21.6079922  39.2508316  51.2396393  20.1308956  38.9417000
  39.3846550  70.4714737  32.9595795  38.8850288  71.2341309  32.6681023
  40.0203209  70.3199768  32.2601433  24.3528919  28.8386230  14.9417601
  23.9467583  28.7846756  15.8068476  24.5725784  27.9329243  14.7234011
  15.5180006  31.0501804  75.6068649  15.3605471  31.3180313  74.7014999
  14.9506874  31.6191788  76.1270905  44.4084358   2.8407674  65.4942780
  44.5867004   1.9146806  65.3305206  45.2151451   3.2886443  65.2396088
  86.7513504  12.1896744  25.3291569  86.0444412  12.8102322  25.1519127
  86.3283157  11.4736977  25.8031235  30.1880665  70.6328201  64.2300415
  31.0148315  70.2179184  64.4761047  29.5141716  70.0442200  64.5701141
  62.3733940  18.7519493  19.0246048  62.8897324  18.0967503  19.4940128
  62.1414566  19.3974266  19.6922836  50.1054420  26.0274487  20.4396381
  50.4204178  25.8429909  19.5547676  50.0384140  25.1672764  20.8541775
  67.4909058  23.1768932  59.8104324  68.0072937  23.5883999  60.5034294
  66.6015930  23.5028172  59.9487381  73.0084839  40.6442223   8.8559732
  72.8042450  41.5103836   9.2085066  72.5214996  40.5996170   8.0331173
  25.0168667  24.2928009  81.0255280  25.9476700  24.4987297  81.1117249
  24.6139698  25.1160870  80.7496490  46.3162079   3.2812974  71.5573959
  46.0560036   3.9858055  70.9639359  47.0206261   2.8268332  71.0953445
  64.2322311  23.7526131  30.7649403  64.5014801  23.3856068  29.9228935
  63.8631516  24.6082897  30.5462418  19.6748161  44.9239998  50.2426109
  20.3632851  45.5580635  50.0420876  20.1443443  44.1541901  50.5638084
  42.0847397  54.5025291  22.5689049  42.2100792  54.6448631  23.5071297
  42.6997986  55.1052284  22.1509495  38.9545975  43.9854698  74.9005890
  38.5789413  44.0764198  74.0248871  39.7846489  43.5302620  74.7590332
  46.1531601  65.2186127  31.1033096  45.3436623  64.8202744  31.4231071
  46.1797028  66.0779877  31.5240326  45.7889061   8.8464766  15.5113935
  45.9649277   7.9360399  15.2740049  46.5590363   9.3265533  15.2070017
  76.1551056  61.5550308  80.9761429  75.4152756  61.6508217  81.5759048
  76.6128006  60.7725296  81.2834549  76.6265717  55.0266991   8.5811014
  75.8864899  54.8568535   7.9982910  76.9698868  54.1583328   8.7915869
  56.6401711  47.5019836  20.1620846  56.5801010  46.9938354  19.3531284
  57.5781975  47.5475922  20.3471832  54.5413971  66.2341156   7.1533089
  53.9322777  65.7444305   6.6006703  54.5604553  65.7481613   7.9777565
  30.8364239   8.5900469   5.1851602  30.4689808   9.1753740   4.5228839
  31.4587803   8.0446825   4.7040353  43.0430794  32.4039841  88.9855728
  42.2736969  32.3584137  89.5532074  43.3121529  33.3219376  89.0200806
  58.6825829  36.3891754  65.8092270  59.3414116  36.9033165  65.3425064
  58.3506050  35.7745781  65.1547852  57.8437271  40.4874840  89.1258926
  57.6310730  39.5687485  89.2900009  58.5319595  40.4589958  88.4612427
  49.7219009  57.1883850  77.3922729  50.0676346  56.4007645  77.8122253
  48.9292870  57.3955078  77.8873520  80.4654541  63.2915382  79.6661148
  79.8129272  62.6650772  79.9791489  80.3408508  63.3131790  78.7173080
  27.6278763   9.0184612   0.0843710  27.4772377   8.1769819  -0.3462698
  26.7555408   9.3132868   0.3457912  78.9723663  18.5426426  21.6088848
  78.7710037  18.8669338  22.4866791  79.3344955  19.3009853  21.1506157
  55.2996597  21.6469059  43.6561775  54.8591270  21.2195015  42.9216766
  54.8957214  22.5132408  43.7064629  55.0028687  52.4086876  85.0781250
  55.2138062  52.0303307  84.2245560  54.1245689  52.0825539  85.2742310
  35.9380302  71.2987747   9.6605120  36.1123810  71.6339340   8.7810221
  36.7645645  70.9004059   9.9332247   4.3679667  30.4792995  86.6948700
   4.5816212  31.2659836  87.1965790   4.7011328  29.7574348  87.2279205
  29.5619736  22.2606354   8.2511110  30.1943512  22.6970863   8.8219366
  28.8388748  22.0236092   8.8317814  67.4822998  28.8496685  56.6515121
  66.8812485  28.1096954  56.5654488  67.0842285  29.4048500  57.3219910
  26.7242851  11.1145782  13.6711407  26.9683857  11.6416044  12.9102926
  26.4573002  10.2721777  13.3032913  54.2204475  38.5284386  34.5154228
  54.7834663  37.7717209  34.6785698  54.8261147  39.2658348  34.4402695
  51.2042351   7.4441128  82.3208694  51.2023697   8.0646067  83.0497208
  50.6212349   7.8363633  81.6708908  32.9813614   9.0715504  66.2211075
  33.6763306   9.6010056  66.6121674  33.1565857   9.1031837  65.2806168
  31.0061779  55.9770584  73.4411926  31.1941986  55.5613899  72.5997009
  30.3789349  56.6690788  73.2316513  34.2312546  37.0591507  13.3518085
  33.5210342  36.8902779  12.7326956  34.0514526  36.4742889  14.0879059
   4.7911472  31.3559456  80.7805634   4.0584149  30.8339710  80.4536438
   5.1997757  31.7148743  79.9928894  64.0631638  50.3581734  82.6887207
  64.1699905  50.8865967  81.8977737  63.3954964  49.7125740  82.4570770
  41.6474304  61.5451050  25.5094872  41.7450867  60.7373657  25.0052547
  42.3345757  61.4971008  26.1741352  64.6513062   5.8739963  16.1393967
  65.2413940   5.1460829  16.3347607  65.1845551   6.6574001  16.2741508
  43.2135315  46.9201393  42.2611504  43.7029800  46.4699097  41.5727005
  42.6912155  46.2318001  42.6729813   3.1320672  65.7402878  69.7150345
   2.3316939  66.2600327  69.7891922   3.3377554  65.7493134  68.7802353
  39.3800926  61.1793327   5.2337437  40.1269531  61.7452888   5.0384784
  39.1319237  61.4105644   6.1288271  67.7865906  37.2578888  72.4544601
  67.1741943  36.7998657  73.0301514  67.8460083  36.7022171  71.6773300
  48.7277565  22.7369843  12.7989235  48.4945068  23.5977173  12.4511280
  49.6562386  22.8113365  13.0194235  31.1405106  60.7564240  58.1816025
  30.9196930  59.9871063  58.7066002  30.7862892  61.4945335  58.6775360
   2.1975579  10.8886452  52.7423248   1.7919651  11.4299431  53.4196129
   1.6421658  11.0121031  51.9725647  38.0751419  61.7440948  52.6933708
  38.9533844  61.5716553  52.3539848  37.4868317  61.4098740  52.0163040
  22.2403164  38.4226646  70.2267380  22.7633286  37.9773331  70.8933487
  22.3568363  37.8933334  69.4377747  26.5830250   5.2767148  20.6692104
  25.8856277   5.9235268  20.7764587  26.5205078   5.0067801  19.7529907
  35.3825912   6.3691263  22.1147346  34.8606186   7.1313143  21.8640480
  35.8689651   6.1408653  21.3225403   5.6799064  40.3107567  86.3652878
   5.3064604  40.8130188  87.0895081   5.0782599  40.4589577  85.6357040
  27.1677914  49.1925087  87.3195572  26.4391842  48.5815468  87.2096024
  27.9489746  48.6674957  87.1453552  75.1114426  64.3262329  47.8244438
  75.6567001  63.7176399  47.3259087  74.2174454  64.1334305  47.5419044
  71.6912308  56.4435997  32.1827202  72.6078415  56.2857285  32.4088402
  71.4920349  55.7854691  31.5168209  31.2574425  45.7672157  83.5098343
  31.5835400  45.9832497  82.6362076  31.1382332  44.8176193  83.4929428
  44.9801483   0.8801032  60.7962799  44.3666382   0.5134073  61.4329681
  45.5922813   1.3946270  61.3223839  82.0893707   9.6302195   3.6872563
  82.8625488  10.0498323   4.0645599  82.3771591   8.7415724   3.4781778
  65.9826355  38.2058105  77.9670029  66.6410599  37.5441284  77.7551498
  65.8866119  38.1522942  78.9178696  38.9308205  38.5447502  20.6348114
  39.8223839  38.8853264  20.7079525  38.4497871  38.9796333  21.3388824
  38.2156296  53.2674675  62.6898613  38.0635300  52.6411972  63.3975945
  37.3871918  53.7395096  62.6055908  62.7313843  29.5775051  75.1800613
  62.0444107  30.1506176  75.5204163  63.2321434  29.3183594  75.9535751
   1.1032962  25.1530132  45.1836281   0.5940061  24.3497620  45.2915268
   1.5859042  25.0227852  44.3673172  26.1836185  22.2623405  84.6352005
  26.7948742  22.0242996  83.9381104  25.7793732  21.4337368  84.8925629
  24.0021439  63.6829758  40.7930794  24.4963169  64.5011215  40.8446083
  24.0717964  63.4184608  39.8757935  77.4931183  20.8508129  18.4217529
  76.7326889  20.9278412  18.9979839  78.2146988  20.6203594  19.0069408
  40.3047180  61.0352974  74.7727127  39.3868675  60.8144798  74.9309006
  40.4550705  60.7938538  73.8587494  76.9618988  41.7868423  78.9463501
  77.5899429  42.2640839  79.4885941  77.5040588  41.2750511  78.3460464
  72.5112152  25.8850613   4.0695329  73.2407074  26.3855820   3.7040954
  71.9998856  26.5295277   4.5588536  68.6927948  61.1098938  68.7732773
  68.6862640  61.9144325  68.2547150  68.7494049  60.4076996  68.1252441
  75.2099838   0.4817073  49.5366821  74.7057343  -0.2611594  49.2048569
  75.9809875   0.0855928  49.9427376  21.4611645  51.6780319  62.1093369
  22.0407753  52.0680542  62.7636795  21.7237492  52.0850792  61.2837524
  68.8392334  69.1804276  17.9630470  69.3381195  69.2754669  17.1516876
  68.7637634  68.2344742  18.0884018  22.1380501  49.2226028  36.6626015
  23.0582714  48.9611359  36.6951256  21.9393749  49.2839813  35.7282600
  41.3464622  33.9287949  77.1616821  42.1944389  34.3619728  77.2592773
  41.5597954  33.0567360  76.8296585  65.4875031  24.4947872  75.3422165
  65.1703186  23.7015133  75.7738953  65.5576553  24.2531757  74.4186707
   6.0852814   7.9114609  79.2634506   5.6961427   7.9732108  80.1357956
   6.5689459   8.7307682  79.1584015  50.2508430  48.4101715  33.7397003
  50.9230957  49.0432549  33.9917068  49.9322357  48.7233315  32.8931465
  37.5203323  53.3245926  58.1277161  36.9850159  53.5340538  57.3623428
  38.2205391  52.7688980  57.7854462  52.5619011  61.0657730   9.7414484
  53.1942215  61.1723557   9.0307856  53.0058060  60.5013237  10.3743639
  10.6046877  61.7809830  56.2062836  10.6469965  62.0797729  57.1146698
   9.8819065  62.2785721  55.8238945  49.0519333  63.3616600  27.9112110
  48.8483047  63.8484993  27.1126175  48.9912148  62.4419250  27.6530838
  18.5769691  22.6803913   7.5197062  18.0720158  22.7480240   8.3300638
  18.5021515  23.5459595   7.1179309  80.3607254  57.7226791  41.3519936
  80.8669434  56.9366035  41.1468964  81.0097961  58.4257469  41.3771820
  34.6564598  22.4340572  14.1202116  35.5150948  22.1125526  14.3951807
  34.4489174  21.9235172  13.3375835  84.5298538  38.7593765  40.2158203
  85.0513153  38.0959663  40.6677017  83.6964264  38.7704430  40.6864662
  82.8312149  25.4023018  17.3111038  82.6043320  24.6320114  17.8320713
  83.6784363  25.6838684  17.6563148  74.8871384  31.7800789  27.9158001
  73.9991150  31.6893063  28.2613544  75.0837631  32.7128258  28.0026741
  44.1159782  44.7780991   8.7423334  43.3231735  45.2845116   8.9190798
  44.2912903  44.3141098   9.5609980  86.8932953  54.7572517  46.3956528
  85.9936523  54.9635811  46.1420670  87.2082367  55.5509415  46.8282051
  85.8263092  32.6814842   9.6321974  86.2739258  33.5197487   9.5173893
  86.2973862  32.2544403  10.3477049   9.8746777  69.8924179  27.4195080
   9.0416546  69.5956497  27.7858906  10.1033506  69.2247238  26.7728748
  30.1708698  18.8528976   7.7506504  30.0506573  18.0968323   7.1760669
  29.5578918  19.5076637   7.4163280  85.5653915  58.4535332  17.1231194
  84.7525635  57.9505730  17.0723534  86.0003281  58.2909431  16.2860870
  57.9911499  22.9017029  88.0170670  57.1114922  22.9187527  88.3940811
  57.9150620  23.4083576  87.2085190  67.0506744  49.3331146   0.9126922
  67.6402512  48.9862862   1.5822768  67.4877243  50.1231003   0.5946680
  79.2493591  59.6102486  38.6360779  78.6607666  60.3650894  38.6355171
  78.6929398  58.8728371  38.8867836  61.9978371  22.6461353  50.9602852
  62.6239700  22.1725807  51.5079498  62.3264885  22.5333157  50.0683823
  79.5765991  22.7366829  48.7658920  79.6547394  21.8047962  48.5616493
  78.8388443  23.0371552  48.2351685  78.1190567  71.6116409  35.3342400
  77.5027847  70.9192047  35.5729332  78.9097443  71.1454391  35.0627594
  64.8204422  69.7328262  44.1165199  64.7308807  70.0101700  43.2047691
  64.9664841  68.7881699  44.0662689  24.2159576   8.5682554  71.5881729
  23.4784260   9.1044188  71.8793869  24.3714981   8.8450842  70.6851730
  57.4393654   7.3662744  20.9193993  56.7324181   7.5019789  20.2884922
  58.2090454   7.7551956  20.5039921  24.6045494  30.8405457  13.0743828
  25.5465603  30.8655109  12.9063883  24.4760094  30.0516758  13.6010647
  52.1931534  20.1934090  17.6840801  51.6462402  20.9039402  18.0191422
  53.0217361  20.2868710  18.1541252  44.9566193  44.5414047  35.9415817
  44.7717133  45.0104980  35.1279526  45.5504532  45.1188469  36.4213219
  59.4499550  16.4705753  74.0532837  60.3421516  16.2943611  74.3518906
  59.2948265  15.8222094  73.3664169   7.9538760  13.5887356  15.0319538
   8.7703428  13.0891275  15.0342569   8.2002831  14.4518318  15.3644905
  76.0645523  61.8450546  65.4507828  76.4569473  62.4539986  66.0764389
  75.8092117  62.3944931  64.7097397  42.4116745  48.1716576   7.9673438
  42.6431770  47.4355125   8.5336695  42.3660355  48.9233208   8.5582380
   2.0493689  42.2761497  87.1903305   1.6164376  41.5316086  86.7726440
   2.0738451  42.9506226  86.5115662   1.8685538  56.0662956   6.4450917
   2.7608929  56.0469055   6.7909055   1.7335932  56.9765091   6.1814122
   9.4640102  42.0042229  64.8345184   9.7899523  42.6475563  64.2051392
   9.2061062  41.2542229  64.2985916  12.9317904  11.3621187  81.8587341
  12.3177080  11.5004377  81.1376190  12.8633204  12.1571016  82.3874588
  40.0858154  69.2331772  35.3012924  39.2992516  68.6982651  35.4081650
  39.9309616  69.7288132  34.4971771  16.6148968  58.4883842  80.7959061
  16.1154785  57.8829575  81.3438721  16.8917198  57.9607048  80.0468063
  79.3806839  62.9963570  14.5598021  78.8284531  62.7617950  15.3056278
  80.2241364  63.2266998  14.9493666   1.5970901  13.8755569  44.8455048
   1.7663565  14.7840567  45.0949211   1.5833708  13.8884974  43.8884926
   6.8497577   4.8235140  34.7342911   6.5411525   4.2213073  35.4113007
   6.6479311   5.6938481  35.0778236   0.4074238  19.1068115  42.1294403
  -0.0994975  19.6695042  42.7147942   1.0751541  19.6848660  41.7603607
  38.7844315  29.2705078  44.5285988  38.4965286  29.2750664  43.6157341
  38.2447433  29.9373035  44.9532814  61.5863342  11.7721691  33.7032890
  61.9834137  11.5333366  34.5408554  61.7015839  12.7206392  33.6453819
  81.9629974   1.1294860  14.3331070  82.8729248   1.1417128  14.0362625
  81.4591217   0.9025577  13.5515413  32.7688446  68.8763962  78.5018921
  32.9929810  67.9571457  78.6467285  32.9717216  69.3061752  79.3327789
   7.5752254  38.9619026   2.3694942   7.7183609  39.0098190   3.3147180
   8.2109566  38.3150444   2.0634689  66.3080826  35.5410385  44.5466614
  66.0508041  35.6894493  45.4566154  67.1023865  36.0631981  44.4341316
  59.5352402  32.4985733  54.3422585  58.8986511  31.9798908  53.8503647
  60.3554420  32.0120354  54.2598991   0.3111801   8.0636053  13.0001678
  -0.6106344   8.0402622  13.2569647   0.3207406   7.7123656  12.1097908
   3.8798308  23.1462440  72.4210892   3.0551760  23.1354542  72.9069519
   4.5551057  23.0551414  73.0933533  37.7560196  43.3138237  31.4152088
  37.4902573  43.4429436  32.3256645  37.7618523  42.3636169  31.2998638
  52.1777992  28.5311012   6.8692718  51.9786911  29.4659615   6.9205041
  52.9704056  28.4258366   7.3955121  84.8094025  33.2225609  72.9428177
  85.2217407  32.3899384  72.7127228  84.5471420  33.1153564  73.8571243
  47.9274139  49.4919510  76.0089111  48.8509598  49.2912025  76.1605530
  47.7877274  50.3276939  76.4541626  49.7396927  36.7516060  28.8089542
  49.9166603  37.6145058  28.4343662  49.4729156  36.2162323  28.0616684
  80.9369583  21.4297390  54.4203529  80.5132599  21.1892643  55.2442970
  81.5548401  22.1199570  54.6612854  37.3272820  36.3745728  83.5087738
  37.2059593  37.2319298  83.1007843  37.9625053  35.9299622  82.9474869
  25.4573135  61.3686180  57.9579430  24.8514614  62.1083412  58.0024376
  25.5747738  61.2112389  57.0211067  58.2262192  18.4629993  32.8564949
  58.7353706  19.0960121  32.3502426  58.3246002  18.7481956  33.7649078
  73.5615845  46.4698753  29.9372902  74.3904114  46.0338707  30.1352291
  72.9870911  46.2343369  30.6657906  78.3429108   8.5763035  71.4837723
  78.1750107   7.6678438  71.2332840  78.4647064   8.5445251  72.4326553
  63.8650436  11.2897472   4.2535596  63.7009888  10.4006090   3.9393144
  63.4308472  11.8538656   3.6136568  77.8744812  48.2581749  22.2641048
  77.5279694  47.3803253  22.1042690  77.1099319  48.8313599  22.2078915
  28.6854153  41.6812401  23.2239037  29.2719536  41.2119064  23.8171425
  29.2409935  41.9305496  22.4853840  67.5676346   6.0533066   5.3882141
  68.3283920   6.5276704   5.7235765  67.0905380   6.7014694   4.8700500
  27.2494965  61.2106972  38.3484192  27.1295986  60.4378929  37.7964859
  28.0290985  61.0151520  38.8682404  35.9397430  44.4174957  55.0038452
  35.1370583  44.9117889  54.8376999  35.6646194  43.5008621  54.9858704
  86.8381878  71.6501368  89.2003328  90.0000000  90.0000000  90.0000000
