QMMM reactant CHA#2 frame 58698
 55680
  25.1712837  44.4508629  38.5218163  25.8656559  44.5774879  39.2442513
  25.3970222  45.0115814  37.7126541  24.2530708  44.7085037  38.8543930
  25.2569027  43.0875244  38.0033989  24.5665226  43.0292435  37.1619225
  26.7099209  42.7662621  37.5279198  27.3969975  42.8509293  38.3698540
  26.7472439  41.7394562  37.1640854  27.1746998  43.6349487  36.3327866
  26.3115673  43.6316605  35.6671371  27.4600773  44.6023445  36.7460785
  28.5981731  42.7801704  35.5351906  30.0695534  42.9796677  36.6007271
  29.9133015  42.3563728  37.4811783  30.9529190  42.6096535  36.0802841
  30.1607571  44.0029526  36.9649658  24.7291317  42.0653610  39.0238991
  24.6201668  42.4495735  40.1982689  24.2670116  40.8010826  38.7065086
  24.1631527  40.5873642  37.7248611  23.7704105  39.7815208  39.6377640
  24.0715504  40.0166016  40.6586227  22.2839432  39.9195061  39.5512352
  21.9542885  40.8674927  39.9763832  21.9360046  39.9104805  38.5182991
  21.6165695  38.7195244  40.3339882  21.8600445  37.7943077  39.8116875
  20.5436687  38.9057617  40.2860527  22.1703091  38.5044861  42.0506935
  20.8902874  37.4621162  42.6783524  20.9647923  36.6359558  41.9712372
  19.9706345  38.0404358  42.5895348  21.2601185  37.1617889  43.6587257
  24.4380016  38.3825073  39.3750229  24.9495430  38.2068863  38.2754288
  24.3669224  37.4935913  40.3264427  24.0236168  37.8576126  41.2037849
  24.8748550  36.1670265  40.1895943  25.7140312  36.3326187  39.5139732
  25.2203293  35.5345993  41.6444778  24.2930489  35.1824379  42.0963974
  26.1491890  34.3273964  41.5530815  26.1512985  33.7978706  42.5058136
  25.9006939  33.5559311  40.8242531  27.1066952  34.6907501  41.1799126
  25.9152603  36.5421257  42.6137657  25.1413956  37.2706680  42.8555565
  26.2088261  35.9861145  43.5041428  27.1079845  37.2277489  41.9552765
  26.9443417  37.8652840  41.0864449  27.4370975  37.9585114  42.6940384
  27.9751568  36.6231537  41.6896172  23.9633198  35.1766357  39.4074211
  22.7821693  35.0141029  39.7575645  24.4704456  34.5378265  38.3285713
  25.4049759  34.7777405  38.0299149  23.7712097  33.4610558  37.5538712
  22.8220997  33.2583580  38.0500603  23.6326962  33.9200859  36.0728874
  24.5241508  34.5128822  35.8679504  23.5680962  33.0760117  35.3862534
  22.3761539  34.8407135  35.7233200  22.3505630  35.0187683  34.6482658
  21.4664955  34.3239517  36.0292282  22.4141808  36.2489166  36.3425636
  22.4503880  36.2065735  37.4311409  23.4217720  36.5903130  36.1052551
  21.2867889  37.0969696  35.9703522  20.3554897  36.7082939  36.0117531
  21.3435898  38.4255753  35.6849480  22.4704685  39.0757103  35.7622223
  22.4138088  40.0457726  35.4867744  23.3101616  38.5321007  35.9018707
  20.2608032  39.0796432  35.4485970  19.3450871  38.6536331  35.4573898
  20.3711185  39.9504662  34.9489861  24.5529346  32.1822586  37.6212387
  25.7819023  32.1488457  37.5075150  23.8043842  31.0504856  37.7744217
  22.8184376  31.0679264  37.9928322  24.2951641  29.6575375  37.5634842
  25.2199554  29.5600204  38.1321297  23.5263901  29.0067806  37.9801369
  24.6356697  29.4148407  36.0654640  23.8301620  29.9314289  35.2698898
  25.7256660  28.7096615  35.7295456  26.1769123  28.3129520  36.5413933
  26.1418800  28.3319321  34.3933716  25.3082275  28.5016308  33.7119560
  27.3060436  29.1933861  33.8269997  28.2001934  28.9615688  34.4056740
  27.4733715  28.9000092  32.2882919  27.6152992  27.8405380  32.0750389
  26.5863132  29.1851063  31.7226524  28.2315941  29.5249462  31.8164291
  27.1671448  30.7120590  34.1072769  26.2215176  31.1865387  33.8450546
  27.1171894  30.8577843  35.1863365  28.2642822  31.6233082  33.4932289
  28.1764832  32.6369209  33.8843498  29.2686043  31.2527161  33.6984138
  28.2641277  31.6169071  32.4032478  26.4090919  26.8312550  34.3837547
  27.0867386  26.3411446  35.3278389  26.1072731  26.1065063  33.3400841
  25.5414677  26.6155090  32.6760979  26.2640839  24.6142712  33.2691078
  27.0501518  24.2606525  33.9363060  25.0224323  23.9021378  33.8406792
  24.2478561  24.0086365  33.0812111  25.2084103  22.8321304  33.9334106
  24.5493698  24.3078976  35.2131271  25.3865051  24.3721218  35.9082375
  24.0478611  25.2755604  35.2279358  23.5946178  23.2634525  35.8416252
  24.1192074  22.3639946  36.1639328  23.1488190  23.7537212  36.7070732
  22.5318947  22.7071209  34.9454155  21.7373161  23.3232956  34.8501015
  22.3788319  21.5379047  34.3017349  23.1770973  20.5165310  34.3189049
  23.9521275  20.5569744  34.9652748  22.9696884  19.7186146  33.7354584
  21.3608265  21.4141312  33.5333443  21.3666058  20.5676575  32.9823914
  20.6320572  22.1127567  33.5636444  26.6006641  24.0117111  31.9425278
  26.4017105  24.6807632  30.9224300  27.0931892  22.7363758  31.9577026
  27.1142273  22.3513241  32.8911858  27.2960548  21.9492817  30.7208519
  26.3497410  22.0007629  30.1823940  28.0839806  22.3520641  30.0844231
  27.4627438  20.4546146  30.8458881  27.6405392  19.9795780  31.9496307
  27.4923859  19.7415085  29.7200203  27.3677006  20.2426434  28.8520241
  27.9117298  18.3635941  29.6466064  28.5904522  18.1290207  30.4666138
  26.6643028  17.5045643  29.8878651  26.9617043  16.4798546  30.1106262
  26.0013885  17.9006138  30.6571426  25.8896713  17.6258411  29.1306744
  28.6747074  17.8869019  28.3995914  28.6920433  18.5054073  27.3476753
  29.4148922  16.7820644  28.5435429  29.4420280  16.3190212  29.4407349
  30.1861172  16.0169506  27.5506554  29.7412605  16.1287365  26.5618649
  31.5682201  16.6585617  27.4687691  31.4151459  17.7014866  27.1913204
  32.5203094  16.4501667  28.6817017  32.8098602  15.3994379  28.6970291
  33.3801270  17.1094589  28.5627460  31.9796314  16.7086582  29.5921688
  32.2391357  16.2156696  26.3910656  32.7892151  16.8836517  25.9753609
  30.1657982  14.5247307  27.8773136  29.7755508  14.0992661  28.9355774
  30.6304855  13.7245073  26.8875446  30.9753780  14.1523046  26.0401134
  30.7976780  12.3160486  27.0443859  30.7499561  11.9876041  28.0826302
  29.6885166  11.5356436  26.3609772  29.9940205  10.5024672  26.5262470
  28.2544708  11.6616945  27.1138573  27.3517551  11.7105532  26.5049038
  28.1374283  10.7816372  27.7462349  28.1233616  12.5906115  27.6688557
  29.5483322  11.8576574  25.0250702  30.3187389  11.5742741  24.5273056
  32.1831474  11.7706718  26.5490131  32.8420639  12.5010052  25.7847481
  32.5212479  10.5252352  26.9731503  31.9108276  10.0451355  27.6189003
  33.7365608   9.8591700  26.4470406  34.0239143  10.4322701  25.5655174
  34.9340706   9.8195381  27.4946957  35.8764687   9.5376081  27.0251255
  35.2109032  11.3495169  27.8635216  35.8775711  11.8994274  27.1992550
  34.2425461  11.8391848  27.9665241  35.7605400  11.3363667  28.8047009
  34.6421852   8.9039316  28.6351871  33.6257935   9.0959082  28.9789791
  34.7761955   7.8607898  28.3488350  35.3057709   9.1352577  29.4683990
  33.4936562   8.4431086  26.0151405  32.5338058   7.7296615  26.3709431
  34.4038811   7.8825946  25.2350483  35.1065407   8.5382624  24.9244480
  34.4282379   6.4916697  24.8972073  33.4534187   6.0049858  24.9282169
  34.8110886   6.3966575  23.4270973  35.8484344   6.7135887  23.3195248
  34.7539444   5.3786840  23.0416565  33.9577103   7.1824241  22.3481808
  34.2290611   8.2290773  22.4859734  34.1940155   6.9089532  21.3198452
  32.4326172   7.0996971  22.6534367  31.7627430   8.1585121  22.5956688
  31.7886925   6.0768805  22.8787155  35.3698006   5.7094655  25.7760487
  35.1168633   4.5804720  26.1148396  36.5182190   6.3141065  26.2870293
  36.7575989   7.1393337  25.7561836  37.4471512   5.6623545  27.2149448
  37.1970100   4.6015520  27.2301884  38.9050522   5.5805659  26.6964321
  39.4176331   6.5229163  26.8896732  39.4291725   4.7781286  27.2155571
  39.1160393   5.1061044  25.2024956  38.7078857   4.1001554  25.1046314
  38.5961761   5.7701979  24.5119686  40.6454391   4.9711995  24.7538929
  41.1789322   4.4747338  25.5644550  40.7486839   4.3841639  23.8412971
  41.2877159   6.2825975  24.6024609  40.6838951   6.9737520  24.1807919
  42.6072884   6.6343637  24.7518044  43.5938301   5.8304257  25.0783291
  44.5444908   6.0970330  25.2910824  43.4139900   4.8366380  25.0903702
  42.9698372   7.9405055  24.6799622  43.9298401   8.2514944  24.7221661
  42.2887497   8.6824303  24.6039906  37.4595604   6.1812477  28.6589909
  37.7957420   7.3558841  28.8366718  37.3464699   5.3233948  29.6446800
  37.3831902   4.3656449  29.3261414  37.5800171   5.5194559  31.0900249
  37.1616135   6.4661951  31.4316750  36.8624229   4.3691130  31.8218613
  35.8011932   4.5498390  31.6508865  37.2907410   3.4475420  31.4277153
  37.0028648   4.4092393  33.3164368  37.3060951   5.4796252  33.8516388
  36.9573364   3.3396213  33.9430046  39.1883888   5.6449475  31.3217773
  39.9157486   4.7054496  31.5950012  39.6846008   6.8683200  31.1595516
  39.0307121   7.5329485  30.7712250  41.1471825   7.1711459  31.3052273
  41.5802574   6.6407976  32.1533279  41.8826981   6.6887703  29.9951611
  41.6695442   5.6551881  29.7224445  41.6079597   7.3827448  28.6171227
  40.6228485   7.8474593  28.5758381  42.1707535   8.3138990  28.5514412
  41.7771263   6.7575989  27.7403812  43.2862778   6.8195381  30.1667747
  43.5593338   6.0731816  30.7052879  41.3737679   8.6951599  31.4288387
  40.4407578   9.3868675  31.1232128  42.5410385   9.2002573  31.9617653
  43.2452469   8.5076580  32.1727028  42.8306007  10.6826630  32.1392403
  41.9524155  11.1035776  32.6288528  44.0852051  10.8538475  33.0330582
  44.9599838  10.5486355  32.4588585  44.2115288  11.9311085  33.1409988
  44.1517982  10.1322327  34.3783646  44.7990074  10.6682014  35.0725975
  43.1627655  10.0140076  34.8210182  44.8035126   8.7378359  34.4076080
  45.1563454   8.2876434  35.4995155  44.9954109   8.1237583  33.3698387
  43.0570412  11.3772688  30.7834930  42.8644753  12.6057978  30.7434502
  43.5303001  10.7329636  29.7313900  43.7596092   9.7594805  29.8722649
  43.8412476  11.3697386  28.4945354  44.3205833  12.3395443  28.6280079
  44.7219429  10.4339609  27.6726799  45.6783142  10.2615938  28.1663780
  44.3001556   9.4347820  27.5638866  44.9949112  10.9291248  26.2884464
  44.0321846  11.0956078  25.8051815  45.3715134  11.9362249  26.4673882
  45.8462410  10.0220442  25.3786564  45.5162659   8.8297882  25.1271286
  46.9704742  10.4730234  25.0596600  42.5016136  11.7175350  27.7116833
  42.4454613  12.8075581  27.1223793  41.4996338  10.9068556  27.8485947
  41.6572914  10.0414734  28.3449383  40.1453972  11.2778006  27.3802242
  40.2755585  11.8105974  26.4382648  39.2375031  10.0475903  27.1647816
  39.3408890   9.4139366  28.0456314  38.2001534  10.3369093  26.9965439
  39.8083344   9.2444191  25.9586563  40.7603340   8.7806196  26.2168941
  39.1493225   8.3945112  25.7812748  39.9764595  10.0124044  24.6321621
  39.0584259  10.5540981  24.0871620  41.1526413  10.0325069  24.1736450
  39.5029068  12.4007072  28.2878666  39.3891258  13.5651178  27.8992081
  39.1992226  12.1056728  29.5535240  39.3040962  11.1478987  29.8564625
  38.1859474  12.8256216  30.4427586  37.1588440  12.8697119  30.0805264
  38.1938820  12.1899338  31.8768044  39.2057877  11.9838400  32.2256393
  37.5394020  13.0909348  32.9649429  37.3067474  12.6220655  33.9210396
  38.1846275  13.9405718  33.1883278  36.6079292  13.4633417  32.5385895
  37.5758209  10.8109074  31.8472424  36.5115509  10.9408751  31.6509457
  38.0371590  10.3342104  30.9823570  37.6934166   9.9160156  33.0964699
  38.6918945   9.5989399  33.3974800  37.2059135  10.4264870  33.9270477
  37.1884537   8.9504871  33.0671234  38.5375862  14.2769547  30.5566254
  37.7090912  15.1336536  30.2758408  39.7826385  14.5951843  30.8843441
  40.4792900  13.8746710  31.0093956  40.2987175  15.9391899  31.1086521
  39.5883827  16.5102539  31.7064934  41.5531502  15.9066038  31.8851566
  42.3950157  15.5370426  31.2996693  41.7938423  16.9202366  32.2056503
  41.4514961  15.1797657  33.2778397  40.9668236  14.2106838  33.1592102
  42.8587952  14.8779078  33.7896347  43.3950348  14.1582222  33.1710892
  43.4563866  15.7716408  33.9691429  42.7330055  14.5088835  34.8075218
  40.6326942  15.9486008  34.2923813  40.7441711  15.5874071  35.3147354
  41.0039787  16.9712505  34.3589630  39.5928421  15.9574900  33.9656982
  40.3947639  16.6884041  29.7915535  40.0627098  17.8629093  29.8386250
  40.7063065  16.1588135  28.6603661  40.7650070  15.1507111  28.6799889
  40.6589661  16.8182163  27.3535061  41.0656815  17.8248348  27.4504852
  41.4280128  16.0431595  26.3454800  42.4281502  16.0076752  26.7774124
  41.0541153  15.0194883  26.3255920  41.4407845  16.6076870  24.9054165
  42.2497597  16.1289845  24.3535976  40.5259705  16.3429356  24.3752041
  41.5745888  18.1671276  24.7085800  42.0266342  18.9279976  25.4929657
  41.0578041  18.6304092  23.5860786  40.6557808  18.0505295  22.8634319
  40.7927933  19.6028004  23.6518288  39.1960602  17.1866894  27.0227966
  38.8983383  18.2715015  26.4841938  38.2364540  16.3293343  27.3744907
  38.4499969  15.4655190  27.8523216  36.7965698  16.4841499  27.0689335
  36.6779060  16.8626690  26.0536785  36.0559654  15.1353035  27.1722546
  36.5444565  14.4833174  27.8964024  35.0310516  15.2349920  27.5296268
  35.9503632  14.5446224  25.7569160  35.2168427  13.7417049  25.8301849
  35.5638390  15.3630161  25.1495171  37.2285423  13.9221296  25.1049519
  38.0342560  14.6529312  25.0352631  37.6001472  13.1455030  25.7734299
  36.8756256  13.3175964  23.7576447  37.7110329  12.6827583  23.4623928
  36.0198593  12.6657038  23.9331570  36.4608994  14.2955780  22.7693005
  36.7638321  15.1800613  23.1514263  36.8326874  14.1200666  21.8467636
  35.4718895  14.4645405  22.6534863  36.2101746  17.5161610  28.0522556
  35.4541550  18.3225727  27.6111031  36.5902672  17.4191570  29.3546467
  37.2593575  16.7270355  29.6602306  36.2131310  18.4504166  30.2749329
  35.1278496  18.5494900  30.2536736  36.5067482  18.0046234  31.7368832
  37.5797653  18.1618595  31.8464909  35.5937271  18.7591553  32.7414665
  35.8551445  18.3340645  33.7105179  35.7632484  19.8353310  32.7762337
  34.5609055  18.4926147  32.5170822  36.2150307  16.6793728  31.9268055
  36.8775330  16.0822353  31.5716743  36.8574982  19.8483162  29.9658070
  36.1387901  20.8401909  30.2028065  38.1661491  20.0071430  29.6154613
  38.7375832  19.1743450  29.6124039  38.8951607  21.2502594  29.4284458
  38.6518707  21.9769115  30.2036133  40.4205132  20.9227142  29.3654823
  40.6759567  20.3503685  30.2572651  40.6531563  20.3707199  28.4548340
  41.2808495  22.1841145  29.3482666  40.9618874  22.7404289  28.4668598
  41.0003357  22.7663784  30.2259808  42.7396927  21.7835884  29.2440701
  43.0029831  21.0279999  29.9842491  42.9937973  21.4010296  28.2555447
  43.6263046  22.9862556  29.5285950  43.4434853  23.8013649  28.8283997
  43.3834305  23.2813396  30.5493984  45.0377045  22.5676441  29.4339886
  45.6748161  23.3350906  29.5927734  45.2734070  21.8921528  30.1469097
  45.2955246  22.2149696  28.5233574  38.3442650  21.9304600  28.1973534
  38.0307198  23.1257267  28.3257141  38.1078529  21.2373810  27.0270710
  38.1656990  20.2303791  27.0790653  37.3558159  21.7382717  26.0094891
  37.8696022  22.5710392  25.5292587  37.3290482  20.7275734  24.8910427
  38.3131905  20.5399551  24.4616737  37.0815430  19.7341251  25.2650776
  36.2996368  21.0591259  23.7488251  35.2865067  21.2174988  24.1183929
  36.6386642  22.0307274  23.3894424  36.2887383  20.0495243  22.5925121
  35.6050987  19.0562477  22.7461910  37.0021439  20.2365723  21.4661121
  36.9916420  19.5144920  20.7600040  37.6699448  20.9898796  21.5477943
  35.9728088  22.2882977  26.4169121  35.5393143  23.3609047  26.0140400
  35.1925850  21.4855289  27.1272449  35.4877586  20.5740032  27.4467735
  33.8744736  21.9517097  27.6323471  33.1937256  22.2233143  26.8255558
  33.2226067  20.7992458  28.3552723  33.1212997  19.9503098  27.6791477
  33.9227638  20.5005226  29.1354294  31.8647442  21.0537891  29.1205502
  31.9432125  21.7738171  29.9351120  30.7985134  21.5542850  28.2386436
  29.8653851  21.4866238  28.7979240  30.8692055  22.6187878  28.0151482
  30.7311306  21.1373749  27.2337818  31.5100365  19.8022137  29.8587341
  30.6231289  19.9429531  30.4765472  31.3663139  19.1295643  29.0131645
  32.3007240  19.5396366  30.5615616  33.8908081  23.2747917  28.4985447
  33.1395302  24.2199745  28.3476067  34.7751312  23.3734093  29.5063477
  35.3782387  22.5737629  29.6364689  35.0246162  24.6586494  30.2688103
  34.0381012  25.0182686  30.5613270  35.8947067  24.4368019  31.4751911
  35.5897179  23.5572605  32.0421829  36.9197044  24.2111111  31.1809998
  36.0375137  25.7055683  32.3203354  36.3385201  26.5364475  31.6822567
  34.6659851  26.0575657  33.0313568  34.0163727  26.4213543  32.2352638
  34.2441368  25.1307831  33.4202309  34.8967209  26.8804054  33.7079620
  37.0400085  25.4559269  33.4341621  37.9574966  25.1432533  32.9356155
  37.2053261  26.3228779  34.0738258  36.6954041  24.6806736  34.1185112
  35.5170441  25.8064117  29.3664608  34.9218674  26.8403320  29.4823208
  36.5527840  25.6053925  28.5197411  36.9954262  24.7012997  28.4373856
  36.9090271  26.7281666  27.6269588  37.2772903  27.6070671  28.1561260
  38.1824379  26.1842117  26.9326897  38.0875702  25.1200180  26.7168121
  38.3493309  26.6098938  25.9432240  39.5326271  26.4001274  27.5883656
  39.4364967  26.2762299  28.6670265  40.2694893  25.7416821  27.1283817
  40.1677475  27.7999973  27.3435707  39.5555496  28.7740841  27.7808666
  41.2878723  27.9156227  26.7867279  35.8985558  27.2118340  26.6896095
  35.8220291  28.4172096  26.4560604  34.9943848  26.3187332  26.1703129
  34.9687386  25.3494873  26.4531651  33.7859612  26.7004242  25.3591270
  34.2057495  27.4219418  24.6582050  33.0306053  25.5107346  24.6425571
  33.7063293  25.0316753  23.9340401  32.7733002  24.7604790  25.3902283
  31.8572750  25.9308319  23.7325993  31.3826180  25.0318947  23.3392639
  31.0404606  26.3604336  24.3125668  32.3664970  26.8592987  22.6261978
  32.4945641  27.8638191  23.0294800  33.3466721  26.4885159  22.3264046
  31.3849316  26.7643261  21.5152054  31.5461521  25.8429413  20.9556007
  30.4380169  26.5324554  22.0027370  31.4501534  27.9369259  20.6124592
  32.2945938  27.8877010  20.0605545  30.6524601  27.8410854  20.0004082
  31.3414097  28.8011074  21.1237946  32.8349571  27.4313526  26.1802692
  32.2685890  28.4367161  25.6733608  32.4932747  27.0708122  27.4000092
  33.0164757  26.3775215  27.9154797  31.5614567  27.8556671  28.1975689
  30.6207275  27.9983368  27.6658001  31.3639488  27.2072334  29.5958900
  32.3172417  26.8834763  30.0136433  30.6227741  28.0408421  30.6492577
  29.6804657  28.3567219  30.2016201  30.5676231  27.3865261  31.5192738
  31.2044926  28.8770466  31.0371628  30.4948387  25.9078255  29.3813400
  29.4659348  26.1343937  29.1018391  30.9007702  25.3945999  28.5096073
  30.5136299  24.9748497  30.5898762  31.5647354  24.8812084  30.8628349
  30.0188427  25.4249477  31.4505138  30.0686302  24.0037899  30.3728218
  32.0694962  29.2948322  28.4950142  31.2824173  30.2673893  28.5932045
  33.4110031  29.3876438  28.6584682  33.9352608  28.5249424  28.6267662
  34.0776215  30.7006149  28.8830719  33.6086502  31.3245144  29.6439381
  35.6146011  30.4830341  29.2812119  36.0840912  29.6954975  28.6917496
  36.5134735  31.7036324  29.1359978  36.2974586  32.4833450  29.8664036
  37.5076714  31.3218861  29.3682461  36.6125031  32.1633148  28.1526432
  35.7310486  30.0040874  30.7339325  35.4042282  30.8474579  31.3422222
  35.0289001  29.1892223  30.9102402  37.1213303  29.5188732  31.2396336
  36.9858131  29.0440884  32.2113914  37.5751839  28.8354588  30.5219574
  37.7774773  30.3784733  31.3762646  33.9124565  31.4579868  27.5445061
  33.4157715  32.5855141  27.5518150  34.3220978  30.8347740  26.4021416
  34.8625755  29.9816723  26.4163780  34.1186638  31.5135307  25.0344543
  34.7553902  32.3981590  25.0451946  34.6675606  30.6134586  23.9157753
  35.7325439  30.4141331  24.0348549  34.3163071  29.5900288  24.0473480
  34.5204163  31.1108742  22.4480591  34.8146706  30.3187542  21.7595387
  33.4903183  31.3441143  22.1786118  35.3951073  32.3148956  22.1287212
  35.6783638  33.2069168  23.0163040  35.8489037  32.4329529  20.9853344
  32.6890068  31.9291325  24.7883568  32.5310974  32.9940796  24.1142597
  31.7016048  31.2159081  25.3182774  31.8742180  30.2900791  25.6831646
  30.2997093  31.5884590  25.1072960  30.2076473  31.8365669  24.0499096
  29.4302082  30.4472351  25.3404751  29.7893791  30.1063480  26.3115025
  28.3771973  30.7287102  25.3466187  29.5375748  29.1863213  24.3730106
  30.5977669  29.1119347  24.1310234  29.2835445  28.2389984  24.8485622
  28.6824646  29.2033310  23.1126404  28.1430988  28.1189041  22.7983112
  28.5189075  30.2415924  22.4051208  29.8349361  32.7668495  25.9420662
  29.1192646  33.6389923  25.4851551  30.2937660  32.8598061  27.1919098
  31.0691872  32.2800293  27.4794559  29.8293171  33.7940521  28.2320766
  28.9047947  34.2156906  27.8376427  29.3855801  33.0288887  29.5142803
  30.1876717  32.3581314  29.8222370  29.0804729  33.6776237  30.3353462
  28.2122707  32.0780830  29.1581898  27.0346584  32.4351807  29.1723118
  28.4660110  30.7931538  28.8973026  27.6157303  30.2484550  28.8766708
  29.4122810  30.4517612  28.8071671  30.9294777  34.8313828  28.6539707
  30.7685661  35.6086044  29.6257076  32.0575371  34.8644066  27.9135551
  32.0657005  34.0189819  27.3610268  33.1891060  35.8317757  27.9496441
  33.8450890  35.3229904  27.2432976  32.8994942  37.1556740  27.3512344
  32.3110733  37.7636414  28.0384293  33.8250885  37.6558571  27.0662918
  32.1254463  37.0558014  26.0676994  32.5227928  36.2580109  25.0127468
  33.4117928  35.7788239  25.0002842  31.6153946  36.3684959  24.0631809
  31.7961273  35.9438095  23.0867710  30.5374699  37.0687065  24.4925709
  29.8369637  37.4002762  23.8449173  30.8716927  37.5359955  25.7505341
  30.2703953  38.1915169  26.3630180  34.0265007  35.8885765  29.2807007
  34.6624565  36.8784676  29.6241722  33.8075562  34.8112183  30.0991802
  33.5282745  33.9825897  29.5937309  33.8975029  34.7471466  31.5843334
  33.3430328  35.5760536  32.0243073  33.2010422  33.4980240  32.1266479
  33.6801262  32.6047707  31.7257996  33.1161385  33.4065475  33.6550255
  32.8118553  34.3079796  34.1869392  32.5238304  32.5257950  33.9030991
  34.1321640  33.1911201  33.9857483  31.8503189  33.5487938  31.7144680
  31.4844761  34.0315132  32.4592819  35.3573990  34.7373734  32.0505447
  36.0782967  33.7602234  31.8866386  35.8241920  35.7869949  32.7814140
  35.2308655  36.5961151  32.8970947  37.0897293  35.7176743  33.4516983
  37.7185135  35.0887413  32.8214798  37.6202965  37.1571121  33.4442101
  36.8991203  37.8113785  33.9340477  38.5539169  37.1027870  34.0041275
  37.9958267  37.6192513  32.0153160  38.7245483  37.0068283  31.4842796
  37.1073875  37.6357346  31.3840446  38.7609177  39.0241280  31.9837074
  39.6067009  39.0609322  32.6702919  39.2132912  39.2463226  31.0172195
  37.7885818  40.0992851  32.3758087  36.8765068  40.1432228  31.7805843
  37.4085236  39.8423615  33.3645668  38.5194893  41.3967056  32.2123680
  39.0707550  41.5159225  31.3745174  37.9120522  42.1840553  32.0357094
  39.1566696  41.5219154  32.9859467  36.8382416  35.1144257  34.8579597
  35.7027855  35.2656517  35.3932190  37.8828125  34.5864601  35.4931145
  39.2333565  34.5517426  35.0160637  39.6232147  35.5362473  34.7574883
  39.3469162  33.9623947  34.1061897  40.0309639  33.9936714  36.1875458
  40.4618874  34.6952858  36.9017906  40.8205147  33.4159508  35.7069778
  39.0579071  33.1750412  37.0596466  39.4534798  33.2554474  38.0721474
  39.0927467  32.1445427  36.7061501  37.7027321  33.8685570  36.7596664
  36.9248238  33.1185837  36.6164932  37.2813492  34.6996918  37.9802933
  36.6516533  34.0737953  38.8215828  37.5566444  35.9913635  38.0569496
  38.1991653  36.4045601  37.3962364  37.3595695  36.6736259  39.3448906
  37.8154411  36.0100327  40.0796852  38.0353203  38.0301094  39.4574089
  37.8271294  38.6458855  38.5824356  37.6576729  38.5811729  40.3186913
  39.6249428  38.0528107  39.5698395  39.9511909  39.0456963  39.8794212
  39.8636093  37.3240128  40.3444328  40.3493538  37.8028221  38.2964249
  41.5892334  37.8168297  38.3041191  39.7034760  37.5602798  37.2313118
  35.8861313  36.6975899  39.6861305  35.4672775  36.8822670  40.8214760
  35.0264130  36.5664139  38.6403465  35.3878441  36.6058044  37.6980553
  33.5432892  36.7289047  38.7117271  33.2994118  37.3675499  39.5606995
  33.0415497  37.3146057  37.2904205  33.4702377  36.7349434  36.4729080
  31.9517651  37.3351021  37.2837944  33.4074287  38.7859230  37.2324333
  33.4386864  39.2965240  36.0418472  33.4510803  39.4718819  38.2675552
  32.7729378  35.4257393  39.0850601  31.5385456  35.4880142  39.2301674
  33.4934654  34.3096390  39.2947350  34.4880829  34.3917770  39.1395416
  32.9709282  33.0239296  39.6473579  31.9407864  33.1028328  39.2999611
  33.7232361  31.8656406  38.9771652  34.7550697  31.8609104  39.3284492
  33.0373917  30.5195484  39.3805618  32.9796104  30.4133015  40.4638329
  32.0323601  30.4474125  38.9648628  33.6612511  29.6976395  39.0293312
  33.7610970  32.0424500  37.4451294  34.2780609  31.2536507  36.8986397
  32.7366333  31.8959980  37.1028900  34.3334198  32.9561958  37.2850914
  33.0520096  32.8576355  41.1452408  34.1111870  32.8765411  41.8117714
  31.9052715  32.6097183  41.7189064  31.1326103  32.4885216  41.0798378
  31.6991482  32.3461418  43.1343040  32.1653824  33.1590347  43.6910133
  30.2036953  32.4672165  43.4970398  29.6775990  31.6179790  43.0610199
  29.8900471  32.3740616  44.9508743  30.1876984  31.3953667  45.3272476
  30.3682652  33.1335869  45.5693665  28.8230190  32.4659729  45.1535912
  29.5165062  33.7301102  42.9261017  28.4916859  33.9107628  43.2504501
  30.1272640  34.6188774  43.0847511  29.5079575  33.6599159  41.8383980
  32.2057915  31.0069618  43.6285706  33.0429115  30.8781033  44.4771194
  31.8046627  29.9489136  42.9025574  31.2713432  30.1606846  42.0713997
  32.1365089  28.5314598  43.1148376  33.2034302  28.4482250  43.3218384
  31.5885410  28.0877457  44.4342995  31.7932072  27.0187721  44.4935341
  32.1389389  28.4737720  45.2922897  30.0666542  28.3086243  44.5797424
  29.8380604  28.1397896  45.6320457  29.7504616  29.3422432  44.4391479
  29.1863575  27.2592354  43.7886467  29.3542595  26.0504513  43.8858185
  28.1925354  27.7477169  43.0440788  27.4387493  27.1252632  42.7901840
  27.9577656  28.7295876  43.0138664  31.7351971  27.6956387  41.9299660
  30.9814129  28.1647396  41.0611763  32.0834160  26.4172592  41.9785576
  32.5475769  25.9803543  42.7619896  31.8353958  25.4253731  40.9759979
  30.9534225  25.6941204  40.3946228  33.0063019  25.5004749  40.0067062
  33.0297432  26.5253658  39.6363602  33.9599342  25.2913589  40.4914284
  32.9467430  24.4723778  38.8347244  33.0770607  23.5519371  39.4038506
  32.0209770  24.4711533  38.2593460  34.2472458  24.5286770  37.7610474
  33.7549591  26.0305614  36.8024826  33.8061256  26.8380585  37.5328407
  34.4996147  26.0942783  36.0090523  32.7537003  25.8439617  36.4142036
  31.6996975  24.0035591  41.6320724  32.1255379  23.7705479  42.7212143
  31.0774345  23.0754547  40.9206734  30.7619019  23.3913879  40.0147324
  30.9689007  21.6159878  41.1503410  31.7520256  21.3245945  41.8502731
  29.6288109  21.3281422  41.7957573  28.8332767  21.6036358  41.1034241
  29.5555229  20.2448082  41.8912811  29.4565964  21.8367653  43.2189445
  29.7297459  22.8916283  43.1913338  27.9939785  21.8758640  43.6207657
  27.3396416  22.4813328  42.9935875  27.6605225  20.8381405  43.6149826
  27.9604626  22.2435589  44.6463318  30.2775879  21.1380672  44.3480339
  29.6677990  20.2650776  44.5807266  31.3034534  21.0620880  43.9875755
  30.2030392  21.8906116  45.1330299  31.1151505  20.7605343  39.9080658
  30.7154980  21.1722469  38.7732887  31.6413326  19.5394917  40.1600113
  31.9271984  19.4360542  41.1231728  31.8295193  18.5539455  39.0372047
  31.1179810  18.8700714  38.2743950  33.2329369  18.6781960  38.3652382
  34.0933609  18.4840755  39.0056152  33.2357635  17.9364777  37.5665207
  33.4920883  19.9423866  37.5430756  32.5376663  20.4188900  37.3191986
  34.3348770  20.9094543  38.4423065  33.8190231  21.0889587  39.3855858
  35.2857285  20.4315739  38.6781311  34.6030388  21.8473396  37.9559326
  34.2004204  19.6867313  36.2739220  34.2445564  20.6242123  35.7195969
  35.1934357  19.2644157  36.4277649  33.7088280  18.9668636  35.6195374
  31.3643303  17.1369495  39.3618011  31.4246655  16.7522659  40.5558128
  30.9573765  16.3741245  38.4156761  31.0680981  16.7841206  37.4993019
  30.5556240  14.9819059  38.4195366  31.1406898  14.4869747  39.1946754
  29.1236801  14.9805164  38.8601532  28.8805256  13.9197483  38.7988930
  29.0409088  15.3500814  39.8822441  28.2219448  15.7877750  38.0936012
  27.3349743  15.7183180  38.4542389  30.8154621  14.2240658  37.1319542
  31.1924591  14.8753738  36.2046700  30.7392368  12.8908215  37.2297668
  30.5312366  12.3900290  38.0818558  30.6506538  12.0537481  36.0950890
  30.2758904  12.5711451  35.2119408  32.0797119  11.6787090  35.6833763
  32.6298256  12.5821648  35.4202309  32.5128975  11.0610428  36.4701042
  32.0827904  10.9345016  34.8869820  29.8612938  10.7882357  36.4062996
  29.5347137  10.3842955  37.5329895  29.3005791  10.1464796  35.3638916
  29.7113323  10.4282808  34.4852715  28.5008202   8.9434280  35.5346031
  27.7396202   9.1876822  36.2755547  27.7499561   8.4862700  34.3475456
  27.1634216   7.6595454  34.7483101  26.7714672   9.6204128  33.9102135
  27.2879639  10.5736036  33.7972336  26.3501415   9.4099445  32.9272118
  26.0526848   9.8202829  34.7048836  28.6455288   8.1076984  33.3118858
  28.4346142   7.1716437  33.3422127  29.3450108   7.8173275  36.1394806
  30.5432262   7.8046374  35.8303757  28.7944832   6.9046483  36.9532547
  27.4878578   6.9388599  37.5694504  26.7725620   6.3890672  36.9577484
  27.0996571   7.9509153  37.6840973  27.7132168   6.2333522  38.8988533
  26.7750397   5.9424582  39.3714104  28.4237137   6.8468595  39.4528389
  28.5445518   5.0645871  38.4243622  27.9386997   4.3594961  37.8552475
  29.0358906   4.5614820  39.2571716  29.5705681   5.8359065  37.5997162
  30.2697964   6.2999830  38.2952843  30.2339306   4.7347856  36.7669029
  30.7646065   3.7546999  37.3195114  30.1170883   4.8212433  35.4306526
  29.6518764   5.6831021  35.1839142  30.8296165   4.0510259  34.3726425
  30.8347168   2.9661458  34.4780388  30.3260841   4.4551754  33.0053253
  30.6561375   5.4687366  32.7775993  30.8015995   3.8891330  32.2043381
  28.8021603   4.4407821  32.8836136  28.2802753   3.2985957  32.5338364
  28.2609730   5.5694833  33.0120659  32.3698463   4.4450345  34.3840294
  33.1744461   3.5468154  34.3655434  32.6963272   5.7432818  34.3969727
  31.9112549   6.3787031  34.3991890  34.0447845   6.3077884  34.6636581
  34.6924858   5.6622744  34.0704498  34.0219231   7.8017478  34.1770134
  33.4550552   8.3768377  34.9091568  34.9940643   8.2281837  34.4243927
  33.5172768   8.2063427  32.7480659  32.4731216   7.9410863  32.5822983
  33.8546486   9.6780081  32.4881630  34.8695641   9.8632059  32.8399429
  33.8486671   9.8394775  31.4102077  33.0884399  10.2678604  32.9912453
  34.3567085   7.3479753  31.8447304  35.4055519   7.5602026  32.0520401
  34.2099838   6.2913756  32.0687180  34.1408844   7.5176926  30.7898769
  34.5191612   6.1605725  36.1399269  33.7799721   6.2686124  37.0891876
  35.8129272   6.0213132  36.2666779  36.3434067   5.9932308  35.4076653
  36.5715790   5.9855180  37.5585518  36.0850220   6.7380462  38.1790886
  36.3602905   4.5775332  38.1848602  35.3211784   4.2508893  38.1441460
  37.0279503   3.8850121  37.6722717  36.7606888   4.3875508  39.6078606
  37.7850189   3.5529439  40.0058632  38.5024490   3.1448631  39.4237404
  37.6574173   3.4103227  41.3507652  38.2978897   2.8161368  41.9856949
  36.5430107   4.0560980  41.7669983  36.2440987   4.0371323  42.7315674
  36.0770950   4.7384768  40.7001534  35.1064758   5.2106175  40.6629715
  38.0336456   6.4161654  37.4744186  38.6661530   6.3777122  38.5345573
  38.6088371   6.7877889  36.3024559  38.1009178   6.6327481  35.4433403
  40.0835762   7.0763245  36.1806946  40.6043701   6.2112627  36.5912323
  40.4150429   7.2050428  34.7303925  40.0818062   8.1416569  34.2834015
  41.4944649   7.1089859  34.6132393  40.0331917   6.3669271  34.1474266
  40.6313553   8.3180361  36.8522263  41.8322830   8.3690510  37.2716141
  39.8197289   9.3462992  37.0190468  38.8643188   9.2274933  36.7137794
  40.1995926  10.6297750  37.5749550  40.6531067  10.4159355  38.5427895
  41.1732254  11.3563271  36.5778198  41.8175507  10.5644684  36.1958466
  40.4500427  11.8508015  35.3077087  41.2133751  11.8996468  34.5311508
  39.6023293  11.2217455  35.0360985  39.9704132  12.8127365  35.4886589
  41.9632607  12.4856329  37.2696457  41.3336906  13.3304930  37.5488548
  42.3992958  12.0475769  38.1674652  42.7571793  12.8453903  36.6151466
  38.9364548  11.5836506  37.8446693  37.8880844  11.5419130  37.1914444
  39.0796661  12.3960361  38.8583488  39.8440094  12.1872845  39.4846916
  38.2762604  13.6417809  39.1283569  37.3312302  13.2428532  39.4969673
  38.9102745  14.3881035  40.2692223  39.9789429  14.4845934  40.0775528
  38.4269638  15.3587084  40.3807411  38.9559097  13.8713217  41.6550827
  37.7378960  13.4322796  42.2397804  36.8064728  13.5060549  41.6981087
  37.7868347  12.8741226  43.5232506  36.8895569  12.4652805  43.9638634
  38.9524803  12.7494364  44.2692337  38.9926262  12.2221003  45.2108803
  40.1656609  13.0950460  43.6714554  41.1197052  12.9133778  44.1438904
  40.1621666  13.7088470  42.4180717  41.1034088  14.0635366  42.0248032
  38.2352104  14.5196486  37.8474312  39.3256760  14.8388796  37.3768883
  37.0402603  14.9551344  37.3230362  35.7423286  14.4609299  37.7153358
  35.6752434  14.3887730  38.8008728  35.6285515  13.4372311  37.3586845
  34.7204323  15.2937689  36.9995079  34.4944839  16.1795635  37.5931549
  33.8387260  14.7505598  36.6594658  35.4266129  15.7462063  35.8017845
  35.0959091  16.7431030  35.5103569  35.4435349  15.0175228  34.9913330
  36.8804588  15.8958445  36.2744217  37.5781288  15.6702385  35.4679070
  37.3302269  17.3217373  36.7830849  37.7111893  18.1413422  36.0122871
  37.3991852  17.5996151  38.0783272  36.9499550  16.9691868  38.7270622
  37.8824539  18.8779259  38.6733742  37.2736778  19.6475163  38.1987991
  37.4346504  18.9034119  40.1635284  38.0779724  18.2088757  40.7037659
  37.6050873  19.8701172  40.6373825  36.4179993  18.5271244  40.2772484
  39.3273849  19.3464642  38.3942261  39.5360222  20.5490551  38.4281006
  40.2353401  18.4459915  38.0438957  39.8772392  17.5202637  37.8570824
  41.6607590  18.7399120  37.6540642  42.0464592  19.2420387  38.5413094
  42.5156403  17.5526409  37.2432976  42.1689262  17.1551342  36.2894211
  43.5169830  17.9829788  37.2283669  42.3698616  16.4514294  38.2699738
  42.1894722  16.9624710  39.2156982  41.6006088  15.7381372  37.9740410
  43.6592407  15.6084480  38.2647171  43.8549004  15.0318346  37.3606529
  44.5455704  16.1872597  38.5245132  43.4084167  14.6629210  39.4280739
  42.4688225  14.1278343  39.2904320  44.0621910  13.7961569  39.5250359
  43.4976196  15.3619423  40.7367439  43.1904449  14.8285856  41.5375404
  44.4797821  15.5330086  40.8986359  42.9443245  16.2028980  40.8189430
  41.7938652  19.7531071  36.5205078  42.5512619  20.6992130  36.5763168
  40.9689102  19.6114578  35.4591599  40.6569481  18.6538467  35.3832779
  40.9040260  20.3761253  34.2035332  41.9391823  20.4225483  33.8653069
  39.9189682  19.6642857  33.2299118  39.5831261  20.3629322  32.4636192
  40.5294266  18.8873959  32.7695961  39.0032768  19.3766804  33.7465248
  40.5072746  21.8100777  34.4168053  40.5577240  22.6292248  33.4424782
  40.1253471  22.2337589  35.5869560  39.9586639  21.5947571  36.3511505
  39.7073708  23.6021976  35.9420052  39.2435570  24.0173264  35.0472183
  38.6216621  23.6466370  37.0308456  39.0236893  23.3089714  37.9860725
  38.1339188  25.0549698  37.1615944  38.9594307  25.6547813  37.5448074
  37.7472992  25.3711357  36.1927490  37.3559685  25.1279888  37.9215736
  37.3665504  22.8315887  36.7008934  36.6216621  22.8141670  37.4964714
  36.8380013  23.4159088  35.9476967  37.4818268  21.7987652  36.3721313
  40.9273949  24.4258881  36.2575798  41.0979958  25.4378147  35.5361290
  41.9411392  24.0208473  37.0634003  41.6848640  23.1795464  37.5600243
  43.1593857  24.7792988  37.5150223  42.8134727  25.8059883  37.6348267
  43.6209641  24.4030037  38.9136314  44.4180450  25.0800419  39.2208557
  42.8127785  24.6889992  39.5867882  43.9062576  22.8875847  38.8669739
  43.0402031  22.2651920  38.6418533  44.6694756  22.6917686  38.1138115
  44.4907684  22.5011044  40.2391777  45.5348244  22.8026447  40.3236008
  44.0171165  23.0914230  41.0235825  44.4692879  20.9820137  40.5496330
  45.3237572  20.4451370  40.5078659  43.3938713  20.2712078  40.9436874
  42.1803665  20.7333202  41.1213112  41.5545731  19.9663277  41.3218346
  41.8920708  21.6663990  40.8637314  43.4437370  19.0357113  41.0524559
  42.6149864  18.4596825  41.0907326  44.3549385  18.6492443  40.8513260
  44.3271255  24.7718563  36.5563545  45.3454590  25.3585434  36.9310608
  44.1739044  24.1100368  35.4192200  43.4069023  23.4680710  35.2789040
  45.0008659  24.2841835  34.2869759  46.0572052  24.3117485  34.5543480
  44.8288040  23.0890961  33.2636070  43.9664421  23.1637611  32.6011429
  45.6995239  23.2040539  32.6180573  45.0164909  21.6477489  33.7566338
  45.5950317  21.6771927  34.6799583  44.0300903  21.2164974  33.9273529
  45.5970993  20.7853966  32.6857033  46.4929657  19.9729881  32.9180946
  45.1069221  20.8610821  31.5415859  44.8607941  25.5887718  33.4090996
  45.7225342  25.9194698  32.6478653  43.7763901  26.3338051  33.6539230
  42.9889030  25.9576607  34.1623344  43.5316277  27.6424122  33.0360832
  44.0324669  27.7988434  32.0806808  41.9690933  27.8046227  32.8477783
  41.4718666  27.4009399  33.7297668  41.7778473  28.8774605  32.8244324
  41.2275658  27.2634296  31.5794411  41.4966736  27.8477821  30.6995468
  41.6212006  25.8680954  31.2071819  41.7257004  25.1827335  32.0482826
  41.0235596  25.3977737  30.4263344  42.6445618  26.1047249  30.9159050
  39.7507019  27.2553596  31.9513359  39.4226151  28.2622337  32.2095261
  39.1193619  26.8071041  31.1841431  39.4827614  26.6493721  32.8168297
  43.9809914  28.7162552  34.0213776  43.7911987  28.5937786  35.1982422
  44.7067909  29.6549015  33.4374733  44.7659683  29.5870590  32.4314957
  45.3038788  30.7264271  34.0651703  46.1395912  30.3740845  34.6697693
  46.0524101  31.6025963  33.0015755  46.6256714  30.8630753  32.4424858
  45.4510612  32.1157150  32.2511177  46.8951225  32.5209846  33.6284599
  47.6355934  32.6808434  33.0387535  44.3483963  31.5545673  34.9894066
  43.3571701  32.0765038  34.4980507  44.6880188  31.6250820  36.2743759
  45.4494019  30.9867954  36.4559975  43.8408241  32.1951752  37.3786621
  44.3272171  32.4896355  38.3086166  43.4222794  33.1207352  36.9833679
  42.6023560  31.3161488  37.7803154  41.9835510  31.7088356  38.8067398
  42.1973572  30.2819462  37.0229797  42.7310371  30.0062656  36.2110138
  41.1108093  29.4081554  37.4602661  40.3431396  30.0468254  37.8971748
  40.5242615  28.5301819  36.3911705  41.3625984  28.1207047  35.8275871
  40.0231018  27.7611465  36.9789810  39.6329079  29.2372246  35.4037552
  40.0137253  30.1471500  34.4511108  41.0137634  30.5337601  34.3212624
  38.9190445  30.7467804  33.8356895  38.9468498  31.4345055  33.0965271
  37.7581825  30.2978458  34.4055290  36.3827629  30.5719795  34.2251930
  36.0044365  31.2930470  33.5157318  35.4824104  29.8086071  35.0128288
  34.4376450  29.8936329  34.7527542  35.8072777  28.9216633  36.0198936
  35.0580559  28.5489521  36.7026520  37.2246170  28.5934906  36.1445045
  37.4208870  27.9233246  36.9683723  38.1920929  29.2744617  35.4169617
  41.5737038  28.5545654  38.7090302  40.7743340  28.1196594  39.5135155
  42.8782921  28.4277153  38.9070129  43.6033134  28.7438793  38.2789307
  43.3263779  27.8014393  40.1745110  42.7437210  26.8814144  40.2210007
  44.8269997  27.4667912  40.0063782  44.9111595  26.6062298  40.6700478
  45.1540375  27.0866337  39.0385857  45.8418846  28.5765705  40.3528786
  45.6477928  29.1054249  41.2860146  46.8247223  28.1143875  40.4451637
  46.1020927  29.5777187  39.1852341  45.7841759  29.3373108  37.9855461
  46.7491837  30.7082882  39.5212860  46.7125511  31.3604584  38.7509384
  47.1471901  30.9711342  40.4115677  42.9293442  28.5610504  41.5133629
  43.4009094  28.1796646  42.5616951  42.0944023  29.6484642  41.4448471
  41.8355217  29.9369583  40.5121880  41.5472603  30.3723412  42.6253471
  41.9866524  30.0171928  43.5574951  41.9455414  31.8567505  42.5538902
  41.4736443  32.3706703  41.7164536  41.5304222  32.3090591  43.4545517
  43.4607849  32.1299286  42.5827179  44.2871666  31.6864166  43.6686401
  43.8259010  31.2127514  44.5226135  45.7145805  31.8046570  43.6177063
  46.3484459  31.3370590  44.3566055  46.2716866  32.4158592  42.4955902
  47.6587791  32.4927025  42.3555794  48.1603165  32.2261810  43.1295471
  45.5031242  32.9055519  41.4609718  45.8711281  33.4050713  40.5769730
  44.1210518  32.7055550  41.4835815  43.5161896  33.0726204  40.6676102
  39.9586258  30.4053726  42.7747078  39.4692841  30.8443203  43.8035851
  39.2839241  29.7451611  41.7765388  39.7934799  29.3759747  40.9865074
  37.8709412  29.2733974  41.7338982  37.2710953  30.1259747  42.0523262
  37.5076561  28.9796047  40.2750359  38.2963409  28.3399982  39.8788300
  36.1680336  28.1897697  40.1548119  36.3103638  27.1681881  40.5072594
  35.3996964  28.7119637  40.7249603  35.9282990  28.2416515  39.0927696
  37.4739914  30.3042564  39.4604454  38.4610329  30.7145710  39.2471657
  37.0628967  30.0475979  38.4841118  36.7912865  30.9621410  39.9982185
  37.6217918  28.0418129  42.5707245  38.1970482  26.9852104  42.3811035
  36.7684479  28.1948776  43.6115837  36.2391052  29.4166508  44.1204796
  35.2777710  29.6197472  43.6485786  36.8309288  30.3237038  43.9976120
  35.9981766  29.1010132  45.6564484  35.2227783  29.8160305  45.9314117
  36.9472542  29.1244717  46.1919861  35.5980644  27.6732121  45.6917305
  34.5344849  27.4677925  45.5704994  35.8595200  27.2510853  46.6620674
  36.4816475  27.0345497  44.6010056  37.3681259  26.6714306  45.1210022
  35.7516479  25.9017334  43.9286957  34.8477974  26.1659985  43.1408463
  36.0343132  24.6775913  44.2987938  36.7279625  24.5388222  45.0196953
  35.4682465  23.4700260  43.6199455  34.4420662  23.7355003  43.3658257
  36.2213287  23.1546440  42.3028870  36.3314781  24.1104965  41.7907219
  37.6066933  22.5971432  42.5361137  37.5036659  21.6766186  43.1106758
  38.0967598  22.2609634  41.6223755  38.2063332  23.3360386  43.0676842
  35.4406509  22.1462231  41.3894577  35.7442894  21.1298141  41.6401138
  34.4099617  22.3352299  41.6895561  35.7353477  22.2276192  40.3432121
  35.4232597  22.2179031  44.5607262  36.2330589  22.0781422  45.4716530
  34.5359764  21.2194996  44.3453178  33.7935867  21.4138374  43.6886635
  34.4524841  19.9301014  44.9784660  35.4775314  19.5723839  45.0755386
  33.7873268  19.9289722  46.3471947  32.7209473  20.0965405  46.1960144
  33.9249878  18.6414032  47.1042938  33.1403847  17.9445953  46.8094101
  34.9009399  18.2464733  46.8220711  33.7852097  18.7562847  48.1791801
  34.3467255  21.0165291  47.0481148  35.0228310  21.4163914  46.4962196
  33.8472939  18.8568573  43.9896164  32.9772644  19.2633877  43.1966286
  34.1217041  17.5300827  44.1147614  34.7598724  17.2879772  44.8592224
  33.6127281  16.5391941  43.1825752  33.3883400  17.0918846  42.2702789
  34.7553940  15.5927296  42.9629631  35.1621819  15.3582821  43.9466591
  34.3937988  14.7228355  42.4146614  35.9816246  16.4020672  41.9270668
  36.5270538  17.0116100  42.9834099  32.4524498  15.7930784  43.9574051
  32.5428391  15.2666826  45.0500221  31.3008270  15.7988997  43.3063354
  31.2968750  16.2168846  42.3868942  30.0727081  15.1120081  43.7342606
  30.1628551  14.7587299  44.7614746  28.9406261  16.1497478  43.6303291
  28.0591698  15.5957232  43.9531212  29.1859818  16.9782600  44.2947578
  28.6996765  16.7403145  42.2086067  29.7003956  17.0621758  41.9203873
  28.3716679  15.9123411  41.5801392  27.4907246  17.9330654  42.1489487
  27.6791935  18.3747501  40.4062347  28.7213554  18.4337578  40.0923538
  27.1025352  17.5953026  39.9082108  27.2414284  19.3547478  40.2163162
  29.6650963  13.8633614  42.9099236  29.6691189  13.8613739  41.6716042
  29.1631527  12.9070654  43.6601906  29.0617752  13.0424175  44.6559334
  28.7294064  11.6157856  43.0972595  29.5581779  11.1853580  42.5351486
  28.3932590  10.6757584  44.2589188  29.2155857  10.8198385  44.9597168
  27.4913177  11.0815792  44.7170906  28.1279640   9.1908484  43.9029961
  27.6374512   8.7483492  44.7700005  27.3653507   9.1810112  43.1242638
  29.3686562   8.5281906  43.3111038  30.5060673   8.9247265  43.4366493
  29.3361645   7.3311453  42.8042984  28.4411449   6.9125872  42.5948868
  30.1330051   6.9409609  42.3217010  27.4930935  11.9043522  42.2249870
  26.5199127  12.5262728  42.7561989  27.3902626  11.3557377  41.0127258
  28.1951084  10.9505424  40.5565033  26.1743908  11.3387117  40.1833725
  25.6736164  12.3041534  40.2558022  26.5947151  10.9849300  38.7282677
  27.4225101  11.6730099  38.5568047  26.9663010   9.9635057  38.6462364
  25.5593987  11.3471632  37.5969200  25.9161816  10.9085779  36.6650200
  24.5903549  10.8809042  37.7748451  25.3779984  12.8752155  37.4587936
  25.6724377  13.5424232  36.4729156  24.8411407  13.4010134  38.4887238
  25.2436066  10.2104912  40.8143921  25.7174854   9.1616583  41.2576904
  23.8719902  10.3864107  40.8188477  23.5593414  11.2764730  40.4580994
  22.9855156   9.2583380  40.9922752  23.0068398   8.8250160  41.9922142
  21.4795952   9.6289196  40.8266258  21.4069939  10.1637354  39.8796310
  20.9197788   8.7002707  40.9376068  20.9861717  10.5359058  41.9037094
  21.0500679  10.0716047  42.8878021  21.6210384  11.4217377  41.8851051
  19.3336868  11.2292538  41.7596550  18.3838806   9.8103170  41.3526306
  17.3701935  10.1658392  41.1678429  18.5646019   9.1787062  40.4828568
  18.4887962   9.1397438  42.2055244  23.3355961   8.1782751  39.9225731
  23.1705303   8.5106325  38.7319984  23.5527058   6.9032192  40.2846832
  23.5958691   6.6809597  41.2689781  23.6365814   5.7591057  39.3903160
  24.3559704   6.0244026  38.6155853  24.1117325   4.5462027  40.2285004
  25.0398102   4.7089615  40.7764816  23.3875809   4.3009291  41.0053902
  24.3017998   3.2988071  39.3547020  24.4604149   2.1693368  39.9183922
  24.1550159   3.3058164  38.0904617  22.2287483   5.4077535  38.7412109
  21.3242035   4.8334451  39.3845291  21.9060154   5.8843307  37.5152206
  22.6101952   6.3421440  36.9542923  20.5662384   5.6309614  36.8658829
  19.8347416   5.3380375  37.6190224  19.9525948   6.9411807  36.3185539
  20.6675682   7.2576890  35.5591202  18.5997829   6.7681131  35.6930313
  18.8357201   6.2300129  34.7749405  17.8493862   6.3572569  36.3684578
  18.1644096   7.7290449  35.4188805  19.7706909   7.9243016  37.5055122
  19.4025192   8.8742876  37.1181145  19.1018829   7.5175781  38.2640457
  20.6818485   8.1470757  38.0607262  20.7296333   4.5812035  35.7713432
  21.5233822   4.7849712  34.8505440  19.9461002   3.5387909  35.8476601
  19.2137241   3.5805783  36.5419083  20.0442219   2.2812150  35.0293922
  21.0957508   1.9945313  35.0153008  19.2413540   1.0859526  35.6048050
  18.1751690   1.2581639  35.4575233  19.6037045  -0.2613211  34.9416885
  19.0781879  -0.2690508  33.9867706  20.6677494  -0.4188136  34.7653236
  19.2520905  -1.1052269  35.5352287  19.5380802   1.1567608  37.0165749
  20.4915085   1.2366652  37.0952339  19.6156483   2.5732210  33.6041946
  20.3004513   2.2348564  32.6853218  18.5628376   3.3427296  33.4846420
  17.9387684   3.4708142  34.2683716  18.2352161   3.9759552  32.2011070
  18.4166794   3.2293994  31.4279137  17.1929092   4.2875094  32.1330490
  18.9840240   5.2507195  31.7203999  18.5581131   5.8119831  30.6707172
  19.9306297   5.7627664  32.4667892  20.3222809   5.2275887  33.2285614
  20.6143780   7.0419788  32.2209740  19.8810616   7.7477140  31.8307381
  21.1353703   7.3694725  33.1206512  21.8024464   6.9795547  31.2186203
  22.0980701   5.8838010  30.6972179  22.4388771   8.0991983  30.7946014
  22.1357422   8.9767132  31.1923199  23.6163769   8.1618023  29.9546909
  23.3731441   7.6711740  29.0122356  23.9993553   9.6281633  29.6080647
  23.6163235  10.2962990  30.3794155  25.0816593   9.7544689  29.6357193
  23.5621395  10.1066704  28.2523537  23.7283268   9.3448906  27.4906635
  22.0665684  10.4598732  28.2380028  21.8742275  10.6511412  27.1822968
  21.5823441   9.5442657  28.5775471  21.7677822  11.3199835  28.8372040
  24.3184719  11.3352070  27.7149029  23.8753223  11.4729872  26.7286282
  24.0967159  12.2225838  28.3077660  25.3988628  11.1907902  27.7176304
  24.8255291   7.3493390  30.5208359  25.1116753   7.3098140  31.6860867
  25.6485767   6.8022628  29.5694904  25.2666893   6.6104846  28.6543484
  26.8751774   6.0408764  29.8237686  26.8918095   5.7054906  30.8607559
  26.9702415   4.8317504  28.8803692  26.7483349   5.1629419  27.8658886
  27.9296989   4.3267407  28.7685356  26.0971298   3.6471074  29.3832722
  26.2007618   2.8631542  28.6330872  26.5392590   3.3155394  30.3227882
  24.6355000   3.9428980  29.6975822  24.4826756   4.6576643  30.5061951
  24.0992546   4.1743383  28.7772675  23.9003048   2.7907851  30.2115898
  23.9022598   1.9279301  29.5455723  24.4932976   2.4488378  31.0598469
  22.5468998   3.1441705  30.5676842  21.9682865   2.3217278  30.6619968
  22.4881020   3.6677709  31.4293633  22.1072102   3.6687465  29.8249912
  28.0430470   6.9960442  29.6245632  27.9584579   7.8444681  28.7287235
  29.1375923   6.7741046  30.3843880  29.0222797   6.0684652  31.0977440
  30.4134312   7.5336828  30.2574997  30.8854733   7.5013852  31.2394543
  31.3383026   6.8540878  29.2000084  30.8698349   7.0502505  28.2355595
  32.2484512   7.4536061  29.2175922  31.6455193   5.3339143  29.4301167
  32.0749550   5.2378082  30.4273376  30.7780418   4.6846852  29.3114452
  32.5459709   4.7917371  28.3309593  32.0262871   4.9783230  27.3911648
  33.4769669   5.3582439  28.3513889  33.0485954   3.3808558  28.4083729
  33.7587662   3.2973402  27.5857029  33.5108109   3.2531314  29.3872204
  31.8861275   2.4427078  28.1572914  32.2556000   1.5344315  28.3994160
  31.0847569   2.6497884  28.7361088  31.5523376   2.4078686  27.2046795
  30.2542343   9.0369320  29.9479866  30.7691441   9.6368351  29.0122929
  29.4747295   9.6978159  30.8432846  29.1669750   9.2939672  31.7163792
  29.1857853  11.1318560  30.7126522  29.5077286  11.5393763  29.7543240
  27.6722202  11.3035231  30.7993927  27.2191010  10.6563444  30.0484295
  27.2826328  11.0015574  31.7715740  27.1099968  12.9981289  30.5209751
  26.2059307  13.0646009  31.5023727  29.9334564  11.9649744  31.8355160
  30.0977631  11.4412508  32.9889183  30.3126907  13.2792454  31.6085835
  29.8509369  13.7145090  30.8228168  30.8455105  14.2808084  32.5252838
  30.8363209  13.9629183  33.5678596  32.3153381  14.5261126  32.1982269
  32.2774124  14.9642010  31.2008553  32.9755669  15.6479273  33.0328407
  32.5684586  16.6460762  32.8714409  33.1315193  15.2762995  34.0455971
  33.9848328  15.7254353  32.6285248  33.1480255  13.2131062  32.0252724
  33.7431831  12.8856745  32.8777275  32.4572487  12.3891296  31.8464069
  34.1268692  13.3476448  30.8647346  33.5771561  13.6265545  29.9657726
  34.7820282  14.2127886  30.9666843  34.7065811  12.4401436  30.6959934
  29.9835205  15.5743322  32.4323616  29.3978119  15.7767506  31.3523331
  29.8554344  16.2834663  33.5573807  30.2985649  15.8343687  34.3460808
  29.0365200  17.4231739  33.8198586  28.9619713  17.9479427  32.8674088
  27.6556530  17.0941048  34.2962914  27.7490692  16.6443653  35.2847824
  27.0887928  18.0243473  34.3339233  26.7779789  16.2042999  33.3616676
  26.9553928  16.4185276  32.3077583  27.1701813  15.2035675  33.5428391
  25.2885551  16.2354660  33.7174034  24.8783035  17.2395248  33.6094284
  24.8236752  15.5595026  32.9997215  25.0300350  15.8336372  35.1118813
  25.7224369  15.2331886  35.5363121  24.0123520  16.1699009  35.8218079
  23.1890259  17.1321220  35.3940659  22.2442474  17.2421780  35.7337418
  23.3806496  17.4633961  34.4593773  23.6973782  15.5139532  36.9040337
  22.7834606  15.6523485  37.3110962  24.2412357  14.6734371  37.0376472
  29.6844025  18.3757782  34.8177147  30.5815392  18.0245209  35.6033134
  29.2204437  19.6149578  34.7981148  28.3481064  19.8197308  34.3320732
  29.7641697  20.7960854  35.4642601  30.1485977  20.4717503  36.4312782
  30.9480667  21.3932266  34.6881866  31.7452774  20.6630859  34.5487061
  30.4548454  21.8196640  33.3055496  29.9618816  21.0245228  32.7462311
  29.7579117  22.6305084  33.5174751  31.3045616  22.1507187  32.7084808
  31.6030655  22.6221581  35.3176308  31.7617950  22.5782661  36.3951225
  32.5725136  22.8223019  34.8613281  30.9830513  23.5099754  35.1932831
  28.6405754  21.7349529  35.8265190  27.6036587  21.7720356  35.1467171
  28.7994747  22.4685345  36.9625702  29.5096397  22.1713676  37.6163712
  27.9433022  23.6572628  37.2813301  27.6208916  24.0846577  36.3318634
  26.7194786  23.1956615  38.1189079  25.9984684  22.6350822  37.5239334
  27.0162582  22.5466480  38.9428024  25.9604168  24.3685760  38.6624756
  26.5077343  24.7035427  39.5435753  26.0583744  25.1536160  37.9126625
  24.1893482  24.2994919  38.9296570  23.7478371  25.9825993  39.1220016
  24.3830452  26.4838963  39.8522911  23.8767643  26.3616924  38.1082115
  22.7527466  26.0342350  39.5638466  28.8268433  24.6725311  38.0495148
  29.3940716  24.2777920  39.0380325  28.7537518  26.0070133  37.7429390
  28.2020531  26.2040997  36.9202080  29.3168011  27.0502357  38.5146904
  29.5855865  26.6826725  39.5050240  30.5425663  27.5645504  37.7585220
  31.1019440  28.3800373  38.2169724  31.2119541  26.7050610  37.7947235
  30.3852463  28.1127472  36.4176445  30.1060848  27.3111782  35.7337914
  29.5715675  28.8367500  36.4606209  31.8482361  28.9367237  35.6710777
  31.5107136  28.6641464  33.9189262  30.4792385  28.9028282  33.6597176
  32.3341866  29.0074883  33.2927399  31.4312286  27.5961094  33.7162437
  28.3257713  28.2598133  38.6257133  27.2227306  28.1663227  38.0769539
  28.6238956  29.2887745  39.4589844  29.4025536  29.1422024  40.0853310
  27.8324165  30.4512825  39.7433357  27.1030445  30.4873600  38.9341278
  27.0495243  30.3055363  41.0536613  26.2974224  31.0940514  41.0798607
  26.1899223  29.0603809  41.0011978  26.6809063  28.1302586  40.7150002
  25.7453613  29.0073185  41.9950027  25.2814426  29.1779957  40.4104919
  27.8498993  30.3216801  42.1408424  27.4599781  31.0162773  42.6766586
  28.6533337  31.7400608  39.6757240  29.7384624  31.8599167  40.1577835
  28.1915703  32.7492142  38.9226875  27.1984921  32.7535515  38.7386284
  28.9698868  33.8071709  38.3088684  29.9627743  33.8136520  38.7585678
  29.2023830  33.4369392  36.8165932  28.3370743  33.5713387  36.1675339
  30.2505379  34.2974930  36.0354156  31.1653290  34.3550072  36.6252785
  30.3823910  33.8177452  35.0655937  29.8679066  35.3085442  35.8958626
  29.4843369  31.8981342  36.8164062  28.5813885  31.2875938  36.8112221
  29.9949093  31.6239071  35.8932533  30.2337265  31.6129856  37.5547867
  28.2563763  35.2121849  38.2726822  27.1043835  35.2989693  37.8583336
  28.9078712  36.2431602  38.7385101  29.8068447  35.9904633  39.1233330
  28.4602890  37.6524239  38.5163803  27.3953190  37.6768608  38.7473297
  29.2316971  38.7010345  39.3689919  29.1726952  38.2868881  40.3755226
  30.3071365  38.7821121  39.2110138  28.6441498  40.1596451  39.2959557
  28.9763584  40.7760201  38.4605980  27.5590897  40.0872993  39.2217026
  28.8479843  40.9539413  40.5618477  27.8541622  41.2350922  41.1808357
  30.0470695  41.2261505  40.9312172  30.1898861  41.7737465  41.7677841
  30.8187485  41.0331535  40.3088341  28.5229416  38.0986252  37.0034294
  29.5129642  37.8622818  36.3027496  27.4799709  38.7557564  36.5086823
  26.5828819  38.7507896  36.9726944  27.2155228  39.2241898  35.1941566
  27.9970398  39.9496994  34.9684029  27.2646160  37.9864197  34.1957626
  28.3081932  37.7041473  34.0565605  26.4886627  36.7762184  34.7018204
  27.0931816  36.2230034  35.4205818  25.6349678  37.2084885  35.2237854
  26.1100006  36.2167206  33.8464394  26.7391090  38.3316307  32.9417801
  27.3285103  39.0326500  32.6540718  25.9086151  40.1435013  35.0940170
  25.0757866  39.9609566  35.9925041  25.7777214  40.9965210  34.0787849
  26.4785271  41.1090889  33.3602448  24.4583740  41.6292953  33.8043633
  23.8904781  41.7945595  34.7199402  24.6417160  42.9941597  33.2030411
  23.6595440  43.4639053  33.1503334  25.1145020  43.6678009  33.9177322
  25.1815720  43.0945549  31.7801685  25.6033726  42.1396179  31.1119270
  25.2499237  44.2884979  31.3951073  23.5267067  40.7293320  32.9548454
  22.4111099  41.1128883  32.8344955  23.9889565  39.6256104  32.3462715
  24.9436111  39.3837776  32.5704422  23.2130032  38.8690300  31.3934326
  22.8878822  39.5472374  30.6044884  24.1855507  37.8566856  30.6879120
  24.6339569  37.1298447  31.3652115  23.3649406  36.9803085  29.7588825
  22.7809486  36.2772484  30.3528194  22.8111115  37.5973816  29.0513573
  23.9482250  36.3301239  29.1068573  25.2417488  38.6836624  29.8700924
  25.8723488  39.2280655  30.5729980  25.8186302  37.9868622  29.2619953
  24.7275581  39.4111824  29.2420635  22.0392170  38.1651459  32.0718269
  22.2577152  37.4847603  33.0957909  20.7883282  38.1912880  31.5694160
  20.3401566  39.2251968  30.6337395  20.5728645  38.8164101  29.6504574
  20.7117176  40.2426414  30.7555962  18.8232594  39.1899986  30.6741962
  18.2701054  39.4353256  29.7675896  18.4787292  39.8651543  31.4575005
  18.5193157  37.7861710  31.1628056  18.4985714  37.0863953  30.3273525
  17.6577282  37.6779060  31.8216362  19.6917725  37.3927460  32.0949097
  19.3538628  37.7294846  33.0749741  19.8056526  35.8866310  32.1418381
  20.5150280  35.2079239  31.4095802  18.9139118  35.3829155  33.0859566
  18.4744015  36.0669861  33.6851044  18.7684746  33.9447670  33.3771896
  19.5985756  33.6151962  34.0020218  17.4530640  33.6827583  34.3003540
  17.4145412  34.4454193  35.0781479  16.5725822  33.5533943  33.6709747
  17.6462021  32.2995682  35.0027618  17.5777111  31.4831829  34.2837830
  18.5433502  32.3048820  35.6217918  16.4412498  31.9753571  35.8983269
  15.4683695  31.3973522  35.4980774  16.4166527  32.3822975  37.1331863
  17.0268345  33.0587120  37.5693550  15.5605965  32.1285858  37.6053162
  18.7127457  33.0848770  32.1842918  19.3136578  31.9847050  32.2655334
  17.8995399  33.4543037  31.1700401  17.4994411  34.3814850  31.1888199
  17.6633873  32.6445274  29.9820786  17.6155186  31.5908909  30.2571526
  16.2845440  33.1000061  29.3721104  16.0589962  32.3925629  28.5741444
  15.5736933  32.9315910  30.1810760  16.0962486  34.5994530  29.0332737
  16.4442844  35.4857216  29.8856850  15.5996475  34.9557915  27.9085941
  18.7021027  32.8287926  28.9372044  18.9167824  31.9538765  28.1611938
  19.3677063  33.9532776  28.9455338  19.0992832  34.6317825  29.6438732
  20.3769016  34.2577477  27.9001408  20.0311756  33.7825813  26.9820976
  20.3648720  35.7489471  27.4966888  20.7846336  36.3861122  28.2750988
  20.9996605  35.7237740  26.6109619  19.0053864  36.3710785  27.1253872
  18.3843594  36.1657219  27.9973145  19.0988865  37.4468422  26.9767818
  18.4026909  35.6386757  25.8486652  18.9698868  35.5874443  24.8100071
  17.1580639  35.3472404  25.7983952  16.5485439  35.4038925  26.6017494
  16.7359715  35.0342903  24.9358406  21.7705555  33.6906509  28.2760563
  22.6467686  33.8265419  27.4604263  21.9406166  33.1773148  29.4640350
  21.1999607  33.2989311  30.1398602  23.1385937  32.3809929  29.8259087
  23.9967346  33.0251045  29.6340485  23.0616322  31.8123379  31.2617569
  22.1680870  31.2134647  31.4379082  24.2357998  30.8739529  31.6559963
  25.1807938  31.3462486  31.3876286  24.1614990  30.7495041  32.7363167
  24.1110001  29.8724213  31.2443390  23.0107841  32.9184151  32.3446388
  22.0951977  33.5040550  32.2619934  22.8293800  32.4509735  33.3124657
  24.2299252  33.8224411  32.4743614  25.1507015  33.3171921  32.7659035
  24.3395290  34.2578621  31.4811382  24.0805073  34.6390610  33.1807022
  23.2233868  31.1924419  28.8725853  22.2536697  30.4908447  28.6541271
  24.3712769  31.0126858  28.2079163  25.1807575  31.5034618  28.5600243
  24.6589680  29.8511295  27.3148041  23.6895542  29.6840973  26.8452969
  25.7428246  30.4229870  26.3534412  26.3568268  31.1451511  26.8915672
  26.3446064  29.5998116  25.9682865  25.0760860  31.2030659  25.2489395
  24.3748589  30.5651207  24.7109737  24.6643867  32.0472260  25.8021030
  25.9658718  31.7117271  24.1626549  26.7726746  32.2251854  24.6856575
  26.2327213  30.8545780  23.5444393  25.3097763  32.7101784  23.3010902
  24.8458595  33.4976959  23.7308540  25.8702259  32.9603920  22.1334610
  26.9201927  32.3174362  21.6990833  27.3048210  32.5298462  20.7896633
  27.3029823  31.5029373  22.1575222  25.3680649  33.8747215  21.3996429
  24.4261665  34.1972084  21.5697327  25.8620548  34.1313210  20.5568905
  25.0553913  28.6629848  28.1547394  26.1241856  28.7790051  28.7370129
  24.2827682  27.5668621  28.1709938  23.4126568  27.4836159  27.6649551
  24.8192997  26.3280373  28.7923069  25.5557842  26.6206436  29.5406876
  23.6656914  25.7175369  29.5612488  22.9502201  25.3044415  28.8502254
  23.9484253  24.8672409  30.1818600  22.9211864  26.6399937  30.5471306
  23.4306259  26.9339104  31.8147793  22.5362339  27.7314472  32.4047623
  22.7915974  28.2687378  33.3061562  21.5357647  27.9598846  31.5461884
  20.6791573  28.4193764  31.8203964  21.7320175  27.1939754  30.4403172
  21.1468201  27.1112480  29.5363808  25.3521690  25.3694305  27.7582970
  24.7716179  25.2593479  26.7160721  26.5219364  24.8296738  27.9138947
  27.0317135  24.8564529  28.7853947  27.2700462  24.1578121  26.8366585
  26.9257584  24.5049686  25.8624668  28.7215557  24.5574570  26.7332687
  29.1754742  24.2811604  27.6849613  29.4645424  23.7263508  25.6631355
  30.4492340  24.1764545  25.5370445  29.6197109  22.6892986  25.9607048
  28.8985271  23.6980877  24.7320461  28.9824257  26.0436401  26.4638062
  30.0236187  26.2932587  26.6680241  28.7044582  26.3126984  25.4447670
  28.3079910  26.6480389  27.0703793  27.2284317  22.5934334  26.9104843
  27.5264416  21.9936447  27.9025669  26.8009224  21.9321098  25.8225479
  26.7675381  22.4776173  24.9731922  26.6371994  20.4939384  25.6908398
  27.0466137  19.9572945  26.5466976  25.1336136  20.1778812  25.7493935
  24.5557384  20.7606087  25.0320454  24.9582863  19.1279755  25.5147476
  24.4411449  20.5023403  27.0159912  24.1840534  19.4773388  27.9199429
  24.5621510  18.4962540  27.6731319  23.5191898  19.8098679  29.0913162
  23.2484722  19.0293560  29.7869549  23.1955528  21.1394863  29.4257393
  22.6413517  21.3946037  30.6247787  22.2315903  20.6106720  30.9978046
  23.5497074  22.1740646  28.5571823  23.4962311  23.2324314  28.7655125
  24.0611858  21.8070488  27.3132095  24.3971233  22.6276169  26.6965961
  27.2228088  19.8980808  24.4134579  26.8173656  20.3649445  23.3535576
  28.2668114  18.9952888  24.5292797  28.4018002  18.6851730  25.4809666
  29.1218834  18.5502720  23.4691200  28.7019424  19.0353622  22.5879631
  30.5681000  19.0138340  23.6799793  31.1707916  18.3303337  24.2780514
  31.0112686  18.8193226  22.7033176  30.7674732  20.5021591  24.0833416
  30.2167568  20.6673851  25.0093613  32.2037430  20.8575935  24.3253403
  32.2488213  21.8977432  24.6480865  32.5611458  20.1325169  25.0565224
  32.8224754  20.7065964  23.4407673  30.2884235  21.4657307  22.9724522
  29.2307224  21.2965546  22.7706165  30.5412960  22.4470425  23.3739300
  30.8390083  21.2878513  22.0487022  29.0488205  17.0377865  23.2741585
  28.4245758  16.3139172  24.0343571  29.6699810  16.4688511  22.2419167
  30.2502842  17.0478401  21.6518974  29.8246384  14.9918900  22.1139870
  30.2938881  14.8906841  21.1353855  30.8672924  14.3524065  23.0324211
  30.4600658  14.2961912  24.0419292  31.0746422  13.3830147  22.5792274
  32.1793709  15.1033344  23.2283115  31.9175949  16.1171398  23.5312576
  32.8135223  14.5511408  23.9218788  33.0152168  15.1346235  21.9158516
  33.8978043  14.3308105  21.8045750  32.8879890  16.0416698  21.0080719
  28.4344463  14.2505178  22.0324593  27.6209049  14.5779076  21.2380867
  28.2369270  13.0981884  22.8208485  28.8396645  12.8552341  23.5940113
  26.8924103  12.5331831  22.9805717  26.2904224  12.8520651  22.1296749
  26.9778557  11.0040550  23.1458874  27.5211277  10.8402081  24.0765381
  26.0155907  10.4946346  23.1972408  27.7551270  10.3230629  21.9949417
  27.2422695  10.3741188  21.0344868  28.7046452  10.8439894  21.8718605
  28.0603504   8.8659353  22.3001423  28.6474037   8.8212452  23.2174606
  27.1238480   8.3084545  22.2834949  28.9954338   8.3829432  21.1863213
  28.5548382   8.4791679  20.1939907  29.8248825   9.0900040  21.1997433
  29.5572128   6.9825039  21.4101467  29.6093845   6.4796777  20.5357647
  30.4790192   6.9546156  21.8219719  28.8941765   6.4191337  21.9230747
  26.0358219  13.0842466  24.0759621  24.8621063  12.7225847  24.0453644
  26.5283966  13.9590664  24.9333477  27.5012455  14.2087355  24.8269024
  25.6812344  14.8349295  25.7773914  25.0037136  14.2853756  26.4308949
  26.5913315  15.5815039  26.7152748  26.8465290  14.9153147  27.5393867
  27.4558430  15.9990702  26.1991730  26.0599442  16.3958454  27.2077961
  24.7915516  15.9042082  25.0959110  23.9772797  16.5655098  25.7463436
  24.8374195  16.0304947  23.7416801  25.5140877  15.4404840  23.2789612
  23.8973484  16.9330978  23.0025311  23.9393368  17.9479084  23.3981228
  24.1621399  16.9556084  21.4460659  23.4027100  17.5824852  20.9787331
  25.4768867  17.6386414  21.1276417  25.3503571  18.6977673  21.3519955
  26.2680054  17.2760124  21.7839413  25.7342472  17.6002922  20.0691509
  24.1823101  15.5658398  20.8589859  24.2000103  15.5862579  19.7693176
  25.0246525  14.9582729  21.1897793  23.2057648  15.1469507  21.1018658
  22.3686676  16.6984215  23.1849480  21.5267944  17.5648899  23.1647701
  22.0130711  15.4594707  23.6114273  22.7169113  14.7463951  23.7388306
  20.6448689  15.0715275  24.0552616  19.9173050  15.1857748  23.2517071
  20.5861626  13.5584116  24.4552383  19.6007519  13.2242546  24.7799187
  21.0118008  12.6364870  23.2477188  20.6470966  11.6093788  23.2358932
  20.5373077  13.0874023  22.3761501  22.1003036  12.6844482  23.2167244
  21.4939518  13.1932230  25.5615749  22.4821396  13.6156902  25.3796215
  21.0324669  13.6355467  26.4444599  21.5102444  12.1035805  25.5842609
  20.0701885  15.8817396  25.2732353  18.8830109  16.1145287  25.3578587
  20.9481525  16.2338200  26.1352692  21.9205170  16.2074070  25.8634052
  20.5944405  16.9520149  27.3944283  19.6364326  16.6524048  27.8193474
  21.7118969  16.8183575  28.4151821  22.5875568  17.3329182  28.0195236
  21.4079666  17.2763462  29.3564434  22.2030964  15.3981647  28.7912140
  22.6090469  14.8463602  27.9433842  23.4791241  15.4574785  29.6247215
  24.3194599  15.8446569  29.0484924  23.3498878  16.2407436  30.3716450
  23.6975594  14.4776430  30.0493507  21.0737038  14.5568457  29.4875183
  20.2928104  14.3813257  28.7475948  21.3941593  13.6093245  29.9206619
  20.5583286  15.1395245  30.2510452  20.4979992  18.5299015  27.1859703
  20.0977993  19.2451820  28.1249638  20.8309422  19.1077385  26.0178032
  20.9980755  18.5084534  25.2221756  20.7326679  20.5617123  25.8210468
  21.4266777  21.0475388  26.5069275  21.2376804  20.8151016  24.3625603
  22.1804504  20.3079395  24.1574345  20.4511032  20.5117874  23.6716213
  21.5257626  22.3105736  24.2289371  20.6841736  22.9319096  24.5351601
  22.3821087  22.5958729  24.8399811  21.9007282  22.5485935  22.7156677
  22.2454948  23.5700989  22.5551529  22.7211227  21.8427696  22.5857944
  20.8311272  22.2753811  21.7257118  19.8970699  22.5931492  21.9417229
  20.9375381  21.6829433  20.6063480  22.1064892  21.2138309  20.2602024
  22.9101620  21.4823093  20.8098717  22.2079964  20.5419827  19.5129299
  19.8909435  21.4274654  19.9432487  19.0086288  21.6622868  20.3750858
  19.9146614  20.6996174  19.2434120  19.3419914  21.1678371  26.0231266
  18.3662701  20.5370884  25.5407352  19.2160301  22.3346786  26.6120510
  20.1675568  23.2096310  27.1544609  20.1641197  24.0578842  26.4699478
  21.2220268  22.9365311  27.1945572  19.6361504  23.7109451  28.5204544
  20.1582413  24.5932312  28.8907146  19.7525635  22.8006630  29.1086216
  18.1516247  23.8011589  28.1763573  17.9930649  24.8206234  27.8247147
  17.5937500  23.6559906  29.1014519  17.8421001  22.7113094  27.1278954
  17.4336758  21.9205093  27.7571220  16.8434181  23.1685867  26.0548954
  15.6819038  22.7423210  26.0995216  17.2747459  24.0320473  25.1300869
  18.1625271  24.5109196  25.1813507  16.4596539  24.5492897  23.9922867
  16.9461575  25.4282913  23.5694714  16.3792419  23.4975052  22.8286514
  15.9965115  22.5469742  23.2002792  15.7709436  23.8863201  22.0120144
  17.7164726  23.2818394  22.1472454  18.6680298  24.0571899  22.4264660
  17.7618542  22.3519611  21.2886047  15.0174618  25.0184498  24.5188007
  14.0572853  24.6307392  23.8823490  14.9835091  25.9139194  25.4996719
  15.9153910  26.0849819  25.8495789  13.7197866  26.2496243  26.2611237
  13.1741152  25.3062382  26.2804413  14.0963802  26.6084232  27.7002316
  14.7405491  27.4644623  27.4993801  13.3378057  27.1423607  28.2725735
  14.7963295  25.5477829  28.4792042  15.6930332  25.2109566  27.9590397
  15.2089815  26.1218204  29.8815022  14.3217802  26.4024906  30.4491329
  15.7752848  25.3477612  30.3994141  15.8469801  26.9774551  29.6602631
  14.0268745  24.2542591  28.7610607  14.0771704  23.7353916  27.8038006
  12.9859381  24.4962921  28.9754887  14.5753536  23.7211285  29.5376186
  12.8208580  27.3428135  25.6737919  13.2294998  28.3895378  25.1731396
  11.5586567  27.1191883  25.7476330  11.3299370  26.2946301  26.2841873
  10.4785814  27.8982639  25.0802746  10.6969690  28.9655895  25.0452747
  10.3459787  27.3491383  23.6481762  11.3372526  27.4798298  23.2141304
  10.1573963  26.2776604  23.7151241   9.3870602  27.9385796  22.9245720
   8.8391294  27.2627430  22.5188427   9.1675568  27.8203163  25.9052925
   8.8942204  26.7789688  26.4395847   8.4403601  28.9602985  25.9449291
   8.7454376  29.8381310  25.5494080   7.0911322  29.0188236  26.4634533
   7.0426855  28.6025753  27.4696808   6.6848607  30.5432758  26.5582886
   6.6378498  31.0385609  25.5884514   5.7132378  30.4443359  27.0422974
   7.6358285  31.3110256  27.5159531   8.6840649  31.3800259  27.2251949
   7.1013279  32.7300873  27.6919746   6.0682569  32.5782509  28.0047226
   7.1215940  33.1786766  26.6987686   7.6971855  33.2547569  28.4388199
   7.6816006  30.7671776  28.9278202   8.2339621  29.8303623  28.8545589
   8.2115402  31.4427986  29.5992374   6.7144818  30.4388218  29.3085613
   6.1039300  28.1454697  25.7122478   5.0835228  27.7523842  26.2682953
   6.4283891  27.5634670  24.5697460   7.2134423  27.9664936  24.0784607
   5.7953725  26.3643284  24.0402908   4.7739825  26.6928253  23.8480587
   6.2726016  25.9000626  22.6592236   5.7531538  24.9895382  22.3605309
   6.0208735  27.0454502  21.6776047   5.3944745  27.8324356  22.0975780
   6.9257479  27.5190029  21.2967510   5.4504366  26.5828800  20.8721657
   7.6672153  25.6275158  22.7574673   7.8493652  24.7582741  22.3929977
   5.7053423  25.1392231  25.0333042   4.6949162  24.5090237  25.0942650
   6.6432724  24.9621449  26.0153980   7.4193535  25.6009769  25.9169540
   6.7721176  23.9130955  27.0842400   5.9006591  23.2629356  27.0070858
   8.1816635  23.2918663  26.8271179   8.8448296  24.1448917  26.9708633
   8.2712936  22.5187283  27.5902195   8.1952677  22.6517067  25.4799023
   7.2557893  22.1237717  25.3162956   8.2349205  23.4410248  24.7292347
   9.3120480  21.5722828  25.4301548  10.3103666  21.9734936  25.6047726
   9.0825672  20.8351440  26.1996117   9.1901064  20.8853569  24.0566139
   8.2408695  20.3886757  23.8557186   9.3443470  21.6478405  23.2931156
  10.1804714  19.8133430  24.0703831  11.1311970  20.1537781  24.0520840
  10.0917521  19.1849461  24.8560963  10.1350574  19.1858749  23.2802429
   6.6634960  24.4252491  28.5211277   6.7795367  23.6018715  29.4183445
   6.3707175  25.7218342  28.7085419   6.1019273  26.2117538  27.8672161
   6.1315875  26.2514114  30.0958042   6.9608979  25.9235859  30.7226028
   5.9161925  27.7773418  29.9970379   6.8876367  28.1888447  29.7230625
   5.1393065  27.9911175  29.2629757   5.5445538  28.3432045  31.2750053
   6.1760955  28.1888676  32.3424225   4.4686165  29.0817432  31.2933407
   3.8839900  29.1438541  30.4720879   4.1162786  29.3984432  32.1853371
   4.8824615  25.5665512  30.7500572   3.9268308  25.2696857  30.0699806
   4.8891888  25.5220127  32.1167755   5.7168469  25.7282791  32.6576424
   3.6652653  25.2553711  32.9367599   3.0714083  24.4113102  32.5860558
   3.9222882  24.6770802  34.3243942   4.6771073  25.3137703  34.7858887
   2.6443284  24.7911186  35.1834145   2.3578587  25.8326702  35.3290329
   1.8711271  24.1632366  34.7406693   2.7566388  24.2858887  36.1427002
   4.2358837  23.3082409  34.2293739   4.4070196  23.1914635  35.1667480
   2.6424215  26.3584194  32.8759995   2.7077372  27.3455830  33.5453911
   1.6749568  26.2347164  31.9498520   1.7086387  25.3817177  31.4100704
   0.9399862  27.3507442  31.3960476   1.5940655  28.2173767  31.4921207
   0.6846147  27.0946636  29.9708195   1.5914094  26.8273010  29.4282875
   0.0686914  26.1960373  29.9360161   0.1088316  28.2030392  29.0958443
   0.1122357  27.9298744  28.0406342  -0.9505825  28.3456459  29.3089333
   0.7040651  29.6143360  29.2312355   1.7989631  29.8117485  29.7941360
   0.0546042  30.6180058  28.8196583  -0.2930143  27.6046772  32.2171745
  -0.9963197  26.6244659  32.4711227  -0.6452414  28.9085102  32.5604324
  -0.0896026  29.7071800  32.2893410  -1.7885634  29.0983486  33.4599838
  -1.8917171  28.2083092  34.0807037  -1.3965451  30.1830273  34.4608727
  -1.4542210  31.2029228  34.0806274  -2.2520502  30.3574219  35.1134033
  -0.0514038  29.9721489  35.2504272   0.7504097  29.9810352  34.5121040
   0.2096322  30.9851894  36.2987671   1.1918820  30.9077663  36.7649040
   0.1597005  32.0031662  35.9123268  -0.5399996  30.9271965  37.0879364
  -0.0132295  28.6569481  36.0845795  -0.8383721  28.6528397  36.7967796
  -0.2532615  27.8731728  35.3661232   0.9223775  28.4531536  36.6053581
  -3.0726521  29.4559383  32.7652130  -3.1435378  30.4897556  32.1126137
  -3.9632661  28.6036510  32.9171829  26.7260151  43.6445351  47.6962242
  26.6185989  44.6221848  47.9259262  26.3566628  43.5668106  46.7593994
  26.1810398  43.0301208  48.2840996  28.1229706  43.2669182  47.9138641
  28.7087326  44.0160179  47.3811073  28.4922504  43.2349777  49.3537216
  28.3443851  44.2039757  49.8304596  27.8196049  42.5823669  49.9102745
  29.8143978  42.6056786  49.7015190  29.8366680  41.5299721  49.5269852
  30.5863857  43.0097466  49.0466423  30.2998466  42.8055153  51.4363174
  30.5631771  44.5313492  51.7263145  31.0774059  44.9190025  50.8468857
  29.6588516  45.0825424  51.9841499  31.2328491  44.6541176  52.5775261
  28.2443447  41.8942261  47.1873245  27.3123512  41.0891914  47.0462875
  29.4704399  41.5606995  46.7897453  30.2496796  42.1435966  47.0601501
  29.7894325  40.2296295  46.2590866  29.0451584  39.8592300  45.5541306
  31.1603546  40.2569046  45.5556564  31.2428837  41.1278801  44.9055061
  31.9340725  40.3096008  46.3216095  31.5755787  39.0177307  44.7513084
  32.5757141  39.2973747  44.4202080  31.5146847  38.0671043  45.2811241
  30.5145741  38.8482704  43.2560654  31.4878578  37.6543083  42.2985649
  32.4413948  38.1007156  42.0164337  31.6145363  36.7751083  42.9302788
  30.9616699  37.4152374  41.3744049  29.6803627  39.1147156  47.3761139
  29.5916424  39.4251518  48.5820923  29.5630779  37.8985558  46.8894844
  29.7061996  37.8063354  45.8939362  29.5583801  36.6584587  47.6401367
  29.8315182  36.8094559  48.6845016  28.1586094  35.9892311  47.6593742
  28.1913395  35.2182961  48.4292374  27.1060371  36.9731636  48.1809196
  26.1589870  36.4577065  48.3406296  27.3875370  37.4039879  49.1417770
  26.9366837  37.7727318  47.4597359  27.6215115  35.4635048  46.3303833
  27.1924973  36.3065529  45.7887917  28.4294548  34.9856339  45.7763367
  26.6223297  34.2378540  46.4763947  26.1933575  33.9966698  45.5038147
  27.2953224  33.4815674  46.8803902  25.7833557  34.4383812  47.1427422
  30.6424332  35.7825127  47.0373535  30.8603191  35.7047234  45.8311920
  31.3776493  35.0027428  47.9073143  31.1275120  35.0682068  48.8836594
  32.3679581  34.0410004  47.5116959  32.1559219  33.7966576  46.4708138
  33.7914696  34.6441879  47.5001678  34.1627464  34.7212029  48.5220871
  34.4448814  33.9279556  47.0020103  33.8737831  35.9861183  46.8093033
  33.4374008  35.9905930  45.8104820  33.4797859  36.8530922  47.3396149
  35.3079872  36.3300056  46.5992928  35.7987061  36.4864006  47.5599365
  35.8840027  35.5271683  46.1391182  35.3617706  37.5194817  45.7174416
  35.5568008  38.3322639  46.2844048  35.2260513  37.6562653  44.4105263
  35.1234360  36.6240425  43.6523628  35.0433273  35.7076797  44.0694618
  35.1430206  36.8321152  42.6642227  35.2415428  38.7990723  43.8092957
  34.8684082  38.9283104  42.8796844  35.2626152  39.6043320  44.4185677
  32.3193436  32.7459793  48.3328552  31.8560600  32.6913223  49.5028534
  32.8195915  31.6931934  47.6849823  33.2261963  31.8159351  46.7686272
  33.1571121  30.3708267  48.2816391  32.3831482  30.0230103  48.9658203
  33.1534843  29.5155964  47.6058655  34.4145699  30.3703575  49.0510788
  35.5010986  30.4943657  48.4600945  34.3007164  29.9879131  50.3332558
  33.4342918  30.0221367  50.8511734  35.3426476  29.3737278  51.1713257
  36.2611923  29.7225609  50.6994286  35.3689651  29.8209286  52.6240959
  34.6304817  29.2961617  53.2302094  36.6880341  29.5017357  53.2970886
  36.7390251  29.9030437  54.3092461  36.5746384  28.4373608  53.5028725
  37.4991035  29.8451920  52.6549721  35.1461296  31.3217468  52.6829414
  35.9562263  31.7820587  52.1172943  34.2462692  31.6050892  52.1369858
  35.0994911  31.9334927  54.0900002  36.0747681  32.3377571  54.3611298
  34.3847008  32.7561378  54.1107025  34.8743706  31.1405201  54.8031769
  35.2858620  27.8445663  51.0784492  34.2699585  27.2365589  51.1043243
  36.4748955  27.2747402  51.0508842  37.2591248  27.8648968  50.8125458
  36.7361946  25.8472557  51.0324593  35.7860565  25.3590755  51.2492867
  37.3184052  25.4194088  49.6580772  37.6123123  26.3672581  49.2071838
  38.1206665  24.6880302  49.7558479  36.3475838  24.9538479  48.6176567
  35.5943604  25.7195187  48.4319038  36.9413071  24.9675655  47.7036514
  35.5689201  23.6388531  48.6915703  34.6705322  23.8438454  49.2737923
  35.2538757  23.3122292  47.7005310  36.2552834  22.5754089  49.3602753
  35.8852463  22.2836132  50.2536011  37.2480011  21.8111534  48.9439392
  37.8833351  21.9109821  47.8010025  38.7226486  21.3565063  47.7104034
  37.5995369  22.6163120  47.1361160  37.7131615  20.8787212  49.7361641
  38.4763107  20.3623447  49.3225746  37.5321312  20.7132149  50.7159271
  37.7217407  25.3902206  52.1271095  38.5831032  26.0892849  52.7315407
  37.5417213  24.0726585  52.3266106  36.8753777  23.6912594  51.6703911
  38.2522392  23.3332405  53.3949013  39.3026466  23.6242828  53.4011421
  37.7525787  23.3874397  54.3621178  38.2641754  21.7592888  53.1770248
  37.4474754  21.1734543  52.4747162  39.2264099  21.0637398  53.8196564
  39.8771706  21.6347218  54.3398361  39.4383240  19.5794411  53.8254433
  38.4615517  19.1045952  53.9178314  40.1390991  19.1733131  52.5410767
  40.2195473  18.0887203  52.6137123  39.5227547  19.4126549  51.6745110
  41.0913696  19.7033005  52.5608253  40.2597694  19.0247803  55.0710335
  41.1931992  19.6719894  55.5319405  39.8125916  17.9055862  55.6266975
  39.1713791  17.3006668  55.1337318  40.5308533  17.3077450  56.6904526
  41.5611076  17.6343193  56.5489540  40.0013199  17.8142147  58.0372658
  39.8793793  18.8970909  58.0619240  38.7045822  17.0207424  58.4360352
  39.0472946  16.0541515  58.8052826  38.1372719  17.5021038  59.2326202
  37.9451294  16.9932728  57.6546402  40.9214020  17.3286667  58.9765511
  40.7071762  17.8098621  59.7791443  40.4033089  15.7919979  56.4584541
  39.5933228  15.3094826  55.6669884  41.0650902  14.9612360  57.2326012
  41.8086243  15.2408361  57.8563652  41.0359421  13.4384537  57.2041473
  40.2325020  13.1174393  56.5411758  42.2666817  12.8899574  56.4899788
  42.1354218  11.8078899  56.4907417  42.2390556  13.2503719  54.9765625
  43.0188179  12.6769829  54.4752655  41.3179817  12.7811308  54.6308289
  42.2639580  14.3323011  54.8465424  43.4448662  13.3229637  57.2707977
  43.4788132  12.7154207  58.0133209  40.8219223  12.8155499  58.5864868
  40.9325562  13.5398445  59.5459671  40.5326347  11.4765444  58.6081352
  40.3512268  11.0057859  57.7331657  40.4475136  10.6622496  59.8628883
  40.8271561  11.2713213  60.6832542  38.9202271  10.4678535  60.1519775
  38.7832718   9.8552237  61.0430603  38.1909676  11.7290707  60.5656700
  37.7729111  12.2820072  59.7244873  37.3152199  11.4636612  61.1578865
  38.8737106  12.3930435  61.0958633  38.1104546   9.7824593  59.0613136
  37.0888062   9.7189045  59.4358826  38.3185616  10.3523817  58.1557846
  38.5217819   8.7784491  58.9570389  41.0900955   9.2808275  59.7363243
  40.9985962   8.7029591  58.6573563  41.5347557   8.7700253  60.8267403
  41.5212288   9.3726597  61.6371422  42.2127991   7.5012083  60.9868889
  42.5456276   7.2273302  59.9857254  43.3392067   7.5000730  62.0623627
  42.9253807   7.6307349  63.0622482  43.8567352   6.5431976  62.1305733
  44.4740562   8.5370436  61.7676659  44.0131683   9.5247250  61.7805672
  45.1614685   8.5032387  62.6129036  45.0527420   8.4241447  60.3475151
  46.0472565   7.6162310  60.2884026  44.7558899   9.0981197  59.3315620
  41.2059708   6.3555036  61.2452354  41.5489044   5.1810827  61.1630974
  39.9433479   6.6744123  61.5000420  39.6764908   7.6311240  61.6833115
  38.8535385   5.7081890  61.8428383  39.0924721   4.8067069  61.2786217
  38.8818741   5.3430018  63.3346138  38.7562218   6.2411137  63.9393501
  37.9580383   4.8415928  63.6231117  40.0728722   4.5306134  63.9126472
  40.2363167   3.6929114  63.2346764  40.8951950   5.2455134  63.8842201
  39.9666595   4.1696839  65.3982620  39.2472305   3.3548441  65.4792404
  40.9403267   3.7473435  65.6466522  39.6660461   5.3933353  66.2462769
  40.2087059   6.2247734  66.0609894  38.7321510   5.5770674  67.1877213
  38.0882187   4.5426402  67.6650314  38.1874886   3.6134059  67.2819290
  37.2493629   4.6268444  68.2212067  38.5478477   6.7614112  67.7512970
  38.9512634   7.6165776  67.3962631  37.6720505   6.7924185  68.2534103
  37.5155869   6.2594891  61.3599472  37.1662445   7.4123116  61.4175453
  36.7038383   5.3264284  60.8950577  37.1262512   4.4097304  60.8585434
  35.2765656   5.5643015  60.7172089  35.2072792   6.5010700  60.1642494
  34.6517944   4.4437490  59.8523064  35.1704216   4.4265995  58.8937492
  34.8484840   3.4825833  60.3272591  33.1949310   4.6505251  59.5578537
  32.6494026   5.7242851  59.6659012  32.5463257   3.6252255  59.1723099
  34.4603348   5.6180096  62.0738754  34.2295456   4.5712185  62.6812286
  34.0837250   6.7653050  62.5811653  34.4192276   7.6409030  62.2058449
  33.3801956   6.9262090  63.9298668  32.4901314   6.2988806  63.8814240
  34.2235413   6.4829669  65.1543274  34.3461533   5.4044003  65.0555267
  35.5484276   7.2313175  65.2503510  36.0680161   7.0285110  64.3138733
  35.4194794   8.2860670  65.4932022  36.1811676   6.8351836  66.0445938
  33.5596962   6.6199460  66.3831482  32.9040985   5.9306512  66.2540512
  33.0457420   8.4353256  64.1803589  33.7521248   9.2947025  63.6521568
  31.9822826   8.7532282  64.9730148  31.4967098   7.9738235  65.3935471
  31.5373783  10.0076942  65.4602966  31.4011383  10.6198578  64.5687790
  30.1986179   9.9685221  66.2348480  29.4865799   9.5500021  65.5235519
  30.4044228   9.4766531  67.1855392  29.6188507  11.3171692  66.5694962
  30.2573147  11.9012871  67.2322693  29.5124245  11.8723269  65.6375198
  28.2588844  11.1844082  67.2910233  27.2771931  11.7725525  66.8245316
  28.2202034  10.3869801  68.2542725  32.5785522  10.6621304  66.3354721
  32.8428001  11.8061266  66.2054596  33.3981438   9.9098787  67.0601044
  33.2217674   8.9167061  67.1110916  34.5796738  10.2879868  67.8958130
  34.1724510  11.0890188  68.5127563  35.0575027   9.1560974  68.7404251
  35.2476807   8.3161707  68.0722504  36.0134392   9.4437189  69.1780930
  34.1069794   8.8312235  69.9037933  34.0261040   9.7195196  70.5302887
  33.0885773   8.6840687  69.5442047  34.3841400   7.5966916  70.6978912
  35.3633232   6.8809857  70.4758301  33.6801910   7.3155775  71.7264328
  35.8020935  10.9029818  67.0975113  36.7734451  11.4720545  67.5926743
  35.7335892  10.8066998  65.7575607  34.9914970  10.1849213  65.4698181
  36.5871277  11.5049133  64.8286591  37.2934799  12.1146564  65.3920212
  37.3461761  10.4585676  64.0159683  36.5464211   9.9368744  63.4902992
  37.9499893  11.0824881  63.3570023  38.2898827   9.4607868  64.6006775
  37.6497421   8.7545881  65.1294556  38.9195824   9.1046467  63.7853622
  39.1615677  10.0637274  65.6888580  39.6898880  11.1497793  65.3847961
  39.5023232   9.3827133  66.6651154  35.7996597  12.4064398  63.9200630
  36.0327644  13.5610609  63.9707909  34.7682266  11.9706049  63.2162971
  34.5015984  11.0034132  63.3327026  34.0891914  12.7266312  62.1009064
  34.9010239  13.1212215  61.4899025  33.1255646  11.8366184  61.2160072
  32.5090981  11.3426914  61.9670753  32.1914139  12.5344744  60.1499786
  31.4682884  13.0804453  60.7558784  32.7987556  13.1798458  59.5153694
  31.6627789  11.7523251  59.6051025  34.0375671  10.7785435  60.5515175
  34.5000801  11.1789675  59.6493835  34.8484268  10.5473299  61.2422752
  33.2389641   9.5076532  60.3439178  33.9077988   8.8379707  59.8032875
  32.9081345   9.0390739  61.2707863  32.4067192   9.7279701  59.6753922
  33.2992058  13.9938698  62.6128616  33.3266792  14.9537287  61.8806229
  32.5616989  13.9667244  63.7410583  32.5528908  13.1052628  64.2682266
  31.9672813  15.0993242  64.3865814  31.2384071  15.6495180  63.7914963
  31.1118031  14.6200581  65.5866470  30.2476845  14.1909304  65.0794525
  31.6617908  13.8277760  66.0944901  30.6521568  15.7372150  66.4998856
  31.5051556  16.2726917  66.9167252  29.5842686  16.6024666  65.9311829
  29.1023617  17.1839046  66.7171860  30.0707016  17.3436432  65.2970428
  28.8702679  16.0242271  65.3447266  30.0083847  15.1484747  67.7444992
  29.8802757  15.9538746  68.4676971  29.1296215  14.5374165  67.5383835
  30.7395344  14.5670366  68.3061447  33.0580025  16.0855103  64.8317337
  33.0414619  17.2537498  64.4950562  34.0427666  15.5917683  65.5968323
  34.1546783  14.5897865  65.6569748  34.8613548  16.4984493  66.3200989
  34.3089066  17.3290405  66.7594376  35.4881859  15.7407236  67.5062943
  36.1107635  14.9517746  67.0843277  36.1067200  16.3388977  68.1754074
  34.5106430  15.0929728  68.5355148  33.9041595  14.3664217  67.9947739
  35.1775436  14.5112028  69.1718216  33.6586647  16.0891590  69.3672867
  33.8579483  17.2985840  69.3743973  32.7206345  15.6110096  70.1230087
  32.5665932  14.6128492  70.1305389  32.1259308  16.3414974  70.4874420
  35.8484612  17.1146870  65.4149704  35.9623528  18.3390179  65.4598999
  36.4767914  16.3931103  64.5129166  36.4433899  15.3947029  64.6618042
  37.3253059  17.0478611  63.4365349  38.1831398  17.5105534  63.9245300
  37.9912872  15.9155626  62.5966415  37.2257690  15.2524977  62.1936188
  38.4208221  16.3234386  61.6816330  39.0171127  15.0167189  63.2940979
  38.5708122  14.6722565  64.2269745  39.3530960  14.1410532  62.7387390
  40.3721924  15.7104120  63.6184425  40.7336884  15.9198818  62.6116943
  40.1709480  16.5587826  64.2725601  41.3593178  14.8382416  64.4306793
  40.9467087  14.8534079  65.4394531  41.3812904  13.8599348  63.9505424
  42.6797638  15.4398727  64.4509583  43.0110512  15.6915894  63.5306358
  42.7206306  16.3446732  64.8979187  43.3499832  14.8114700  64.8704987
  36.5744629  17.9997139  62.4868965  37.1426277  19.0283184  62.1430779
  35.2994385  17.6840782  62.0926018  34.7697601  16.8939838  62.4321480
  34.5637894  18.6412983  61.2559891  35.1907539  18.8903580  60.3998413
  33.2744598  18.0992718  60.7159843  32.7544556  17.8139572  61.6304703
  32.4665337  19.0371227  59.8924370  31.6381607  18.5850811  59.3469505
  32.0714684  19.8218250  60.5376282  33.0365906  19.5531216  59.1198578
  33.4376335  16.8466587  60.0545654  33.5990753  16.2969017  60.8248253
  34.4000053  19.9422932  62.0735893  34.5527267  21.0480366  61.5589981
  33.9939041  19.8184566  63.3418159  33.8934631  18.9119949  63.7757988
  33.7242775  20.9529877  64.2631226  33.0184059  21.6733189  63.8496361
  33.3514938  20.4837551  65.6143799  32.5782433  19.7182808  65.6794662
  34.1801910  19.9320126  66.0581589  32.9678078  21.7025776  66.6285324
  33.8213081  22.3772812  66.5620956  32.0675964  22.2036591  66.2726669
  32.8761292  21.1272354  68.0694122  32.1906052  20.2831573  68.1448441
  33.8229599  20.6789684  68.3705444  32.5503197  22.2510433  69.0285645
  33.4565125  22.8387966  69.1750488  31.7706413  22.8508453  68.5590515
  32.0576553  21.6988640  70.3866501  31.2562943  21.1785469  70.0592499
  32.8220139  21.1588154  70.7664032  31.7272434  22.4263344  71.0044785
  35.0456238  21.8012314  64.4137115  35.0819130  22.9508533  64.1278915
  36.2171593  21.2053852  64.7430954  36.2171516  20.2046719  64.8797455
  37.4864731  21.8993034  64.9113693  37.4688263  22.6913280  65.6600189
  38.6587448  20.9172592  65.2333984  38.6943474  20.2238388  64.3931656
  39.5691376  21.5137749  65.2922668  38.5155296  20.1626129  66.5750427
  39.0124741  20.7807064  67.3227768  37.4658852  20.1910038  66.8675156
  39.0943909  18.7674522  66.5610809  39.9535408  18.4085236  65.7546387
  38.6327934  17.9655075  67.5137177  39.1770248  17.1181984  67.5910950
  38.0743523  18.3210297  68.2765045  37.8860207  22.5557022  63.5615807
  38.6908989  23.4712830  63.6241112  37.3327675  22.0753880  62.4122696
  36.7939949  21.2305717  62.5392075  37.6867218  22.6092854  61.0824738
  38.7376213  22.8950710  61.1277161  37.5810204  21.5386562  59.9987488
  38.2088966  20.6759338  60.2214165  36.5597496  21.1767044  59.8800240
  37.8620224  21.8911839  58.5114861  37.2536087  22.7410603  58.2022057
  39.3468857  22.0739193  58.2454796  39.9015656  21.1900196  58.5603714
  39.5715218  22.1545162  57.1819267  39.7517357  22.9638824  58.7273140
  37.4178505  20.7070503  57.6222000  37.4131813  21.1308880  56.6179886
  38.0197220  19.7983990  57.6365128  36.4173851  20.3663292  57.8887939
  36.9242401  23.8743534  60.7427292  37.5074310  24.8324528  60.2791977
  35.5984268  23.9422951  61.1211014  35.1696205  23.1636677  61.6006432
  34.7807426  25.1114178  60.9265060  35.0582008  25.5132637  59.9520149
  33.2763710  24.8376446  61.0773163  33.0931206  24.4894714  62.0938301
  32.7438812  25.7886887  61.0689354  32.6711884  23.7971134  60.1293449
  33.3309517  22.9331741  60.2094879  31.2118969  23.5218201  60.6601410
  31.3937073  23.2196140  61.6915131  30.6712685  24.4677734  60.6917496
  30.8275509  22.6430607  60.1423035  32.6184578  24.2342758  58.6725311
  33.6112137  24.3286724  58.2324982  32.2212830  23.3407459  58.1909103
  32.0856972  25.1843414  58.6320076  35.2182961  26.1795826  61.9918442
  35.2182961  27.3358269  61.6457863  35.6238480  25.7579823  63.2208519
  35.5497513  24.7773438  63.4509773  36.2517776  26.7089615  64.1804657
  35.5280457  27.5071239  64.3455582  36.5364113  25.9548054  65.5377045
  35.5832138  25.5077496  65.8199387  37.2693596  25.1518440  65.4593811
  36.9215622  26.9002819  66.6644592  36.2516632  27.7448711  66.5031967
  36.6564217  26.5179577  67.6501770  38.4012108  27.2615566  66.5400543
  38.7796860  28.4744129  66.3910294  39.2596397  26.3796597  66.4622421
  37.4758644  27.4085941  63.5272522  37.5707626  28.6489677  63.4497032
  38.3917351  26.6854916  62.8858757  38.3579292  25.6901608  63.0540314
  39.6298943  27.2968616  62.3277588  40.1262512  27.9283943  63.0645790
  40.5489655  26.1953449  61.9011765  40.5857658  25.4401665  62.6863213
  40.0982704  25.6696548  61.0593796  41.9546585  26.7053127  61.4417152
  42.6122322  25.8842392  61.1561737  41.8559647  27.2014179  60.4761925
  42.7516022  27.5723419  62.3853302  43.6743851  27.9162769  61.9181328
  42.2143364  28.4801979  62.6596413  43.1208191  26.8410873  63.6672516
  42.2664490  26.9143620  64.3401337  43.2191277  25.7815514  63.4309959
  44.3985939  27.3759251  64.2597504  45.0070839  27.7383575  63.5396919
  44.1871452  28.2369900  64.7434540  44.8823204  26.8102188  64.9424591
  39.2942848  28.1342010  61.1043434  39.6898155  29.3054924  61.1272392
  38.4270592  27.6440678  60.2307129  38.2162285  26.6584415  60.2954597
  37.8318787  28.3540611  59.0443802  38.5966644  28.6244850  58.3163185
  36.7956352  27.4276562  58.3330307  36.1226234  26.8899422  59.0008774
  35.9794502  28.2008877  57.3356094  35.5585556  27.5410824  56.5769272
  35.1093063  28.6721325  57.7926369  36.5680771  28.9693146  56.8344803
  37.6200027  26.4203091  57.5078125  38.0188789  26.9596519  56.6486778
  38.3748817  26.0758209  58.2146225  36.7491798  25.2505379  57.0040703
  36.2300873  24.9618587  57.9180222  36.0649796  25.5045815  56.1944809
  37.3753662  24.4991989  56.5229416  37.2570648  29.7138367  59.4857216
  37.6413116  30.7000504  58.9035606  36.3720856  29.6866093  60.5312920
  36.3928909  28.8261681  61.0597839  35.7560425  30.9139919  61.1391220
  35.2572021  31.4635735  60.3408623  34.7052498  30.5572510  62.2042847
  35.0751724  29.8141727  62.9107513  34.4358101  31.7853909  63.0732880
  35.2720375  32.0719604  63.7110214  34.2439270  32.6779442  62.4777756
  33.5847397  31.6990795  63.7488098  33.4568939  29.9214630  61.5621681
  32.8607407  30.7731647  61.2345963  33.6552811  29.3921680  60.6301842
  32.4987450  29.0987968  62.4744530  32.0741692  29.7943668  63.1983414
  31.7408695  28.5989857  61.8712006  33.1539574  28.3734398  62.9568062
  36.8902130  31.8593769  61.6621552  36.7164612  33.0968895  61.5198822
  38.0007706  31.3964520  62.2596474  38.0921440  30.3975906  62.3780823
  39.0446205  32.2748718  62.7719269  38.5698204  33.0589790  63.3617096
  39.8152008  31.4325447  63.7662811  39.0873184  31.0323277  64.4720535
  40.2109146  30.6279316  63.1465149  40.9566956  32.1798286  64.4686966
  41.4821205  31.4416332  65.0745850  41.6253395  32.4381943  63.6475601
  40.5986443  33.3045959  65.3860321  41.4713097  34.1275215  65.6578217
  39.4402847  33.3861237  65.8844833  39.8203354  32.9368439  61.6995544
  40.1595078  34.1419029  61.7967453  40.2453575  32.1395950  60.7489624
  40.1166306  31.1394768  60.8063583  41.0919418  32.6149101  59.5949440
  41.9400711  33.0997810  60.0783501  41.5857735  31.4061584  58.8085327
  40.7264557  30.8731041  58.4016838  42.1428032  31.7064800  57.9210510
  42.3104973  30.4155235  59.7159081  41.7310715  30.2621956  60.6263237
  42.4115410  29.4523392  59.2157440  43.6763878  31.0219555  60.1490059
  44.3057823  31.6920624  59.3128853  44.1757278  30.6325474  61.2730255
  40.2822075  33.6479225  58.7148628  40.8547401  34.4925575  58.0284042
  38.9399948  33.6065216  58.7670822  38.5257568  32.7694740  59.1516113
  38.1274910  34.4731483  57.9077873  38.7605972  35.1833954  57.3759727
  37.3198357  33.7336121  56.8283463  36.6745720  33.0255890  57.3483849
  36.7012024  34.3832626  56.2091980  38.2537804  32.9116745  55.9667282
  38.8559036  33.4601135  55.0945854  38.3773384  31.6506004  56.1747551
  39.0611153  31.1883450  55.5926285  37.9977112  31.2280903  57.0099030
  37.1978226  35.4213867  58.8265495  36.6156883  36.3173294  58.2068977
  37.1989670  35.3675385  60.1315422  37.5840225  34.5634232  60.6061287
  36.3552780  36.1346054  61.1182365  36.5910797  35.5406227  62.0012360
  36.9696541  37.5874786  61.2263527  36.6174088  38.1520119  60.3630257
  36.6123543  37.9692535  62.1827431  38.4762993  37.7157631  61.3752060
  39.2459793  36.9648705  62.2685394  38.8055878  36.2948456  62.8827248
  40.5442505  37.0297585  61.9072456  41.2657166  36.3855476  62.3877411
  40.6060066  37.7795715  60.7725143  41.4318962  37.9713478  60.2236710
  39.3229942  38.2364655  60.4454193  39.1238480  38.8253288  59.5622482
  34.8744316  36.1812439  60.8201752  34.2725601  37.1487503  61.2233467
  34.2972832  35.2125168  60.0997314  34.9413872  34.5838242  59.6415062
  32.8977585  34.9057961  59.8261375  32.5341263  35.6060982  59.0741730
  32.7793655  33.5809937  59.0902901  32.9978294  32.7425842  59.7516861
  31.3440495  33.3452301  58.4467354  30.5837059  33.3726921  59.2272644
  31.0996933  34.0345650  57.6385231  31.3013573  32.3273621  58.0591583
  33.8416786  33.4004135  58.1721992  33.7867088  34.0752144  57.4915962
  31.9067211  34.9377937  60.9891968  32.0209808  34.2757263  62.0660172
  30.8524723  35.7923088  60.9094849  30.6876564  36.3064117  60.0558853
  29.6423798  35.7499886  61.7025070  29.8170490  35.0766296  62.5416603
  29.3246593  37.1378822  62.3422966  28.4063816  37.0232964  62.9182701
  30.2228565  37.4387093  62.8815956  28.8735142  38.2335281  61.3236809
  29.6745262  38.4249001  60.6096382  27.9502831  38.0007515  60.7930603
  28.5492630  39.5772438  62.0526314  27.5715160  39.7229156  62.5118637
  29.2452831  39.7326012  62.8769684  28.5280647  40.6864967  60.9204102
  28.3907337  41.6343498  61.4408073  29.4476547  40.7795639  60.3426590
  27.3261757  40.5884132  60.0149841  26.4934788  40.4288445  60.5638504
  27.1476879  41.4870682  59.5899315  27.4837303  39.9188881  59.2753792
  28.4116077  35.2105331  60.8681145  28.5010300  35.4530373  59.6636276
  27.4006443  34.5329475  61.3844223  27.2490387  34.2254105  62.7621498
  27.2883339  35.1370125  63.3584213  28.0577374  33.5740547  63.0935822
  25.8333912  33.5846634  62.8959846  25.0691013  34.3616829  62.9103851
  25.6857891  32.9691811  63.7833977  25.5855427  32.8265953  61.6064873
  24.5542126  33.0184631  61.3104439  25.8109188  31.7608948  61.6463051
  26.4738369  33.6132317  60.6468124  27.1322479  32.9384613  60.0997467
  25.6028690  34.2985458  59.5545578  25.2678528  33.7131920  58.5574989
  25.1670399  35.5311470  59.7887650  25.3438034  35.9678955  60.6821289
  24.0407085  35.9989624  58.9263916  23.3159847  35.1858521  58.8847923
  23.2948475  37.2109413  59.6066093  22.2654419  37.2535324  59.2507820
  23.1956444  36.9170189  60.6515350  24.0320492  38.5686111  59.6097755
  25.0510216  38.3044930  59.3268661  23.5801907  39.1447258  58.8023033
  23.9474144  39.3915215  60.9354630  22.8311386  39.6196136  61.5112648
  25.0246525  39.7888374  61.3772545  24.5256653  36.3480110  57.5736237
  23.7380638  36.5491066  56.6334343  25.8301220  36.4882812  57.3698730
  26.3449802  36.4668541  58.2385292  26.5394878  36.6590385  56.0690575
  25.9952641  37.2975731  55.3732185  27.8863087  37.3660355  56.3523064
  28.4335098  36.6033096  56.9063148  28.3590698  37.5455322  55.3867073
  27.8813839  38.6590424  57.1264458  28.9125595  39.1494370  57.6823730
  26.7784443  39.2764969  57.3168831  26.8005161  35.3065605  55.3565445
  27.2063618  35.3958015  54.1524048  26.5262489  34.1187553  55.9408875
  26.0716381  34.1647911  56.8416138  26.6016006  32.9102211  55.1753540
  27.5136013  32.9719429  54.5815926  26.6741180  31.6181698  56.0966415
  25.7485714  31.3547421  56.6085701  27.1941147  30.3135624  55.4248466
  28.1793442  30.4010010  54.9668312  27.3076286  29.5067463  56.1489067
  26.4938087  29.9039097  54.6969299  27.7000198  31.7052269  57.1802139
  28.6958447  31.9443512  56.8070488  27.4815865  32.5535736  57.8288269
  27.6634026  30.8146496  57.8076134  25.3603287  32.7712059  54.2379341
  24.1582394  32.8225670  54.5565529  25.6551609  32.4290161  52.9681435
  26.5952168  32.3602486  52.6052818  24.6557999  32.0828438  51.9068565
  23.8212242  32.7838440  51.8930702  25.2666378  32.0715904  50.4804611
  26.1449757  31.4375801  50.3594017  24.2993202  31.5978527  49.3976212
  24.8264313  31.4218006  48.4599380  23.8475456  30.6578732  49.7145424
  23.5041313  32.3413849  49.3434219  25.7167549  33.5309868  50.2135468
  26.4215698  33.6313591  49.3881569  24.8173008  34.0954819  49.9677315
  26.2866516  33.9459381  51.0448914  24.0343571  30.7013187  52.3098259
  22.9120998  30.6165581  52.9004478  24.8891125  29.7285156  52.2634392
  25.8394642  30.0138645  52.0750046  24.7093582  28.3729630  52.7436142
  24.1605873  28.4026184  53.6849289  23.9234161  27.5860043  51.6510124
  23.6503162  26.6171989  52.0692635  22.9206467  27.9895287  51.5105743
  24.6815529  27.4534206  50.2833405  25.5317860  28.1348915  50.2550011
  24.9079227  26.3985462  50.1281052  23.8474445  27.8988209  49.0721016
  22.6262188  27.7939377  48.9089508  24.5657024  28.3420582  48.0426788
  25.5572090  28.5267525  48.0965843  24.0749588  28.5129147  47.1766090
  26.0185528  27.6560192  52.9013023  27.0658264  28.2605953  52.5000153
  26.0122967  26.4228897  53.3399010  25.1700573  26.1239891  53.8104248
  27.2032433  25.5407391  53.4979134  28.1058064  25.8958511  53.0005455
  27.5834827  25.4183769  54.9595261  27.6936684  26.3940487  55.4328384
  26.8399353  24.8325844  55.4999733  28.9321423  24.7000923  55.2062340
  28.9707394  23.7759724  54.6295090  29.7296925  25.3175678  54.7930145
  29.3324165  24.3012714  56.9984169  29.6193161  26.0252590  57.6035652
  28.7311707  26.6407967  57.4607048  29.7753563  25.9091911  58.6760788
  30.4794312  26.4244289  57.0660095  26.8981514  24.1553860  52.8376617
  25.7524738  23.6510868  52.9552917  27.8690262  23.5531120  52.1459732
  28.7937107  23.9544010  52.2094193  27.6591759  22.2049694  51.6316910
  26.7784920  21.6833172  52.0063591  27.5225735  22.2278175  50.0885201
  26.5459919  22.5702114  49.7462387  28.2437649  22.9357471  49.6800804
  27.7053795  20.7755413  49.5047302  28.6450539  20.3358574  49.8390884
  26.6582260  19.6790619  49.8346863  25.6884918  20.0925446  49.5576668
  26.9138718  18.8505802  49.1741066  26.7167168  19.4120941  50.8898697
  27.8022575  20.8235741  47.9939308  28.1377335  19.8262539  47.7094917
  26.8614101  20.9130268  47.4508781  28.3156242  21.7288857  47.6699448
  28.9310322  21.4280167  52.1170502  30.0369473  21.9559345  51.9975128
  28.7257481  20.1646385  52.6823997  27.7984009  19.8158817  52.4861946
  29.7852249  19.3485832  53.2216034  30.7722740  19.8086376  53.1748276
  29.5007610  19.0218754  54.6753960  28.4280510  18.9133301  54.8354416
  30.0612125  18.1178055  54.9134140  30.0220718  20.0754128  55.6932564
  29.9387398  21.1022930  55.3373375  29.0866776  19.9450684  56.8935089
  29.2130013  19.0014629  57.4243126  29.3958645  20.7379131  57.5746078
  28.0995274  20.1978645  56.5065613  31.4698486  19.8795033  56.0414047
  31.6141376  18.9507236  56.5933571  32.0513992  19.9275951  55.1207619
  31.8321514  20.6524582  56.7191772  29.8011303  18.0743885  52.3500061
  28.8032608  17.6473198  51.7733803  30.9647808  17.4260006  52.2781334
  31.7236099  17.7559547  52.8572807  31.2907581  16.1469021  51.5877533
  30.3537941  15.6905642  51.2684517  32.0732765  16.5718117  50.3065186
  31.6027622  17.4296131  49.8260002  33.0862961  16.7910309  50.6439095
  32.0962563  15.5303679  49.3324203  33.0264053  15.5559454  49.0962601
  32.0833168  15.1602602  52.4754868  32.7290955  15.5137320  53.4551735
  32.0532684  13.9561281  52.0383263  31.5812244  13.7614231  51.1669121
  32.8921242  12.8761606  52.6793213  33.8470612  13.3713026  52.8554764
  32.1397133  12.3671598  53.9935417  32.3037605  11.3269024  54.2747078
  32.5990639  12.8866282  54.8345222  31.0814972  12.6259527  54.0296288
  33.0031433  11.6796856  51.6733170  32.1364441  11.3811998  50.8901749
  34.1350479  11.0768719  51.7071037  34.7442513  11.3276005  52.4726830
  34.4262505   9.8117628  51.0539665  34.1488113  10.0016832  50.0171165
  35.9236526   9.4195442  51.1302338  36.1765289   8.3979683  50.8464394
  36.8146935  10.3499928  50.3536072  37.8080101  10.3860130  50.8009605
  36.8407860   9.8859653  49.3676567  36.4388924  11.3718662  50.3022118
  36.3298492   9.5388775  52.4148483  36.1695976   8.6932783  52.8401489
  33.5286713   8.5868359  51.4042397  33.1107635   8.4388523  52.5258179
  33.2407684   7.7266512  50.3846474  33.8661919   7.7223878  49.0487747
  34.9459839   7.8324189  48.9485664  33.4591293   8.4450188  48.3415222
  33.3938484   6.4386101  48.3253059  34.1194382   5.6299558  48.4130287
  33.0172462   6.5032859  47.3044777  32.1011124   6.1402202  49.1002502
  31.9639797   5.0730958  48.9254837  31.2505436   6.6937742  48.7024918
  32.3574295   6.5506420  50.5665169  31.4297199   6.8535166  51.0520363
  32.8124695   5.4072080  51.4722443  32.2947197   4.3009658  51.5090408
  33.8580322   5.6001596  52.2889748  34.2715111   6.5181236  52.2084808
  34.3768845   4.6571865  53.3265648  33.9908714   3.6567104  53.1312637
  35.9586716   4.6795597  53.3136292  36.3406334   4.2367840  54.2334938
  36.2625885   4.0187478  52.5018005  36.7557983   6.0029325  53.1933403
  36.2288551   7.0766211  53.4997063  37.9234085   5.8674784  52.7741585
  33.8977509   4.9732599  54.7249184  33.6429939   4.1637592  55.5522385
  33.6776276   6.2161341  55.0684624  33.8315086   6.8589392  54.3047714
  32.9248810   6.6120868  56.3291321  33.3264542   6.0737243  57.1876259
  33.2407341   8.1118116  56.6746445  32.6010628   8.7773819  56.0950470
  33.0944710   8.2774248  57.7420197  34.7192650   8.4909678  56.3667450
  35.0388527   8.3036509  55.3416214  35.0092506   9.9398365  56.6339340
  34.3657150  10.5949621  56.0467644  34.9444695  10.0568619  57.7156944
  36.0570107  10.1169281  56.3911858  35.6822968   7.6195641  57.2139091
  36.6321678   8.0504141  56.8973503  35.5582390   7.7328243  58.2908897
  35.6533318   6.5619597  56.9517517  31.4179993   6.2162848  56.2575569
  30.7139626   6.5522895  55.3022881  30.8988552   5.6492295  57.3772507
  31.5058060   5.4851885  58.1676941  29.4527626   5.3473825  57.4720764
  28.9324055   6.0290604  56.7992821  29.1657333   3.9184182  57.0627098
  29.6049309   3.3152328  57.8573036  28.0946140   3.7351530  56.9777489
  29.7582779   3.5311382  55.7576790  29.4345112   4.0041623  54.4844589
  28.6323566   4.6103721  54.3887558  30.2488461   3.3849921  53.5910034
  30.2756939   3.7247133  52.5661736  31.0978756   2.5270324  54.2768326
  31.9253445   2.0869982  53.9003181  30.8057804   2.6789994  55.6610184
  31.2552948   2.1785436  56.5059357  28.7894821   5.6424060  58.8083763
  27.6364384   5.2799253  58.9004745  29.4684124   6.2753167  59.7998390
  30.4505596   6.4611821  59.6551285  28.8526859   6.4498353  61.1825256
  28.2773037   5.5485516  61.3940048  30.0119820   6.5272136  62.2202454
  29.5160789   6.7526965  63.1643562  30.4696064   5.5435143  62.1152878
  30.7769775   7.2613244  61.9673119  27.8707123   7.6446705  61.4316063
  26.9873371   7.5532694  62.2543907  28.0388660   8.6744976  60.6067314
  28.7681580   8.6303787  59.9093895  27.4165173   9.9942942  60.8548546
  26.3872814   9.8421659  61.1798592  28.0225391  10.6276140  62.1348801
  27.9151363   9.9247551  62.9610481  29.5313702  10.9285507  62.0477333
  30.0788403   9.9870958  62.0929756  29.6825695  11.5050449  61.1351013
  29.7782688  11.6197786  62.8535500  27.3194256  11.8756447  62.5764465
  26.3150578  11.6509247  62.9353981  27.9012566  12.3388824  63.3733063
  27.2469406  12.6741295  61.8380203  27.5095329  10.8756895  59.6364746
  28.4653244  10.6919727  58.8269920  26.6116657  11.8138514  59.3927650
  25.8488312  11.9807768  60.0333252  26.6493969  12.9039574  58.3932648
  27.0814686  12.5006809  57.4774132  25.2163601  13.4108639  58.0883217
  24.6693268  13.7260122  58.9768791  25.3967152  14.2753639  57.4494057
  24.3461132  12.3864164  57.3305206  23.2011642  11.8039141  57.9370422
  22.9285870  12.1750517  58.9139557  22.5410480  10.7177963  57.3578148
  21.7275124  10.2489882  57.8914642  22.8901577  10.2693253  56.0747337
  22.3027039   9.4994850  55.5965652  23.9142113  10.9053116  55.3758469
  24.2956657  10.4879246  54.4556923  24.7633038  11.8713255  56.0482407
  25.6948833  12.2038984  55.6147041  27.5332909  14.0960960  58.9485016
  27.1603699  14.7029600  59.9739990  28.6064129  14.5152988  58.3390121
  29.1926575  13.9413576  57.1666069  28.7232990  14.3920841  56.2921638
  29.1664066  12.8518476  57.1860733  30.6379223  14.4517336  57.1056519
  31.0433006  14.5869761  56.1029167  31.3154831  13.8088646  57.6675529
  30.4696541  15.8647938  57.7316818  30.0739975  16.5864792  57.0170288
  31.3308811  16.2550411  58.2739868  29.3564720  15.7012377  58.7723961
  29.8510494  15.4447699  59.7092628  28.6731853  17.0534744  59.0120735
  29.1585312  17.9186630  59.6919746  27.4807949  17.1434288  58.4004478
  27.3102188  16.4025536  57.7355385  26.4999504  18.2667542  58.4631042
  26.9685364  19.1937885  58.1327515  25.3414116  17.9367065  57.4994354
  25.5684166  18.2347889  56.4758568  25.0635090  16.8853474  57.5736847
  24.4606571  18.5244026  57.7582550  26.0045509  18.4102612  59.9233856
  25.5953751  19.5031052  60.2642403  26.1851997  17.4150410  60.7740326
  26.3862724  16.4627724  60.5041199  25.8611012  17.5018158  62.1948662
  24.8469906  17.9013863  62.1997757  25.9258022  16.0678787  62.8107452
  25.3058262  15.3561592  62.2655983  26.9665279  15.7556076  62.7242355
  25.4268646  15.9689684  64.2438965  25.9651985  16.6071262  64.9446487
  24.3983936  16.3287029  64.2132950  25.4056320  14.5632315  64.8590698
  24.7840366  14.0041475  64.1596832  26.4102478  14.1474466  64.7817993
  24.8261795  14.2778578  66.3188553  25.4631767  14.6646414  67.1142960
  23.7998753  14.6445322  66.3375778  24.6447735  12.8395739  66.6164627
  24.0705051  12.7328730  67.4404373  24.0903358  12.3772097  65.9101181
  25.5265255  12.3525276  66.6899567  26.7113647  18.4672451  63.0448799
  26.2248611  19.0808563  63.9760933  27.9563351  18.7004395  62.6805878
  28.2702312  18.3977928  61.7695580  28.8890018  19.5251980  63.4681816
  28.8987236  19.1057034  64.4741821  30.2488480  19.3601227  62.7745705
  30.1331844  19.5112476  61.7013092  30.9367752  20.1915512  62.9281425
  30.7712097  18.4151821  62.9239731  28.4796352  21.0480595  63.5028114
  28.8218269  21.7323895  64.4343414  27.7247410  21.5554523  62.5158501
  27.5285358  20.9767952  61.7116394  27.3344917  23.0263615  62.4417000
  28.2801266  23.5655155  62.3851662  26.6298504  23.3112926  61.0917892
  25.6322212  22.8794098  61.0123367  26.4960442  24.8205929  60.8016777
  25.9343700  24.8919125  59.8702621  25.8998547  25.3990955  61.5073586
  27.4429665  25.3464851  60.6797104  27.4871368  22.8326244  59.9642334
  27.6160679  21.7506561  59.9355736  27.0561161  23.2880936  59.0726776
  28.4935627  23.2348328  60.0801430  26.3390121  23.4849262  63.5462570
  26.2690525  24.6842556  63.8566971  25.5508881  22.5348110  64.1348724
  25.6938934  21.6207180  63.7297897  24.7655544  22.5716248  65.3886566
  23.9215412  23.2335587  65.1947937  24.2107830  21.1339321  65.6028366
  23.4391804  20.8121033  64.9034348  24.9788723  20.3761673  65.4481430
  23.7297249  20.8640785  67.0710297  23.6680641  19.8246937  67.3934860
  24.5101967  21.2193642  67.7438889  22.4482193  21.6846485  67.4075623
  22.3016376  21.4790783  68.4679184  22.6549778  22.7410927  67.2364273
  21.3315582  21.1992321  66.6229401  21.2513046  20.1924934  66.6111374
  20.6766148  21.9163170  65.6631088  20.8650780  23.1326942  65.3278122
  21.4938164  23.7593632  65.8095627  20.5269279  23.5003872  64.4500046
  19.7108707  21.2342854  64.9986954  19.1769810  21.6241665  64.2351151
  19.4167805  20.3026505  65.2549438  25.5953236  23.1101360  66.5712891
  25.1004333  23.8058605  67.3842239  26.8987961  22.8843670  66.6551971
  27.3011627  22.4571743  65.8331833  27.7195129  23.2430897  67.8037262
  27.2641735  22.9277706  68.7425232  29.0393887  22.4652805  67.5876617
  29.4279003  22.5987930  66.5780411  29.8193512  22.7044945  68.3105240
  28.7714729  20.9546814  67.7004471  27.7199287  20.7662735  67.4839630
  29.4804554  20.2992001  67.1946869  28.8644581  20.6003132  69.1369476
  27.9461632  20.9618034  69.9476471  29.9087315  20.0166836  69.5165024
  28.1657772  24.7197399  67.8334274  28.7381535  25.1700001  68.8321686
  27.9245777  25.4109097  66.7397308  27.2753372  25.0412903  66.0600510
  28.1251411  26.8480034  66.5776749  28.9643822  27.1861382  67.1854935
  28.4353371  27.2576141  65.1317215  27.5733414  27.0271072  64.5056763
  28.6684971  28.3221207  65.1553879  29.5054493  26.4440460  64.3490601
  29.1314182  25.4260120  64.2404022  29.5681496  26.9250889  62.9143143
  30.3985519  26.4857597  62.3615799  28.6421223  26.5841351  62.4513626
  29.5627174  28.0145321  62.8799477  30.9305191  26.3752670  65.0003891
  31.4241371  25.4991207  64.5799026  31.5313683  27.2485847  64.7466125
  30.7876244  26.3251610  66.0798187  26.9573212  27.6066799  67.2205124
  25.9614811  27.7750759  66.5242996  27.2245216  28.3217411  68.3154526
  28.1027508  28.2446747  68.8082733  26.2260761  29.1702557  68.9206314
  25.4224243  28.4451504  69.0489578  26.6683941  29.7397079  70.2998276
  27.0683155  28.8755913  70.8303528  27.5131474  30.4187012  70.1838150
  25.6043243  30.4613800  70.9804306  24.9720554  29.8295803  71.3306656
  25.7603321  30.2002907  67.9110565  26.6323280  30.9077263  67.3425446
  24.4799309  30.4414387  67.7316284  23.8770485  29.8317204  68.2653656
  23.8684406  31.4366627  66.8162689  22.9622307  31.8052654  67.2969131
  24.5735016  32.2659454  66.7589264  23.6502113  31.0035191  65.2873611
  22.8523121  31.6278820  64.5582428  24.2643547  29.9429665  64.8711853
  24.9668903  29.5529022  65.4830627  24.1823387  29.4566841  63.4831619
  24.1869469  30.3169975  62.8138809  25.4727879  28.6737366  63.1069450
  25.6144657  27.8278828  63.7796707  25.4604244  28.2196121  62.1161270
  26.6706944  29.5301533  63.0611916  27.1333599  30.4637718  63.9845505
  26.7550278  30.8596687  64.9154358  28.2490482  31.0471611  63.4628716
  28.7675762  31.8023357  63.8882408  28.6287212  30.5112743  62.2515144
  29.6321068  30.8580608  61.3300743  30.2648354  31.6872177  61.6103477
  29.6709995  30.1719456  60.1333923  30.4003029  30.3727112  59.3625412
  28.6808910  29.1955662  59.8150826  28.6747551  28.6835289  58.8641930
  27.6434383  28.9542027  60.7100334  26.9473724  28.1413612  60.5644798
  27.5822620  29.5907345  61.9667625  22.9074841  28.6467552  63.2095757
  22.7908325  27.9829102  62.2323189  21.9551868  28.7318687  64.1067123
  22.1741447  29.4150124  64.8176727  20.7259541  27.9553165  64.1956558
  21.1033688  26.9920559  64.5388565  19.6780949  28.4336185  65.2194977
  19.6275501  29.5127430  65.0744553  18.6750278  28.0673389  65.0008698
  19.8893261  28.0531406  66.6837921  18.9396095  28.3386631  67.1361389
  20.0399437  26.9848232  66.8390808  20.8985367  28.9691353  67.3921585
  21.9069157  29.3225708  66.8055954  20.5140266  29.4102745  68.6154175
  19.7510376  28.8331432  68.9392548  21.2208672  29.8186035  69.2101822
  20.0070934  27.8154850  62.8202095  19.4605179  26.7528496  62.5299911
  20.0427418  28.9012146  62.0385551  20.7969971  29.5423508  62.2389107
  19.2211323  29.0612144  60.7665253  18.7151299  28.1102352  60.6000671
  18.1908455  30.1339931  60.9195251  18.7203751  31.0754929  60.7736588
  17.5287209  29.9380608  60.0761375  17.3955421  30.0131741  62.1514549
  16.3746529  29.0000343  62.3328781  16.1560040  28.3424282  61.5045357
  15.8302011  28.8341122  63.6268158  15.1423244  28.0321941  63.8507614
  16.3048897  29.5987110  64.7222443  15.8435450  29.1246510  65.9266510
  16.1039524  29.6932449  66.6549988  17.3172493  30.6226692  64.5260315
  17.7941170  31.0580101  65.3917542  17.8486996  30.7315826  63.2648468
  18.6407871  31.4648418  63.2283974  20.1460400  29.1760025  59.4866104
  19.6278877  29.3822002  58.3656960  21.4569893  28.9497948  59.5583076
  21.8983402  28.7571106  60.4461021  22.2282429  28.6563263  58.3685150
  22.1412182  29.5100956  57.6965027  23.6960754  28.5780106  58.8123627
  23.8776627  27.7791100  59.5313072  24.5824928  28.2905712  57.6249924
  25.6107502  28.5195026  57.9049301  24.5530834  27.2070446  57.5100746
  24.3681488  28.8839607  56.7361488  24.1425228  29.8823547  59.4650955
  23.7603168  30.6238022  58.7634735  23.7511215  29.9045963  60.4821548
  25.2253017  29.9720459  59.5525551  21.7565918  27.3485317  57.7074547
  21.6392727  26.3554955  58.3597717  21.5273743  27.2793503  56.3519211
  21.3525162  28.4003391  55.4983025  22.3313560  28.8088093  55.2470474
  20.5526562  29.0636501  55.8274574  20.8397808  27.9377117  54.1884689
  21.5628319  28.0595322  53.3819542  19.9538479  28.5532074  54.0322990
  20.5626354  26.4985867  54.2761002  20.9010258  25.8189926  53.4939575
  19.4944515  26.2821732  54.2603073  21.1948967  26.0944824  55.5826950
  20.4669476  25.4834595  56.1163979  22.4520702  25.2378750  55.2199135
  23.4866199  25.6619987  54.7577057  22.3207207  23.9500656  55.5984001
  21.5248432  23.7358437  56.1821709  23.4312801  22.9193020  55.6331253
  24.3235970  23.2554131  55.1050148  23.9675579  22.5560684  57.0812187
  23.0616264  22.1896648  57.5640640  25.1970844  21.6240330  57.1151695
  26.1313992  22.1638851  56.9611320  25.1178036  21.1187496  58.0777206
  25.2037315  20.8379784  56.3600731  24.3008194  23.7977734  57.9133110
  24.3208466  23.4732437  58.9536896  25.2399521  24.2529240  57.5987167
  23.4049091  24.4176693  57.9475746  22.9464569  21.6302013  54.9409103
  21.9422226  21.0698299  55.2937698  23.7199383  21.2554417  53.9053841
  24.5862827  21.7521992  53.7544594  23.5256138  20.1305523  52.9411545
  22.7430363  19.4516850  53.2799988  23.1921997  20.7175922  51.5706367
  23.2600040  19.9071007  50.8449593  21.7808475  21.3166428  51.5440979
  21.1197815  20.5029335  51.8423767  21.6971684  22.0562763  52.3403625
  21.5814190  21.7836590  50.5796165  24.1240616  21.6429634  51.1111488
  24.2555027  22.2936974  51.8045921  24.8276176  19.2828121  52.9061737
  25.8506966  19.8239269  53.1855927  24.6860409  17.9798908  52.7361717
  23.7318649  17.6553249  52.6705399  25.7321644  16.9391022  52.7533493
  26.7521667  17.2962475  52.8952675  25.3574066  16.0425510  53.9385986
  25.3585320  16.6247864  54.8600655  24.3280792  15.7217102  53.7784500
  26.5340004  14.6719246  53.9692039  25.9458466  14.0541153  52.9409637
  25.5612926  16.1142998  51.5080223  24.5017986  15.6547022  51.2069550
  26.6471310  15.8747206  50.8190880  27.4706078  16.3332920  51.1819916
  26.8277874  14.9936323  49.6553574  25.8771782  14.4745007  49.5331154
  27.1122227  15.7781849  48.3901024  26.9149990  15.0781860  47.5781898
  26.4280910  16.6267395  48.3845253  28.5745525  16.3873825  48.2519722
  28.6777153  17.0855484  49.0826492  29.2942619  15.5954466  48.4592323
  28.7746258  17.3746967  46.7456284  30.5665359  17.5983105  46.8246613
  30.9286785  17.9416084  47.7937317  31.0334320  16.6569614  46.5348854
  30.8691845  18.3553009  46.1011429  27.8448410  13.8981590  49.9196167
  28.7733154  13.9570084  50.8601265  27.7470970  12.8728828  49.0659714
  27.0023575  12.9662352  48.3901367  28.8386040  11.9288101  48.8809624
  29.2560692  11.7288771  49.8678017  28.2845039  10.6179953  48.2413864
  27.3948097  10.3229122  48.7976913  27.9554119  10.7233658  47.2076111
  29.2814102   9.4597406  48.3573761  29.0024300   8.7312117  47.5961151
  30.2383289   9.8252897  47.9848366  29.2616844   8.7219715  49.6374016
  28.5394382   7.7052650  49.7212410  29.9602242   9.1810751  50.6072159
  30.5678730   9.9783010  50.4835281  30.0068073   8.6139202  51.4416389
  29.9298019  12.5315180  47.8974037  29.5382080  12.9275017  46.7773857
  31.2241650  12.4209690  48.2606926  31.4219990  11.9272223  49.1192818
  32.3378754  12.6782961  47.4098015  32.1627007  13.6715393  46.9964180
  33.6858673  12.7234383  48.1699753  33.6470490  13.1017218  49.1914902
  33.9320107  11.6943779  48.4317970  34.8974495  13.3478498  47.4306641
  35.8307228  12.8818960  47.7468796  34.6173286  13.2392559  46.3828812
  35.0822563  14.9014740  47.7221260  35.5806618  15.6324053  46.7900314
  34.8013039  15.3700132  48.8456078  32.3853302  11.6784792  46.2643394
  31.9909801  10.5205297  46.4478607  32.8153458  12.1707640  45.0802994
  33.0560226  13.1485291  45.0018654  32.7114143  11.3243895  43.9053383
  31.6977940  10.9237852  43.9189453  32.7487564  12.1210527  42.5572739
  32.0116692  11.6872978  41.8815079  32.4797287  13.1691484  42.6884918
  34.0966759  12.1248312  41.9375496  34.7722435  12.6103315  42.6418190
  34.5330811  11.1261215  41.9528198  34.1112785  12.9788094  40.3604889
  33.0436211  11.7988691  39.4213905  33.3303680  10.7678823  39.6286163
  32.0068893  11.9569311  39.7185402  33.0471268  12.0418530  38.3588295
  33.6890297  10.2040348  44.0597954  34.8348770  10.5378160  44.5186653
  33.3298912   9.0116396  43.6914902  32.3333893   8.9676504  43.5328941
  34.0782280   7.7488642  43.4833679  34.5554428   7.5457931  44.4420815
  33.1978149   6.4929709  43.2313614  32.3792610   6.6122146  43.9411850
  32.8165436   6.6667061  42.2251015  33.9006538   5.2089834  43.5913696
  35.1359901   5.2635736  43.8033867  33.2465324   4.1969662  43.5214043
  35.2324371   7.9118524  42.4095192  34.7922821   8.3940754  41.3592949
  36.4711227   7.5340428  42.6458473  36.6221161   7.2047524  43.5886497
  37.6062508   7.6475749  41.7230911  37.2591324   7.4148855  40.7163811
  38.1070328   9.0504913  41.6769485  37.2213211   9.6130314  41.3817024
  38.7306519   9.5949650  42.9858017  37.8485146   9.7521286  43.6064682
  39.4219742   8.8740063  43.4221382  39.1997986  10.5505562  42.7516098
  39.1718254   9.3891315  40.6767693  38.9390831   8.9243641  39.7186928
  39.1535416  10.4692621  40.5315628  40.1582146   9.0635519  41.0071259
  38.7721405   6.6771250  42.1482811  38.8925705   6.4577250  43.3478355
  39.6612778   6.2270775  41.2272873  39.4711189   6.3575768  40.2439690
  40.7877426   5.4602847  41.6720695  40.5635719   4.7902212  42.5020485
  41.3129921   4.6183867  40.5700798  40.4493484   4.1709814  40.0780983
  42.1314201   5.2994838  39.4397583  41.6957321   6.1672506  38.9445229
  43.1092300   5.4486775  39.8977242  42.1927643   4.7375007  38.5078201
  42.0881882   3.6333101  41.1640892  41.5592651   3.2066934  41.8422050
  41.9243736   6.2927136  42.3490257  42.6188850   5.7615047  43.1658363
  42.0651131   7.5989790  42.0185471  41.3503838   8.0181522  41.4410019
  43.0958977   8.4637194  42.5871201  43.8838844   7.9773307  43.1621056
  43.7224922   8.8575401  41.7868767  42.6516457   9.5539188  43.5537987
  42.0973740  10.5798798  43.1102905  42.8764153   9.3962049  44.8042297
  43.2099152   8.4972496  45.1216545  42.3522644  10.3800049  45.8158035
  42.6831589  11.3949594  45.5956306  41.3078880  10.5172195  45.5355339
  42.6294556  10.0022192  47.2168388  43.0311394   8.8326101  47.5078201
  42.4032097  10.9816685  48.1095390  41.9188614  11.8050766  47.7816582
  42.6275139  10.8327961  49.5159225  43.5525703  10.2644577  49.6126747
  42.8867188  12.1874771  50.2614326  43.4390640  12.8295584  49.5753212
  41.8829498  12.6113052  50.2917252  43.5951462  12.0655508  51.5726433
  42.9218216  11.5291424  52.2412224  44.8299942  11.1693869  51.3904953
  44.5570564  10.1142502  51.4076309  45.2568665  11.4003220  50.4145088
  45.5519104  11.4504585  52.1572647  44.1169472  13.4449425  51.9973640
  44.9321823  13.8321323  51.3861542  43.2573357  14.1150370  51.9854431
  44.5804520  13.3100138  52.9746323  41.5284843  10.0138416  50.1999283
  40.4840813  10.5699873  50.3882942  41.7227745   8.7595577  50.5820045
  42.6542168   8.4016390  50.4257431  40.8558197   7.9178481  51.4433060
  39.8884087   7.8857465  50.9421196  41.3309021   6.5000215  51.7130318
  42.3558769   6.6351156  52.0583992  40.7612381   6.0141315  52.5051765
  41.3198662   5.7702246  50.3518715  40.2960663   5.7033744  49.9838219
  41.7687798   6.3671484  49.5579796  41.9490814   4.4067612  50.4165077
  42.7262154   4.3896189  51.1806259  41.2603569   3.6724892  50.8343620
  42.4403076   3.8458836  49.0698128  41.5874557   3.5341372  48.4668579
  42.9195671   4.6238279  48.4754944  43.3786583   2.7336941  49.1116600
  43.0566139   2.0622647  49.7939835  43.3695908   2.2132776  48.2461014
  44.3237534   2.9688807  49.3792076  40.5251961   8.6637840  52.7757072
  41.3000832   9.4189749  53.2764359  39.3553848   8.4210835  53.4120369
  38.7460823   7.7138462  53.0264664  38.9073067   8.9071074  54.7209854
  37.8376732   8.7544327  54.8647842  39.4593391   8.0216274  55.8626671
  40.5077477   8.3139858  55.9215393  39.0134621   8.1979570  56.8415413
  39.3239822   6.5158629  55.6304779  38.2493858   6.3817072  55.5065994
  39.8463860   6.2003222  54.7273521  39.7508545   5.6451850  56.7404518
  40.7016258   5.9896760  57.1472206  39.0128593   5.6184363  57.5421677
  40.0792351   4.2317090  56.1863556  39.1718330   3.9426851  55.6560898
  40.8574333   4.4244413  55.4478683  40.5166740   3.2413166  57.2086601
  39.7739258   3.1407320  57.8856430  40.7908974   2.3432717  56.8366127
  41.3598137   3.5934610  57.6390228  39.0463562  10.3731050  54.8739929
  39.7801704  10.8765287  55.6661034  38.2986946  11.1455927  54.0351143
  37.6617775  10.7045822  53.3870850  38.4421730  12.5675135  53.8545799
  38.9433479  13.1342735  54.6392555  39.2008972  12.9293213  52.5617599
  40.2048645  12.5075855  52.6096611  38.6051941  12.6124544  51.7057037
  39.3863831  14.7503700  52.3328247  39.3831024  15.0746927  53.6288567
  37.0190277  13.2141333  53.9549026  36.0308533  12.6749649  53.4769745
  36.9442329  14.3263416  54.6991158  37.7503471  14.7107449  55.1708221
  35.8075294  15.2196064  54.6966667  34.8923492  14.7947111  54.2843323
  35.5303802  15.5093679  56.1946030  36.4102058  15.9979801  56.6132584
  34.4781799  16.6228714  56.4835777  34.7717323  17.4817867  55.8800888
  33.5516357  16.2856140  56.0189476  34.3933029  16.7024479  57.5673485
  35.0678520  14.2972307  57.0683174  34.1923981  14.5206556  57.6780434
  34.8440132  13.5444221  56.3124924  36.2603569  13.7959633  57.9409142
  36.0235748  12.8028631  58.3227348  37.1309547  13.7000141  57.2920990
  36.2723656  14.5200691  58.7555466  36.1650848  16.5465145  54.0485268
  37.2467384  17.0599213  54.2597694  35.1725197  17.2198448  53.4656258
  34.1887436  16.9942684  53.5030823  35.4055519  18.5306377  52.8718872
  36.3268852  18.9302197  53.2956543  35.7579079  18.4328175  51.3455582
  34.8694382  18.1032982  50.8069115  35.8777733  19.4681473  51.0264549
  36.9046173  17.5995979  50.9009781  37.7341309  17.9978390  51.4852791
  36.8459702  16.5710812  51.2570915  37.1802292  17.6441040  49.3841171
  36.3170662  17.1866894  48.9005585  37.2403183  18.6558952  48.9831619
  38.3628578  16.8919582  49.0201607  39.1225929  17.4237690  48.6200638
  38.5368423  15.6369781  48.8623390  37.6456947  14.7629519  49.1950912
  36.6625595  14.9935799  49.2139740  37.8714905  13.7798119  49.2456017
  39.6854706  15.2097330  48.5612869  40.5084877  15.7413759  48.3161278
  39.7835007  14.2059650  48.6155243  34.1621437  19.4311275  52.9957047
  33.0408936  18.9894485  53.1147041  34.4199829  20.7495632  53.0804558
  35.4088669  20.9495411  53.0333900  33.4836884  21.8382664  53.2315445
  32.4904861  21.4066467  53.1076126  33.5028839  22.4768524  54.6442413
  33.5075645  21.6466484  55.3505287  34.7198715  23.2915363  54.8521614
  34.6722984  24.1751804  54.2157631  34.8950157  23.6452541  55.8681870
  35.6339111  22.7754822  54.5583534  32.2967682  23.3808670  54.9431648
  32.2525444  24.2955952  54.3520546  31.3486443  22.8803864  54.7465019
  32.3874245  23.6232319  56.0020103  33.5617943  22.9868507  52.1111832
  34.6696815  23.4039822  51.8414955  32.4177475  23.2827778  51.4932098
  31.5426502  22.8297081  51.7146416  32.1812553  24.5513783  50.7449684
  33.1372719  25.0518570  50.5911674  31.6774979  24.2931862  49.3163033
  32.4022331  23.5741005  48.9344940  30.7024956  23.8085651  49.3673935
  31.6733627  25.5179939  48.3419647  30.7024860  25.6490173  47.8641243
  31.7808552  26.4083004  48.9615669  32.8558464  25.4529839  47.0042992
  32.1915359  23.9986629  46.2276268  31.4247913  24.3058071  45.5163803
  32.9458504  23.4915447  45.6260109  31.6642303  23.3085537  46.8862610
  31.3379669  25.4533787  51.6427574  30.1580086  25.2577209  51.8280449
  31.8325348  26.5978355  52.0735817  32.8256035  26.6758499  51.9067535
  31.0662136  27.5924015  52.8993759  30.0099220  27.4080887  53.0952759
  31.6731091  27.7608509  54.2915840  31.6043262  26.7999859  54.8015938
  32.7022171  28.1186962  54.2602768  30.8018589  28.8526287  55.0859261
  30.9295559  29.8308334  54.6223412  29.7484303  28.5978718  54.9697838
  31.2000809  29.1159401  56.8345947  32.6458130  30.0926514  56.7040749
  32.5675964  30.8991737  55.9750328  32.8371620  30.5478077  57.6758347
  33.5601730  29.5590000  56.4447212  31.0223770  28.9115334  52.0851517
  32.0299797  29.5373936  51.7477150  29.8104401  29.3507423  51.6526146
  28.9465275  28.9806004  52.0224152  29.7428150  30.5348663  50.7842445
  30.7175064  30.8069401  50.3792152  28.9161453  30.3336563  49.4978561
  27.8742886  30.2210960  49.7978134  29.0022488  31.4751644  48.4649963
  30.0360794  31.5116196  48.1215363  28.2519951  31.3544598  47.6835556
  28.6741543  32.3513145  49.0242958  29.4062614  29.1609135  48.8837814
  29.1656189  28.5149727  49.5519524  29.3011436  31.6931076  51.6778259
  28.3851929  31.5305786  52.4653282  29.9425907  32.8654060  51.6044540
  30.5448532  33.0387917  50.8124199  29.6047134  34.0074730  52.4463348
  28.6357975  33.8745499  52.9276199  30.6575584  34.1224213  53.5970116
  30.3090992  34.9619865  54.1985207  30.6520767  32.8476906  54.5175743
  30.8166027  31.9764500  53.8835640  31.5455284  32.9772339  55.1283607
  29.7384682  32.7904129  55.1093025  32.0918579  34.3804207  53.1477814
  32.4410515  33.5653839  52.5138435  32.1033401  35.4013596  52.7661362
  32.8091736  34.3480377  53.9678497  29.6126480  35.2964211  51.6534081
  30.2916412  35.3524666  50.6046486  28.8514137  36.2951355  52.1767654
  28.2230015  36.0872955  52.9396553  28.9673672  37.7014847  51.7903366
  28.9483891  37.7374725  50.7010956  27.7017422  38.5118980  52.2001762
  26.7740021  37.9765358  51.9982147  27.6753464  38.5685349  53.2883835
  27.5327415  39.9510193  51.6920128  28.1150703  40.6031113  52.3429832
  28.0420837  39.9565849  50.7283554  26.0961094  40.4345512  51.4470482
  25.5399265  40.2532425  50.3740921  25.5958252  41.2436638  52.4018745
  26.1606293  41.2623291  53.2389870  24.8147221  41.8360977  52.1589775
  30.2813587  38.3495331  52.2894249  30.5081558  38.3753624  53.5134621
  31.0984631  38.9913368  51.4423332  30.8038330  38.9865494  50.4762726
  32.4356308  39.5089722  51.7290382  32.4214668  40.1602669  52.6029472
  33.3197746  38.4106483  52.2181282  32.8361588  37.8851509  53.0415802
  33.7392502  37.4182243  51.1608276  34.3849144  37.7712440  50.3567123
  34.3797226  36.6983223  51.6703720  32.8560486  36.9751625  50.7006569
  34.5549774  38.9061852  52.7487411  34.8125725  38.2635841  53.4138031
  33.0564003  40.3299141  50.5162926  32.8248177  40.0655403  49.3523254
  33.6975365  41.3808136  50.8953972  33.9110069  41.4946098  51.8759995
  34.4586754  42.3011589  50.0942116  33.9031754  42.4027252  49.1619034
  34.5449753  43.6448936  50.8197250  33.6494675  43.8338203  51.4117355
  35.3796349  43.5818787  51.5179176  34.5598145  44.8720665  49.9558830
  34.9570923  45.9834442  50.4108887  34.1767578  44.7534904  48.7745018
  35.9107170  41.8001060  49.6977997  36.7012863  42.3565331  48.9154358
  36.4115372  40.6901169  50.3050461  35.8661652  40.2282372  51.0187263
  37.7651520  40.0984650  50.1757622  38.5008354  40.8826790  50.3543129
  37.9885902  39.0450668  51.2310982  37.1792068  38.3212700  51.1356125
  39.3643570  38.2972755  51.0596123  40.1250610  39.0746002  50.9875412
  39.4568596  37.6838036  51.9558258  39.3772278  37.7243156  50.1324387
  38.1743050  39.6827927  52.6720581  37.4116936  40.4220505  52.9170341
  38.0978546  38.9209480  53.4478493  39.1212273  40.1858711  52.8679047
  37.9947205  39.5453110  48.7197723  37.1270103  38.8843117  48.1878586
  39.1497307  39.8801384  48.0733681  40.0448227  41.0592613  48.3764191
  40.7316093  40.8766937  49.2029152  39.3907585  41.8792381  48.6729622
  40.9118614  41.2519341  47.1534500  41.8875275  41.6783714  47.3865166
  40.3847961  41.9307747  46.4830170  40.9610634  39.7980042  46.6379242
  41.5913429  39.1614456  47.2589226  41.1590385  39.8317070  45.5665817
  39.5408554  39.2438583  46.8144836  38.9175262  39.6027756  45.9954987
  39.4700241  37.7159691  46.8624878  39.8797684  37.0980225  47.8512611
  39.0619278  37.0996399  45.7597198  38.7775574  37.6494675  44.9616432
  39.2521362  35.6577454  45.4338493  38.6833687  34.9874763  46.0783272
  38.6956482  35.4717522  43.9968109  37.8446732  36.1373253  43.8520355
  39.4175110  35.8512306  43.2736168  38.3689613  34.0454750  43.5143509
  39.2757339  33.4713478  43.7047157  37.4985924  33.6860771  44.0633392
  38.1935806  33.9105721  41.9584274  39.1477089  33.9583015  41.1216278
  37.0115814  33.7528114  41.5364532  36.1986580  33.7990952  42.1340408
  36.8197365  33.6581955  40.5493660  40.6967049  35.0329933  45.5427246
  40.7709770  33.8807716  45.9883308  41.7790565  35.8407936  45.4045143
  41.6662025  36.8208160  45.1879044  43.1957321  35.4452782  45.8003922
  43.2022095  34.3568726  45.7418098  44.1757431  36.0291595  44.8573341
  45.1582298  35.5791206  44.9997749  43.8973389  35.6578445  43.8710709
  44.3676300  37.5430489  44.8866196  43.4102974  38.2709274  45.2202644
  45.4687386  37.9926262  44.5333939  43.6008911  35.7591782  47.2583084
  44.6135406  35.2067108  47.6752968  42.6724701  36.4318237  47.9798012
  41.8102417  36.7727242  47.5792427  42.8130760  36.7055092  49.4630547
  43.7696075  36.3216438  49.8177261  42.7785568  38.2291908  49.7316017
  41.8879700  38.6026268  49.2261314  42.6905289  38.4892654  50.7864532
  44.0615807  38.9926186  49.1896439  44.9408989  38.7840996  49.7990913
  44.2079430  38.6081390  48.1802635  43.9306183  40.5166817  49.2076187
  43.2907181  41.0974579  50.0573387  44.5906792  41.1534309  48.2874985
  45.1724243  40.5883713  47.6855164  44.5703659  42.1606178  48.3600388
  41.9055977  35.9638596  50.4379807  41.9967842  36.1570282  51.6683273
  41.0838966  35.0375938  50.0157166  41.0688934  34.9174690  49.0130005
  40.3428116  34.1609344  50.8659782  39.8551216  34.7080078  51.6728058
  39.2187996  33.4673843  50.1219978  39.6129723  32.9711647  49.2351532
  38.6084099  32.3314590  51.0096741  37.7347755  31.8745956  50.5447617
  39.3533821  31.5477200  51.1470261  38.3409576  32.6497116  52.0172882
  38.1683121  34.5901604  49.8655205  37.5865746  34.8153496  50.7593727
  38.6586571  35.5421219  49.6619453  37.2553978  34.0933609  48.7856216
  36.5598869  34.8955460  48.5389214  37.8198662  33.9980888  47.8580475
  36.7789192  33.1214867  48.9141655  41.2785988  33.1443253  51.5317841
  42.0684319  32.4767189  50.9674797  41.1080894  32.8938789  52.8749847
  40.3944626  33.3903961  53.3890953  41.7504616  31.7380066  53.5676460
  42.6182976  31.5459480  52.9367180  42.1334572  32.0271530  55.0363960
  41.2018929  32.2213097  55.5679855  42.4802132  31.0903034  55.4724884
  43.2322350  33.1096954  55.1711311  44.0845528  32.8261032  54.5536919
  42.8302765  34.0911484  54.9195824  43.8976593  33.2506332  56.4976883
  43.2175331  33.4755821  57.3192291  44.4300156  32.3302193  56.7375488
  44.9416237  34.2337952  56.4494286  44.8687935  34.9078674  55.7008133
  45.7698593  34.5783310  57.4234161  45.9436264  33.9651375  58.5468864
  46.5435219  34.2946854  59.2896042  45.3291435  33.1853676  58.7325554
  46.6655312  35.4360962  57.1856918  47.1927452  35.7587471  57.9844666
  46.7727585  35.7731819  56.2396622  41.0783157  30.4093685  53.6164207
  40.1050911  30.1958714  54.3176537  41.5792503  29.5402508  52.6929817
  42.4542122  29.6933022  52.2122383  41.0805702  28.1578083  52.5338173
  40.0673447  28.2703648  52.9195671  41.0668831  27.6990910  51.0782204
  42.0440140  27.5410728  50.6217690  40.5411682  26.7511063  51.1924324
  40.1545868  28.5531273  50.1358261  38.8275414  28.4925404  49.8979607
  38.5750580  29.3568115  48.9075775  37.6139679  29.6066303  48.4829597
  39.7425156  29.8975906  48.4263802  39.8070221  30.6096478  47.7129974
  40.7372665  29.4314823  49.2548752  41.7645531  29.7530632  49.1673088
  41.7984772  27.1854477  53.4197617  43.0316162  27.1065807  53.3334656
  41.0950661  26.4821110  54.2765656  40.0904274  26.5739651  54.2279091
  41.8501015  25.8109913  55.3862686  42.8517990  26.2299118  55.4822197
  41.1420135  26.0935211  56.7806816  40.1899757  25.5643425  56.8218651
  41.9620247  25.4705429  57.9697533  41.4448166  25.6563873  58.9110603
  41.9692688  24.3805676  57.9691238  42.9205818  25.9773159  58.0813637
  41.0206871  27.5874329  56.9886932  41.8773575  28.1620808  56.6365585
  40.2068672  28.0192699  56.4061890  40.8154640  27.9420929  57.9987450
  41.8941917  24.2978592  55.0792961  40.8489838  23.6268368  55.1036644
  43.1188545  23.7488995  54.9390717  43.9360237  24.3387699  54.8728294
  43.4034729  22.3322754  54.7532158  42.5140610  21.7033901  54.7926254
  44.0631218  22.1769810  53.4054871  44.9757690  22.7707062  53.3538933
  44.3784637  21.1347656  53.4549294  43.2301788  22.4636230  52.2273750
  42.8405724  23.7350750  51.8179474  43.2283401  24.5743198  52.3762589
  42.0351601  24.0141869  50.6347198  41.6678467  24.9779778  50.3144188
  41.6199341  22.9069672  49.8677979  40.7244225  23.0604324  48.8596230
  40.7329903  22.2895927  48.2874947  41.9968796  21.5718002  50.2715340
  41.5945625  20.7953949  49.6377068  42.7794495  21.3229618  51.4473457
  43.0501671  20.3367424  51.7944641  44.3030853  21.8320713  55.9834442
  45.4215775  22.3337364  56.2702789  43.7352295  20.8704262  56.7213631
  42.7921448  20.6408768  56.4420776  44.2378197  20.2824039  57.9923134
  45.1324997  20.8710270  58.1952400  43.3142967  20.5342503  59.1816788
  42.3983765  19.9435062  59.1672211  43.8136215  20.2050343  60.0929413
  42.9529495  21.9906921  59.5670662  42.3488998  22.3701859  58.7429237
  42.1325951  22.1261864  60.8182945  42.7299500  21.8973866  61.7008629
  41.7836533  23.1581554  60.8554459  41.2428474  21.4981937  60.7727242
  44.2307053  22.8347683  59.7262764  44.8333549  22.5105190  60.5746727
  44.9091225  22.6787357  58.8875198  43.8497162  23.8547497  59.7771187
  44.5062027  18.7722702  57.7735252  44.1199837  18.1584473  56.8005562
  45.1660690  18.1842327  58.7975693  45.6293411  18.7208138  59.5169830
  45.5748062  16.7617607  58.9919701  46.2611923  16.6864452  59.8353615
  44.4354973  15.8076820  59.2862015  43.9345970  15.7975922  58.3181610
  44.7679443  14.7711954  59.3434181  43.5390739  16.2018986  60.4970741
  43.2015419  17.2199211  60.3026390  42.6718521  15.5561295  60.6349449
  44.3221169  16.1865807  61.7729340  45.1488609  15.2213249  61.9673424
  44.0751686  17.0514984  62.6764832  46.3598328  16.3440094  57.7164726
  47.1433105  17.1689529  57.2193565  46.0788956  15.1098480  57.1925659
  45.3482208  14.4696426  57.4688873  46.7384186  14.7638502  55.9664574
  47.8045425  14.9837618  56.0222511  46.5269928  13.1976967  55.7936249
  45.4619865  12.9689417  55.8328362  46.8978920  12.8692303  54.8227196
  47.2245865  12.4511852  56.8792419  48.2983742  12.3885212  56.7027397
  47.1401520  13.0229511  57.8033905  46.6513443  11.0689287  57.0414429
  45.6004181  11.0630770  57.3306198  46.5974121  10.6370869  56.0420914
  47.4920387  10.2950077  57.9609261  48.5642319  10.3840790  57.7860870
  47.2997055  10.6191454  58.9836922  47.2085228   8.8535194  57.9508247
  46.7451286   8.4766359  57.1363792  48.0804482   8.3684950  58.1076698
  46.5865059   8.7983437  58.7446442  46.2762871  15.4839048  54.6453247
  46.8286591  15.2589493  53.6160278  45.2552528  16.3185272  54.7107811
  44.9424286  16.5510330  55.6425438  44.5725975  16.9131317  53.5482216
  44.5578766  16.1433735  52.7766228  43.0943375  17.1885757  53.7925720
  42.9680824  17.9101849  54.5996857  42.7106094  17.5847149  52.8523979
  42.6806679  16.2105160  54.0382957  45.1894226  18.1719589  52.9317627
  44.9105301  18.5998745  51.8422928  46.2543945  18.7879181  53.5787773
  46.4011536  18.6063232  54.5614166  47.0470200  19.7985706  52.9157219
  46.3514099  20.5828686  52.6172066  47.8311272  20.4541569  54.0628471
  47.0405922  20.6936417  54.7740402  48.8600998  19.6177330  54.8255119
  48.3928490  18.8637295  55.4589691  49.4163170  19.0378036  54.0890274
  49.5365067  20.2046871  55.4468498  48.5791969  21.7685986  53.6492691
  47.9525604  22.4422359  53.0647736  49.0227547  22.3341236  54.4687462
  49.3919106  21.4359837  53.0035400  47.8764153  19.4079113  51.6846962
  48.0777435  20.3176384  50.8016891  48.2199059  18.0917473  51.4336662
  48.2084236  17.4778996  52.2356377  48.5691681  17.4973488  50.1195068
  49.5966148  17.7546520  49.8621101  48.4938850  15.9588413  50.2989807
  49.0149193  15.5516739  51.1654892  47.0670662  15.3895788  50.3431740
  46.5185432  15.9954977  51.0643425  46.5219727  15.5763597  49.4179230
  47.0417557  14.3180923  50.5416069  49.2122955  15.3576479  49.1061325
  48.7656593  15.5639725  48.1334839  50.2527657  15.6824846  49.1066704
  49.1870804  14.2679853  49.0959053  47.6252937  17.8986912  48.9342918
  48.0214157  18.0499706  47.8089676  46.3281364  18.1276760  49.3036232
  46.0529213  17.9991074  50.2668648  45.3119850  18.5101070  48.3182259
  45.4572601  17.8476429  47.4649200  43.9276428  18.4922981  48.8696251
  43.9333801  19.1301422  49.7534943  43.2640038  18.9516182  48.1370239
  43.4374428  17.1123791  49.3115234  44.0514870  16.7292271  50.1265411
  41.9866524  17.2130852  49.6812553  41.8996696  17.9884262  50.4424286
  41.3699570  17.4229374  48.8073273  41.6204834  16.2701740  50.0873871
  43.5223808  16.0611973  48.2006798  43.1898384  15.0691404  48.5061874
  42.8888168  16.3841000  47.3745842  44.5162849  16.0021992  47.7570877
  45.4734421  19.9550419  47.7177887  45.2573776  20.1917915  46.5368843
  46.0030327  20.9550438  48.4920578  46.3132629  20.7409363  49.4290810
  46.4352722  22.2961655  48.0004883  46.5622864  22.2620735  46.9184494
  45.1583862  23.2162399  48.0297661  44.8495903  23.2793903  49.0732002
  45.5203705  24.2214680  47.8139229  43.9904060  22.8912468  47.1806297
  43.5666237  21.9332848  47.4819908  43.1807213  23.5770321  47.4300652
  44.2917633  22.8645439  45.6365242  45.0855446  22.1790829  45.3396111
  43.4624176  22.4006538  45.1025810  44.5985794  24.2006969  45.0678635
  45.5606232  24.4596043  45.2338142  43.8343925  24.9674702  44.3597374
  42.5774803  24.6190548  44.2471542  41.8873253  25.2155895  43.8136482
  42.2581139  23.7563763  44.6641617  44.3550568  26.0664291  43.8454781
  43.6976089  26.7595043  43.5175819  45.3309174  26.3175755  43.9142342
  47.7253876  22.9836159  48.6084328  47.6415291  24.0860252  49.1618996
  48.9134026  22.4342461  48.3990097  49.2971306  21.2087669  47.6589394
  49.7313805  21.5589523  46.7225113  48.4528580  20.6029949  47.3297806
  50.4590683  20.5817471  48.3796959  51.0811577  19.9319611  47.7641602
  50.1353264  20.0796471  49.2913933  51.1275597  21.8825111  48.9091415
  51.9460869  22.1527214  48.2419853  51.7046509  21.6685028  49.8087349
  50.1219063  23.0250854  49.0204582  49.8918266  23.1221390  50.0814705
  50.5203362  24.3077469  48.2168922  51.3817329  25.0188427  48.7088547
  49.9879341  24.5728493  46.9795647  49.2567902  23.9355125  46.6978989
  50.0335426  25.7804775  46.2362404  51.0215225  26.2314625  46.1434517
  49.3573799  25.5772095  44.8358650  49.5185966  26.5082531  44.2924805
  49.9436569  24.8556271  44.2669106  47.8137817  25.2555199  44.8031578
  47.2803726  24.4625950  45.6703987  47.1243515  25.8170795  43.9180870
  49.1561394  26.8415813  46.8923988  49.6852684  27.9910202  46.8679199
  48.0315208  26.5944939  47.4940300  47.6115608  25.6824245  47.6029739
  47.3080101  27.5315437  48.2898979  47.3847122  28.5468063  47.9007149
  45.8290253  27.1498928  48.4361687  45.8215866  26.2763519  49.0880661
  45.3388901  27.8904705  49.0681572  45.0113449  27.1058006  47.1605301
  45.3755798  26.4310875  46.3858070  43.5498352  26.7548656  47.4214478
  43.0668678  26.3166084  46.5480728  43.5014267  25.9866695  48.1932182
  42.9871178  27.6001377  47.8176270  45.0713692  28.4270802  46.3444405
  46.0777779  28.6619034  45.9978714  44.2892761  28.3848362  45.5863876
  44.8281822  29.2096329  47.0631714  47.8466187  27.7050114  49.6792679
  48.0170250  28.7784061  50.1628876  48.0084229  26.5772610  50.3412514
  47.8883705  25.6761112  49.9012337  48.3451614  26.6144676  51.7453766
  47.6140671  27.1768990  52.3261299  48.4966354  25.2070312  52.2832794
  49.2469063  24.6113663  51.7633018  48.7819138  25.1367378  53.3329315
  47.2018471  24.5160503  52.1356316  47.1367683  24.1405754  51.2545052
  49.6783485  27.3026218  51.9723434  50.7081947  26.9817734  51.3913651
  49.7646523  28.1939774  53.0465012  49.0299263  28.1908607  53.7395172
  50.9055405  28.9916725  53.3818207  50.5777016  29.8466377  53.9731369
  51.9148140  28.2226734  54.3341293  52.2496338  27.3411503  53.7873955
  52.7509651  28.8700237  54.5984955  51.2075348  27.7862110  55.6762199
  50.3761635  27.2070961  55.2742767  52.0604210  26.8149452  56.4515800
  52.6961403  27.3523827  57.1552353  51.3632965  26.1292229  56.9331398
  52.7345009  26.2781677  55.7840538  50.6605873  28.9596024  56.4344063
  50.3695107  28.6925392  57.4503021  51.5320663  29.6141815  56.4221001
  49.8219452  29.4067955  55.9007492  51.6135979  29.7156754  52.2069473
  52.8862228  29.8992805  52.2355270  50.8099174  30.1595993  51.2014923
  49.8533745  29.8384724  51.1567039  51.3958092  30.6443272  49.9495621
  52.1896553  29.9789124  49.6102524  50.2294807  30.6764011  48.8482170
  49.7413902  29.7021675  48.8753395  49.1646957  31.6764889  49.2458000
  48.3284760  31.5248241  48.5632858  48.8099365  31.6115856  50.2744064
  49.6443939  32.6397781  49.0724335  50.6659813  30.9662781  47.5685196
  50.4068298  30.1985130  47.0537605  52.0203438  32.0562057  50.0788956
  52.0292473  32.7886887  51.0358658  52.7722168  32.3986435  49.0418243
  52.6193008  31.9688301  48.1407242  53.7453270  33.5802956  48.9891548
  54.5401306  33.3721619  49.7054405  54.3586884  33.4982567  47.5215225
  55.1869812  34.2065239  47.5017929  54.6974831  32.4731789  47.3713989
  53.4761276  33.8421021  46.3311653  52.8207321  33.0179367  46.0495529
  52.8681107  34.7301254  46.5038872  54.2939262  34.0548553  44.9863281
  55.1213074  34.7331009  45.1949615  54.8333740  33.1391106  44.7444420
  53.3945465  34.5885658  43.9314613  52.4990540  33.9671745  43.9229393
  53.1156998  35.6018715  44.2205162  54.1749840  34.6002960  42.6723595
  54.8357315  35.3578796  42.5744896  54.4950371  33.6832924  42.3952866
  53.4704857  34.7314491  41.9606133  53.1332626  34.9439316  49.3415565
  53.8358269  35.8296127  49.8623695  51.9149055  35.1173935  48.8702164
  51.4796486  34.3372803  48.3989754  51.0295677  36.2482185  48.9527016
  51.3272514  37.0030632  48.2249031  49.5716972  35.7790451  48.7470474
  49.5138588  35.2608719  47.7898407  49.3492241  35.1070976  49.5759583
  48.6722412  36.9484901  48.5636597  48.5528145  37.9431686  49.2825966
  47.9333687  36.8782349  47.4873962  47.8534279  36.0186501  46.9631615
  47.2433624  37.6039925  47.3559799  51.1177788  36.8047218  50.4453697
  51.0220871  36.0882912  51.4418411  51.3882980  38.0849037  50.5896339
  51.3064308  38.7023010  49.7945137  51.5465889  38.8587379  51.8702621
  51.5873222  38.0852165  52.6371422  52.8832130  39.6800919  51.9816208
  52.8711395  40.1926460  52.9435158  53.8938446  38.6061592  52.0840721
  54.8566628  39.0836105  52.2660599  53.7836380  37.9887886  52.9755898
  53.8950081  38.0159607  51.1676865  53.0889244  40.4773560  50.7882042
  52.4563980  41.1865158  50.9246178  50.4089241  39.8063469  52.2377243
  50.3123550  40.4809952  53.2417603  49.3177719  39.7592659  51.3738518
  49.3064613  39.1349983  50.5799599  47.9709206  40.3591232  51.7289810
  48.1095009  41.1332855  52.4836769  47.2651825  40.9272499  50.4691963
  47.1935234  40.1251183  49.7346573  46.2416534  41.2218819  50.7008896
  47.7820702  42.2096634  49.8859215  48.7554054  41.8423691  49.5606155
  47.2687988  42.5567513  48.9891586  47.9735146  43.4289780  50.8819008
  49.1444206  43.9010162  51.0269699  46.9770966  43.9139557  51.4991188
  46.9845352  39.2308083  52.1480331  45.9325027  39.5873489  52.6922264
  47.2829285  37.8747139  51.9883995  48.1128464  37.6382675  51.4635849
  46.5498695  36.7026253  52.4848137  45.4852600  36.8107376  52.2774048
  47.0035591  35.4952698  51.7048378  46.8844147  35.7087250  50.6426048
  48.0823326  35.3394279  51.7122993  46.2819023  34.1862450  52.1412888
  46.2352066  34.0919991  53.2262039  44.9261703  34.1011887  51.4341774
  45.1245193  34.1311455  50.3628006  44.4113541  33.1815834  51.7123680
  44.2516212  34.9114113  51.7109833  47.0789070  32.9879227  51.6417160
  47.0914345  32.9202576  50.5538940  48.0736465  33.0039864  52.0870628
  46.4918938  32.1484718  52.0143318  46.5534096  36.5986481  54.0851517
  47.5933075  36.4715919  54.7732582  45.4682312  36.4904976  54.6645851
  18.6090183  42.4081535  52.0212250  17.7256756  42.7963295  52.3197594
  18.9197693  41.9057999  52.8404808  19.2419872  43.1850204  51.8950233
  18.4855156  41.5453339  50.8360329  17.6703129  40.8280640  50.9312477
  18.0979328  42.4683037  49.5871696  17.0855885  42.8614693  49.6803398
  18.8850002  43.2199783  49.6472778  18.0547047  41.6421318  48.2901382
  17.6565056  42.1757240  47.4271088  19.0584011  41.4148560  47.9309158
  16.8419857  40.3087349  48.2351875  15.3983555  41.4247169  48.0357513
  15.5317822  42.1678619  47.2496033  14.4159031  40.9746590  47.8931427
  15.3481379  42.0349731  48.9375076  19.7606621  40.7955513  50.5992622
  20.7842712  41.4440689  50.2889595  19.7531624  39.4451904  50.6031227
  18.9685268  38.9093819  50.9456978  20.9629745  38.5892715  50.4510193
  21.7006607  39.1512680  49.8782272  21.5452690  38.1159477  51.7478409
  21.2196274  38.8280563  52.5060997  21.1568871  37.1360092  52.0253143
  23.0568790  38.1352768  51.6385155  23.5172157  37.5102692  50.8732986
  23.3580799  39.1745262  51.5068474  23.9026871  37.6722946  53.1965218
  24.0782890  35.9174881  53.0172691  24.2759705  35.5336304  54.0181046
  23.1806107  35.5008430  52.5604515  24.9408379  35.6021004  52.4302101
  20.6469803  37.4114304  49.5545921  19.5908928  36.8418694  49.5798607
  21.6384735  36.8533096  48.8691864  22.5452557  37.2750282  48.7277641
  21.4539795  35.4883080  48.3797684  20.4830532  35.3298759  47.9104042
  22.4590111  35.2519341  47.2950439  23.4442005  35.4281769  47.7268372
  22.4550209  33.8128738  46.8238983  23.1071224  33.7686119  45.9515991
  22.7314415  33.0798416  47.5817604  21.4776287  33.6196976  46.3817635
  22.1708832  36.1657677  46.1085777  21.3312302  35.7729912  45.5351601
  21.8329639  37.1013489  46.5542297  23.3892498  36.6565552  45.3241615
  23.0005379  37.2442055  44.4924889  23.9959145  37.2981415  45.9632416
  23.9633083  35.8211479  44.9233437  21.6150169  34.4801025  49.4899940
  22.4647064  34.5625153  50.2470512  20.6847687  33.4762688  49.6493073
  19.8249702  33.4810181  49.1193771  20.5941219  32.5332832  50.7584343
  21.5903435  32.4093018  51.1830215  19.6185913  33.0047798  51.8162270
  18.6485271  33.1183929  51.3323212  19.3609409  32.2884560  52.5963516
  20.0168209  34.3241539  52.5844688  21.0988960  34.4552383  52.5899467
  19.6874046  35.1737099  51.9862671  19.4598923  34.4514923  53.9861641
  18.4058628  34.5655022  53.7329330  19.6707382  33.5368271  54.5402679
  19.8229351  35.7016335  54.6329498  19.2772408  36.5265770  54.4285202
  21.0491047  35.9057770  55.1977730  21.8792801  34.9525070  55.3781929
  22.8102531  35.2584877  55.6226692  21.6197777  33.9848938  55.2498169
  21.4360294  37.1059875  55.4572334  20.8870144  37.8966751  55.1514664
  22.4044342  37.1014290  55.7440681  20.0367546  31.1426601  50.2778549
  19.2823563  31.0762482  49.2653999  20.4376564  30.0620651  50.8828468
  21.1423035  30.2245083  51.5879593  19.8249416  28.7965851  50.6731415
  19.6266556  28.7169628  49.6042900  20.5711498  28.0425587  50.9235764
  18.4924679  28.6565495  51.4043198  18.3834209  29.1108570  52.5108109
  17.5253296  27.9594326  50.8586273  17.6711369  27.5968685  49.9272919
  16.2930965  27.5209465  51.4769936  16.4398308  27.5295448  52.5570412
  15.1021776  28.4300289  51.0824203  14.7419634  28.1527920  50.0917206
  14.0630484  28.1606998  52.1209984  13.2786732  28.9146576  52.1873207
  13.5770979  27.2165260  51.8750496  14.5680504  28.1012497  53.0851288
  15.5602694  29.9264812  50.9442406  15.9366417  30.3308525  51.8838844
  16.3861885  30.1028442  50.2551384  14.3598185  30.8329334  50.5785713
  13.7082214  30.3385715  49.8580627  13.8178577  31.0210476  51.5053902
  14.6398878  31.7777939  50.1128502  16.1307926  26.0694981  51.1207237
  16.1766777  25.6848049  49.9589157  15.8245668  25.2585011  52.1444206
  15.8178806  25.5668030  53.1061935  15.9523983  23.7649250  52.1102371
  16.4011421  23.4391270  51.1718407  16.8166466  23.0774536  53.2152061
  16.5570755  23.4891396  54.1905212  16.7388668  21.9902859  53.2045097
  18.3562927  23.3305569  53.0350189  18.7911549  23.0541058  52.0745163
  18.5198898  24.4080677  53.0526428  19.1715679  22.6622925  54.1588211
  20.2148705  22.9773140  54.1783066  18.7756863  22.9795494  55.1235695
  19.1005993  21.2430611  53.8596191  19.1572380  21.0001125  52.8809090
  19.1487198  20.1727734  54.6099358  19.3502617  20.3182430  55.8738136
  19.4677677  21.2850399  56.1413956  18.8402157  19.6760426  56.4633369
  19.0039177  18.9919872  54.1087761  18.8795357  19.0011215  53.1065063
  18.9895000  18.1891270  54.7214012  14.5586662  23.0222111  52.1186905
  13.6556787  23.5257206  52.7632713  14.6059198  21.7459164  51.7104950
  15.3977652  21.4198112  51.1750145  13.4993696  20.8202305  52.0540924
  13.2614412  20.9106312  53.1139603  12.6590672  21.1267376  51.4311600
  13.8325138  19.3555279  51.8057060  14.8715057  19.1154881  51.1832390
  12.9247952  18.4639282  52.1583214  12.1377563  18.7459087  52.7250290
  12.9599514  17.0462646  51.7879486  13.4893360  16.9164715  50.8440170
  13.6862135  16.1883240  52.8604202  14.0053596  15.2454853  52.4162292
  14.5843763  16.7000599  53.2061501  13.0434837  16.1110001  53.7373543
  11.6128788  16.4548588  51.6461678  10.6111755  16.8641300  52.2405128
  11.5691223  15.2948971  51.0006447  12.4367056  15.0301380  50.5564575
  10.4894094  14.4114990  50.9020538   9.8875818  14.3124352  51.8054314
   9.5414152  14.8929090  49.7392883   9.2356224  15.9274368  49.8953094
  10.1687422  14.6981382  48.2831345  11.1374874  15.1977749  48.2842560
  10.3172340  13.6199265  48.2239037   9.4671469  15.1004992  47.5524025
   8.3203020  14.1759520  49.6808205   7.6958728  14.6838760  49.1576538
  10.9214458  12.9645634  50.6488304  12.1500702  12.7577333  50.4370270
   9.9919415  11.9878683  50.5852966   9.0131187  12.2347965  50.6174240
  10.2865152  10.5344801  50.3956299  11.3086758  10.4001846  50.0417099
  10.1702480   9.7125702  51.6839523  10.1444759   8.6425953  51.4775772
  11.3563032  10.0032263  52.6758919  12.2917042   9.6910133  52.2115173
  11.4945087  11.0717964  52.8406830  11.3334522   9.3939571  53.5794220
   9.0107965  10.0587273  52.3690720   8.3023615   9.7415018  51.8041954
   9.3883724   9.9108295  49.3493538   8.3122110  10.4834270  49.0701332
   9.7826567   8.7580843  48.8030739  10.5677710   8.2998676  49.2432251
   8.9479027   8.1171427  47.8070335   8.0331020   8.6887970  47.6506691
   9.7051191   8.1314631  46.4330978   9.0917091   7.6341181  45.6817818
   9.9630442   9.5443602  45.9732628   9.9836283   9.7004604  44.8946953
   9.1410255  10.2136602  46.2270813  10.7918015  10.0513210  46.4674835
  11.0875492   7.3608618  46.4433174  11.0494928   6.3423405  46.8296738
  11.4799509   7.2426786  45.4332924  11.6375656   7.9553709  47.1727982
   8.3790483   6.6844859  48.2144852   9.1366320   5.9202418  48.7858467
   7.1613188   6.3310971  47.7972717   6.6187906   6.9391775  47.2006111
   6.5848670   5.0386534  48.1433449   6.7788939   4.9474463  49.2120552
   5.0425191   4.9485364  47.9257584   4.8259401   4.8565497  46.8614578
   4.7851257   4.0193357  48.4341240   4.1411896   6.1148181  48.5263824
   3.9944046   6.8228946  47.7107925   3.2041855   5.5843821  48.6959724
   4.5244179   6.7290597  49.9016228   4.9736495   5.9330955  50.7848282
   4.4732981   7.9595728  50.0823402   7.2261930   3.9555323  47.4296532
   7.6102128   2.9513984  47.9863510   7.4604020   4.1782069  46.1232491
   7.0688863   5.0331650  45.7546539   8.0764246   3.2282596  45.1418839
   8.4950161   2.3112156  45.5565033   6.9653101   2.8526156  44.2241173
   6.2502503   3.6554844  44.0446930   7.3607631   2.6089025  43.2380524
   6.2847733   1.6296144  44.8897400   6.9055271   0.7664802  45.1300812
   5.9639497   1.9119083  45.8924789   5.1033754   1.2164181  44.0674896
   5.4402332   0.6905186  43.1741486   4.5189462   0.4461497  44.5707169
   4.1287732   2.2709553  43.6953125   4.1794786   2.7450807  42.8049583
   3.2068689   2.7442980  44.4711113   2.9217942   2.3206718  45.6722183
   3.3567183   1.5276929  46.1218071   2.0923998   2.6879692  46.1164017
   2.3543491   3.6323533  44.0131302   2.5600705   3.9144990  43.0654068
   1.7018212   4.1342449  44.5982895   9.1068478   4.0359588  44.3741074
   8.9509277   5.1781278  44.1448669  10.0842333   3.3581352  43.8116188
  10.0812798   2.3593669  43.9617920  11.0769615   3.9045451  42.9202766
  11.1875639   4.9315176  43.2684059  12.4578323   3.1995547  43.1315308
  12.7065096   3.0577908  44.1832733  12.3945484   2.2249594  42.6475258
  13.6207390   3.9623029  42.4570808  13.6925726   5.1829348  42.4619942
  14.5168037   3.2634811  41.8682289  10.6009655   4.0591183  41.4398155
  11.0723333   3.3772264  40.5022354   9.7895393   5.0562782  41.1466599
   9.5834627   5.6173429  41.9608078   9.2605820   5.4347339  39.8948402
  10.0216866   5.2797666  39.1301155   8.0283575   4.5360584  39.5186424
   8.2355633   3.4857113  39.7234306   6.7705793   4.8570700  40.3255348
   5.8624492   4.3307519  40.0316315   6.9906874   4.6085415  41.3637466
   6.5873694   5.9312491  40.2995758   7.6448126   4.7470689  38.1818199
   8.4236364   4.5729609  37.6482277   8.9601212   6.8665524  39.7275238
   8.6647139   7.6210985  40.5896263   9.1417799   7.2540889  38.4715157
   9.1830187   6.5498643  37.7486954   9.0613279   8.6618757  38.0545044
   9.7917337   9.3536348  38.4741211   9.5260506   8.6787987  36.6091766
  10.4830656   8.2107115  36.3787079   8.8039675   8.1428404  35.9931755
   9.5048637  10.1199617  36.0025063   8.5243397  10.5660810  36.1687927
  10.0787125  10.7778187  36.6552124   9.9235382  10.2909575  34.6181946
  10.6516562   9.4543467  34.0996971   9.5972013  11.2871122  33.9795723
   7.6726079   9.3178864  38.3726273   7.6746988  10.4840374  38.7723579
   6.5502272   8.5896273  38.3711014   6.6519980   7.6644888  37.9788437
   5.1900520   8.9497337  38.8705826   5.0728030   9.9300747  38.4087486
   4.1392636   8.0751534  38.1777000   3.1526096   8.5213270  38.3023720
   4.3520432   8.0044661  37.1110115   3.9804592   6.6066942  38.6319046
   4.8399572   6.0520000  38.2555008   4.0869927   6.6045375  39.7166862
   2.7090788   5.9200869  38.2420540   2.0022390   6.3431864  37.2516785
   2.4931026   4.8854809  38.9588814   5.0504794   9.1403027  40.4182205
   3.9585059   9.5248489  40.8778534   6.1077566   8.8597240  41.2205696
   6.9111176   8.4886942  40.7336922   6.3094015   9.2018204  42.6345406
   5.4255581   9.6161633  43.1195564   6.7165904   8.0527344  43.5057678
   7.3205309   7.4139609  42.8613129   7.4187093   8.4396944  44.2442741
   5.4803853   7.3005304  44.0795364   4.6671042   7.2873573  43.3539352
   5.6627021   6.2670512  44.3741264   5.0564775   8.0456400  45.3132553
   3.9464431   8.5503149  45.4120102   5.9962511   8.1856346  46.1627464
   7.3428030  10.3157158  42.7105293   7.1068316  11.3827524  43.2247963
   8.4703350  10.1362038  42.1538811   8.6041508   9.3232613  41.5696564
   9.6436319  11.0392532  42.2255096   9.8767004  11.2945833  43.2592316
  10.8724747  10.4231071  41.5694122  10.5780201   9.9331627  40.6413193
  12.0291109  11.4396381  41.4237556  12.9218540  10.8351574  41.2634010
  11.7527256  12.1825056  40.6755180  12.2659273  11.9529934  42.3556786
  11.2691441   9.2408800  42.5366135  11.7238350   9.6280708  43.4484444
  10.4004498   8.6658945  42.8573341  12.0817928   8.1579933  41.8556213
  13.0504189   8.6372805  41.7136726  12.0892897   7.3118815  42.5427437
  11.6735668   7.7937498  40.9128685   9.3464460  12.4280081  41.6792183
   9.5248775  13.3578596  42.5232697   8.8470974  12.6630373  40.4250565
   8.5666018  11.8701077  39.8658714   8.6368361  14.0711222  40.0241241
   9.3705931  14.7748909  40.4170761   8.6594257  14.0815258  38.5156441
   7.9085207  13.3871794  38.1386490   8.3970909  15.0087633  38.0062218
  10.0246763  13.7031431  37.9080582  10.2569561  12.7314882  38.3439865
   9.7491522  13.5372667  36.4531326   8.9999456  12.7633228  36.2864227
   9.4177866  14.4565172  35.9701462  10.7261343  13.2530575  36.0621948
  11.2224741  14.6096087  38.1557007  12.1010323  14.2222843  37.6397285
  11.0547562  15.6312485  37.8147812  11.5216236  14.4658794  39.1939430
   7.3753190  14.6407185  40.6249847   7.3392968  15.8695211  40.8181686
   6.4806333  13.7281961  41.0371742   6.7160602  12.7464123  41.0092010
   5.2657981  14.0750084  41.7674255   4.8476772  14.9059763  41.1992989
   4.1827092  12.9203539  41.8223457   3.8039606  12.6215000  40.8449326
   4.8067303  12.1003475  42.1777191   2.9926677  13.1584597  42.7490997
   2.2456052  12.3804893  42.5917473   3.3344626  13.1442442  43.7840271
   2.2622423  14.4968710  42.4215584   2.2605011  14.9660091  41.2926788
   1.6388209  15.0412970  43.4015236   1.7927777  14.6671190  44.3269348
   0.9826928  15.8068657  43.3423576   5.6329560  14.5109091  43.2006721
   5.2436309  15.6253872  43.5497551   6.3400631  13.7720594  44.0585785
   6.5922356  12.8512449  43.7290154   6.8301306  14.2509403  45.3523979
   6.0538850  14.6501055  46.0052452   7.5085559  13.0464821  46.0087280
   8.2775698  12.5765219  45.3956566   7.8277841  13.2886419  47.0224113
   6.4980688  11.9162006  46.3605766   5.7240372  11.8007402  45.6018639
   7.1238217  11.0240860  46.3348045   5.7378502  12.0283966  47.7049942
   6.5261350  12.0245543  48.4577866   5.1902628  12.9705582  47.7290535
   4.7354980  10.9040070  48.0006104   4.1415658  11.2222071  48.8574028
   4.0835223  10.8213501  47.1310158   5.4649458   9.6528845  48.2720947
   6.3721457   9.8543453  48.6676979   5.0517755   9.0917063  49.0031738
   5.5022526   9.2520790  47.3457794   7.7514873  15.4604988  45.2293777
   7.6990457  16.3210793  46.1294403   8.5811634  15.5654173  44.2804680
   8.7471752  14.6745892  43.8344154   9.4638100  16.7144852  44.1688499
   9.8553514  16.8616943  45.1753883  10.7122564  16.3835850  43.3064384
  10.3472595  16.3754673  42.2793999  11.8396215  17.3927269  43.4594307
  12.3351555  17.2261047  44.4158745  12.5786657  17.2142773  42.6783638
  11.4014492  18.3870029  43.5461349  11.2372952  15.1066236  43.6272316
  10.8194342  14.4557190  43.0586205   8.7705688  18.0130806  43.6939697
   9.0309792  19.1217709  44.2154655   7.8451042  17.8660927  42.7617760
   7.5615382  16.9394455  42.4771423   6.8803558  18.9359608  42.3233719
   7.5439987  19.7219429  41.9629440   6.0021791  18.5967541  41.1162643
   6.6771760  18.5747070  40.2606964   5.6340008  17.5785694  41.2421722
   4.7943244  19.5977917  40.8362427   5.0755916  20.6361465  41.0117607
   4.5541582  19.5832233  39.7731285   3.5463531  19.2169056  41.5978241
   3.6664834  19.3867226  42.6677933   2.8577631  20.0160561  41.3234138
   2.8523250  17.8773136  41.2369499   3.6472270  17.1324768  41.1987610
   2.1372647  17.6404819  42.0247955   2.2041042  17.9435558  39.9307404
   1.5025722  18.6582851  40.0615692   2.8168378  18.1069527  39.1446342
   1.6180937  17.1548634  39.6969566   6.0999031  19.5112438  43.5701675
   6.2893505  20.6293640  43.9978104   5.3908710  18.6354179  44.2824707
   5.2932348  17.7030334  43.9066696   4.6981740  18.9326515  45.5190353
   4.0448394  19.7557716  45.2296791   3.9898925  17.7171268  45.9767151
   3.3314290  17.3185997  45.2048950   4.8181663  17.0275574  46.1396790
   3.1203396  17.9055557  47.1949768   3.6036191  18.5250816  47.9504433
   2.2952716  18.5649529  46.9256096   2.7293873  16.6101437  47.8660126
   3.4909697  15.6338482  47.8623657   1.5625513  16.4644890  48.4512825
   0.9660981  17.2750874  48.5365601   1.3928913  15.5670033  48.8823700
   5.5920815  19.4980545  46.6191521   5.2694006  20.4732685  47.2457390
   6.7920527  18.9706535  46.8575058   7.0316844  18.1985264  46.2521172
   7.7984381  19.5575523  47.7488251   7.3605695  19.6477394  48.7429276
   9.0328846  18.6786003  47.9181747   8.8893909  17.7968426  48.5426865
   9.1526279  18.3140926  46.8979340  10.3404045  19.3288746  48.4380226
  10.5709286  20.2029209  47.8289185  10.2416029  19.7992363  49.8932724
   9.6493683  20.7127800  49.9460945   9.6740751  19.0451450  50.4385796
  11.2205143  20.0367489  50.3097191  11.4346657  18.2450924  48.2759171
  12.3734818  18.3685837  48.8158073  11.1502075  17.2579079  48.6401329
  11.7434349  18.1176529  47.2383652   8.2298641  20.9618607  47.4330254
   8.1544266  21.8874493  48.2990189   8.5717878  21.1456604  46.1364746
   8.4540796  20.4157963  45.4483299   8.9903316  22.5132179  45.6918259
   9.8156948  22.9190178  46.2768059   9.4738474  22.5034618  44.2190628
   8.7749319  21.7935047  43.7768211   9.3097763  23.4650917  43.7328033
  10.9291334  21.9863338  43.9872551  11.1143799  21.1699715  44.6853485
  11.1430464  21.2930946  42.6077003  12.1486216  20.8726330  42.6192398
  10.6106091  20.3549595  42.4511261  10.9212952  21.9729729  41.7850876
  11.9785852  23.0870705  44.1790123  11.9282722  23.6314259  43.2360115
  11.7094278  23.6795025  45.0534706  13.0007057  22.7433853  44.3379135
   7.8079786  23.4528294  45.8392754   7.9731908  24.4657536  46.4658203
   6.6060109  23.0834370  45.3649483   6.5602341  22.1418266  45.0024910
   5.4107094  23.9122639  45.5869560   5.3612952  24.7461567  44.8867569
   4.2152438  22.9945831  45.2224998   4.3307128  22.6052532  44.2109718
   4.0681620  22.1429615  45.8867378   2.8879762  23.7700405  45.4738007
   2.7677004  23.9427567  46.5432892   2.9470441  24.7480354  44.9961624
   1.6526459  22.9948444  44.8778954   1.5409755  22.6156712  43.7182465
   0.7661642  22.7885323  45.6856537   5.2613149  24.3491573  47.0508270
   4.7592788  25.4442444  47.2648888   5.6496000  23.4716949  48.0186386
   6.2267733  22.6897945  47.7436790   5.4762926  23.6582623  49.4775047
   4.5560565  24.1992207  49.6980362   5.3343859  22.2845821  50.2241974
   6.0452123  21.5649662  49.8180199   5.4064231  22.4047623  51.3051529
   4.0041389  21.6105232  49.9206123   3.7242572  21.9213696  48.9140625
   4.0679588  20.5278301  50.0292397   2.8359127  22.0475674  50.7851753
   3.0350921  21.6491966  51.7800293   2.6918054  23.1261120  50.8490143
   1.5055494  21.5104084  50.3059464   1.5427440  21.4378567  49.2190018
   1.4292083  20.4798374  50.6526413   0.3483785  22.3193932  50.7375183
   0.2473255  23.1656456  50.1955338  -0.4936088  21.7689667  50.8280334
   0.5399232  22.7825432  51.6143875   6.5412636  24.6090527  50.0610962
   6.2838778  25.3550072  50.9537506   7.7436228  24.5104332  49.6117706
   7.9060249  23.8294048  48.8838081   8.7798796  25.5588913  49.7342758
   8.9772272  25.5697346  50.8062096  10.1280651  25.0968456  48.9581680
   9.8902779  24.8003864  47.9365616  11.1152496  26.3103065  48.8761368
  11.5371170  26.4587421  49.8701668  11.8615208  26.0979156  48.1105843
  10.6991835  27.2062225  48.4153481  10.8108053  23.8694420  49.6723709
  10.9975624  24.0994930  50.7213211  10.1002884  23.0450306  49.7325287
  12.0741749  23.4249744  49.0307579  12.4136944  22.5106030  49.5173264
  11.8624172  23.1932526  47.9869347  12.8931265  24.1427116  49.0783119
   8.2780647  26.9353352  49.2512665   8.4626808  27.8981266  49.9290695
   7.6141891  27.0184917  48.0634575   7.5768995  26.2013416  47.4710274
   7.0962324  28.2901630  47.5009422   7.7799115  29.1207771  47.6763535
   6.6906443  28.2092781  45.9346008   5.9832740  27.3846912  45.8463440
   6.2007737  29.5232372  45.2933197   5.3033557  29.8495140  45.8189545
   7.0101457  30.2259216  45.4914436   5.9598217  29.5207806  44.2302895
   8.0035429  27.7727947  45.1666412   8.6645355  28.6318016  45.0513458
   8.5254221  27.0397854  45.7818184   7.6607380  27.2773075  43.7451515
   7.2905254  28.1251106  43.1687241   8.5119162  26.7882347  43.2714348
   6.8669000  26.5427914  43.8808250   5.9358258  28.7554226  48.3743324
   5.8763704  29.8850899  48.7519455   5.1098704  27.8068027  48.8830948
   5.2571630  26.8617706  48.5585632   3.9048173  28.1376095  49.7300606
   3.2640038  28.7191830  49.0673180   3.1669629  26.8680973  50.0607300
   3.2585373  26.0262222  49.3744621   3.5561326  26.4904060  51.0062408
   1.6229423  27.0117989  50.2127037   1.2869508  26.0686893  50.6436958
   1.3889077  27.7906647  50.9384422   0.7854612  27.1775684  48.9584274
   1.1466267  28.1196003  48.1495667  -0.1214294  26.3096142  48.7918396
   4.2454662  29.0266743  50.9493408   3.6861525  30.1598988  51.1943130
   5.1862392  28.6008320  51.8137093   5.5789766  27.6907120  51.6199570
   5.7102280  29.4035244  52.9320488   4.7989550  29.6740074  53.4654617
   6.6127405  28.5338612  53.8996849   7.5317030  28.2116184  53.4100266
   6.8858624  29.1555519  54.7523308   6.0300555  27.2611923  54.4786949
   5.9712706  26.4955730  53.7050819   6.6541619  26.9014797  55.2967415
   4.5826731  27.4770050  55.0109100   4.2755899  28.4995594  55.6839294
   3.7579045  26.5724487  54.7151337   6.4278493  30.6919804  52.5272598
   6.0776691  31.7112732  52.9850082   7.4196386  30.5307827  51.6548843
   7.5923080  29.5734768  51.3831253   8.4279900  31.5861130  51.4655609
   8.5083551  32.1092644  52.4184265   9.6650419  30.7665615  51.0183411
   9.5252905  30.2428608  50.0726624  10.4139652  31.5051270  50.7324371
  10.3210516  29.9360123  52.0796471  11.1000700  30.4554863  52.8705559
  10.0264893  28.6479340  52.1276054  10.5865297  28.1577721  52.8103981
   9.3676558  28.1917858  51.5128136   8.1630106  32.6223373  50.3937912
   8.8521967  33.6147766  50.2632828   7.1932840  32.3021355  49.5054588
   6.6724906  31.4550915  49.6826210   6.7307668  33.2199936  48.3861542
   5.9034204  32.7833214  47.8267670   6.1432767  34.5129242  48.9738197
   6.9622974  35.1389008  49.3280220   5.6584411  34.9988365  48.1271057
   5.2555385  34.1486168  50.1507530   4.2423773  33.1994743  50.1780396
   3.8187728  32.8787880  49.3190727   3.7015965  33.1919785  51.3785248
   2.9434435  32.4991913  51.7126617   4.3279214  34.0915909  52.1740189
   4.0222774  34.3560066  53.0996361   5.3445415  34.7292557  51.3826447
   6.0809178  35.4194641  51.7670403   7.8819156  33.5337067  47.2778435
   7.9295697  34.6456375  46.7920074   8.6697950  32.5383263  46.9505768
   8.3142252  31.6207600  47.1780472   9.8447399  32.6868706  46.0504341
  10.3725100  33.6189003  46.2526093  10.8723564  31.5007114  46.1958275
  11.6323071  31.5296116  45.4149704  11.5855532  31.6361485  47.5548248
  12.2292776  30.8042259  47.8405190  12.0885725  32.6024818  47.5191460
  10.8182764  31.6323528  48.3290138  10.2831964  30.1904678  46.4580345
  10.9866514  29.7168159  46.9079323   9.3874426  32.6965027  44.5823479
   8.2043743  32.3440285  44.3543701  10.2067337  33.1226234  43.6027794
  11.1895008  33.1995316  43.8226814   9.9108458  33.2846527  42.1498184
   9.0732861  32.6403198  41.8825417   9.5072594  34.8053932  41.8455467
  10.3963528  35.3980141  42.0609856   9.2079268  34.9333801  40.8052979
   8.3349524  35.3855209  42.7195702   7.4098992  34.8333664  42.5537109
   8.6287918  35.4481964  43.7673454   7.9630179  36.8217621  42.2463341
   8.8610344  37.4375725  42.1969070   7.6542645  36.7220955  41.2057381
   6.9425783  37.4347992  43.1239624   5.9609857  36.9792709  42.9932976
   7.2574911  37.3653755  44.1651726   6.7722631  38.9242477  43.0134773
   7.6058135  39.3788605  43.3578873   6.6627340  39.0929146  42.0237007
   6.0478239  39.3502388  43.5736732  11.1003580  32.8099670  41.4239616
  12.2256489  33.0504608  41.9378471  11.1195869  32.4292831  40.1200676
   9.9780025  32.3312531  39.1610756   9.4118538  33.2459145  38.9850922
   9.3503122  31.5390358  39.5691147  10.5114594  31.9427605  37.8379440
  10.6044216  32.8769836  37.2841492   9.8154535  31.2218704  37.4089928
  11.7999887  31.2205982  38.1753731  12.5410156  31.3745747  37.3909760
  11.6919127  30.1398277  38.2667732  12.3074665  31.9061718  39.4260674
  12.7950592  31.1462708  40.0367279  13.4333715  32.8636742  39.1365852
  14.5742893  32.4830856  39.3274689  13.2140980  34.0937042  38.6531029
  12.2871838  34.4631844  38.4968376  14.3364048  34.9888229  38.3709183
  14.9850769  34.4054718  37.7174454  13.8501930  36.1572266  37.4997406
  13.2859449  35.7377434  36.6668167  13.1734324  36.8072014  38.0543861
  14.8996763  37.0337563  36.8813133  15.2998581  37.6639481  37.6755486
  15.6788292  36.4046669  36.4508820  14.3277054  38.1062927  35.9449844
  14.9696608  39.2011452  35.8446617  13.2283669  37.9083595  35.3285637
  15.1760168  35.4493141  39.6598434  16.2593002  35.9809494  39.4994164
  14.7339430  35.2543564  40.8616257  13.8438864  34.7779007  40.8914490
  15.5962238  35.4737206  42.0913925  16.2960796  36.3093300  42.0839729
  14.7001677  35.5783539  43.3324203  14.1584883  34.6351891  43.2608147
  15.3425980  35.5859642  44.2129478  13.7127008  36.6450920  43.3674393
  12.8376541  36.5792885  44.2347450  13.7961092  37.5933075  42.5893517
  16.6077995  34.3307953  42.3330154  17.3595848  34.4928741  43.2832222
  16.6456470  33.1739883  41.5877953  15.9512148  33.0877686  40.8594894
  17.3452854  31.9765549  41.9306679  17.5180931  31.9079723  43.0046959
  16.5176716  30.7367764  41.5396538  16.2020550  30.8090038  40.4988480
  17.1441994  29.4099617  41.7982368  17.7612839  29.4402561  42.6962280
  16.4788971  28.5485649  41.7393417  17.8173199  29.2845001  40.9501343
  15.2462854  30.6018333  42.4433899  15.4108505  30.5890560  43.5208206
  14.5879583  31.4594440  42.3047867  14.5597420  29.7809620  42.2362099
  18.6316338  32.0112610  41.1335411  18.6422653  32.0092010  39.8952675
  19.7542782  32.0180435  41.9103889  19.6151199  32.1224518  42.9052925
  21.1618385  31.9051857  41.4564056  21.2560444  32.4466019  40.5150757
  22.0401154  32.4537048  42.5783882  21.9523067  31.8826160  43.5026436
  23.4976788  32.4174538  42.1309624  24.1046295  32.8948402  42.9002533
  23.9069252  31.4140301  42.0136642  23.5523548  33.0037613  41.2137070
  21.5598812  33.8456955  42.8768501  20.5707016  33.8736343  43.3338470
  22.2698174  34.2211533  43.6138191  21.6137028  34.4669914  41.9828720
  21.5344887  30.4259567  41.1331100  22.2893810  30.1475830  40.2004852
  21.0006123  29.4803219  41.8159332  20.2153320  29.6839409  42.4175797
  21.3478470  28.0617085  41.7688446  21.5237198  27.8084984  40.7233505
  22.6892471  27.8297405  42.4933891  23.5421696  28.3026714  42.0066032
  22.7695255  28.3074131  43.4698563  23.1443939  26.4022274  42.6551666
  22.6781197  26.0635166  43.5803490  22.8235397  25.8196945  41.7915573
  24.6310005  26.1404152  42.7262344  25.4538689  26.6791534  43.4780159
  25.0957031  25.1223011  41.9680557  26.0773869  24.8874111  42.0030479
  24.4611015  24.6332302  41.3530846  20.2287655  27.2602215  42.3333473
  19.4355469  27.7316990  43.1381798  20.1306152  26.0053425  41.8994980
  20.7989674  25.6198559  41.2477264  19.3812962  24.9975452  42.6375313
  19.2326031  25.4221668  43.6303520  17.9095135  24.7773342  42.1904640
  17.4930115  25.7823257  42.1224861  17.7862701  24.2958813  41.2203522
  17.0981865  23.8988495  43.1235352  17.5926704  22.9457664  43.3112030
  17.0323601  24.4342232  44.0707169  15.3562222  23.5445595  42.6225395
  14.5035582  25.1642799  42.3857613  14.6927786  25.7965450  43.2532539
  14.9116316  25.6443653  41.4963264  13.4222689  25.3017998  42.3870125
  20.1989937  23.6968117  42.6710663  20.8987312  23.4059029  41.7067146
  20.1800518  23.0257282  43.8348503  19.7318115  23.3572598  44.6770287
  20.7202015  21.6870804  43.9591751  20.8757725  21.3473988  42.9352036
  22.1181889  21.6428089  44.6071777  21.9320889  21.8954391  45.6510353
  22.4895039  20.6181183  44.5919228  23.1973534  22.5142918  43.9038582
  22.8130150  23.4768639  43.5664520  24.4294662  22.6492271  44.8366966
  24.2536335  23.4054470  45.6017570  24.7167606  21.6784973  45.2407341
  25.2426662  23.0979519  44.2662048  23.6808186  21.7963238  42.6703148
  23.9020214  20.7519417  42.8904037  22.9688435  21.6748791  41.8539543
  24.5319805  22.3371792  42.2566719  19.7151394  20.7127552  44.5902786
  18.9556561  21.1894550  45.4772682  19.7346478  19.4850922  44.1380539
  20.4351196  19.2782135  43.4404602  19.0772762  18.3819599  44.8593369
  18.5904579  18.8156815  45.7328339  18.0161400  17.8058720  43.9830055
  18.4963169  17.5954514  43.0273590  17.7147255  16.8451767  44.4005165
  16.7792854  18.6827736  43.7790756  16.7178669  19.4193230  44.5802116
  16.9025612  19.5451641  42.4551926  16.8323822  18.9338017  41.5555191
  16.0552082  20.2299938  42.4220009  17.6986675  20.2891884  42.4824409
  15.4112663  17.9614811  43.7255249  15.1598587  17.4284058  44.6424370
  14.5196733  18.5870285  43.6824989  15.3485212  17.2054825  42.9428101
  20.0919170  17.3790436  45.3826981  21.2894135  17.4573135  45.0454521
  19.5006218  16.6017532  46.2403374  18.5042496  16.7236538  46.3520660
  20.0744858  15.4219103  46.7862396  21.0663319  15.3503551  46.3399010
  20.4658928  15.4981461  48.2735214  21.2367611  16.2626991  48.3700714
  19.6118259  15.8262806  48.8659706  20.8527012  14.2121944  48.8662567
  20.0270596  13.7537012  49.0385971  19.0928555  14.2518129  46.5432701
  17.8907642  14.4665184  46.4165230  19.5699539  12.9913244  46.3474045
  20.5782757  12.9534903  46.3031921  18.7608566  11.7559824  46.4006729
  17.8951340  11.9355659  47.0381470  18.3046646  11.3393593  45.0078506
  17.5943584  10.5136538  44.9656448  17.7717075  12.2094688  44.6244850
  19.2297249  11.0833054  44.4913216  19.5745659  10.6576681  47.0415802
  20.8222752  10.7120352  47.0319672  18.8956985   9.6503668  47.6250420
  17.9089394   9.7208891  47.8285980  19.5446682   8.5231380  48.2973213
  20.4158268   8.8805008  48.8463898  18.5656090   7.7226443  49.2447548
  19.1133766   6.8004265  49.4385719  18.3896351   8.3492851  50.5914993
  18.3102818   9.4334478  50.5115395  17.4793510   7.9391222  51.0288200
  19.2634792   8.0303164  51.1596146  17.2454910   7.3924222  48.7603264
  17.2132435   6.4523740  48.9523468  19.9588566   7.4648237  47.3188515
  19.4038372   7.3354731  46.2137718  20.9150391   6.6032991  47.7396469
  21.8373928   6.8139439  48.8731155  21.3790035   6.4424462  49.7896156
  22.0741215   7.8688002  49.0121765  23.1806717   6.1220636  48.5516930
  23.6548767   5.6356573  49.4041290  23.8947487   6.7617497  48.0330467
  22.6512527   5.0482526  47.6152763  22.2838535   4.3120990  48.3302574
  23.4084148   4.6066089  46.9673920  21.4600544   5.6021852  46.8815536
  21.6576481   6.0243907  45.8962631  20.5723534   4.3215871  46.5384979
  21.1072674   3.3727942  45.9732933  19.3282051   4.2933712  47.0113983
  19.0266285   5.1192307  47.5085030  18.3103352   3.2577004  46.7187347
  18.9020748   2.3756697  46.4738541  17.4013538   2.8116810  47.9656982
  16.3525600   3.0513847  47.7905579  17.4794827   1.7525901  48.2113037
  17.6368771   3.6312988  49.2919922  18.2182713   3.0050790  50.1721992
  17.2460175   4.8211455  49.2538834  17.4450169   3.4872108  45.4813347
  16.5702820   2.6024745  45.1862602  17.5985851   4.6041446  44.8359985
  18.3303642   5.1793284  45.2281265  16.8339195   5.0341287  43.7466583
  15.8791265   4.5087581  43.7680130  16.5566273   6.4689484  44.1397247
  17.5509911   6.9018049  44.2491722  16.0981140   7.0275593  43.3237495
  15.7439785   6.7477889  45.4356270  16.3305721   6.5617824  46.3353004
  15.5183401   8.2649670  45.4500656  14.7847462   8.6093721  46.1789894
  16.4607029   8.7091360  45.7706337  15.2854462   8.7303019  44.4922943
  14.3497686   6.0854244  45.5633240  13.6599493   6.2300482  44.7318611
  14.5014448   5.0063305  45.5888405  13.9046593   6.3756013  46.5150490
  17.6175690   4.9597287  42.4191017  18.6478806   5.5961251  42.2569847
  17.0657215   4.3055949  41.4120636  16.1434155   3.9049809  41.5067177
  17.7211914   4.0806570  40.1336098  18.5792065   4.7408681  40.0069809
  18.3429794   2.6625392  40.0948410  17.5173416   1.9671068  40.2458191
  18.8518143   2.4771171  39.1488991  19.3727131   2.4171331  41.1829720
  20.5182686   3.2074904  41.3853836  20.7933941   3.9626114  40.7736664
  21.1456223   2.7649338  42.4902916  22.1627712   3.0192356  42.7494087
  20.4714165   1.6818693  42.9746399  20.8319016   1.0984544  43.7161102
  19.3027248   1.5007992  42.1877594  18.5610752   0.7178060  42.2450180
  16.8701115   4.3934026  38.9549904  17.3082390   4.1283813  37.8167305
  15.5759535   4.9876428  39.0858307  15.3755207   5.4843831  39.9420853
  14.5830507   5.0520587  37.9997368  14.7572155   4.1499577  37.4132385
  13.2100182   5.1628547  38.5886993  13.2024879   5.9380975  39.3548851
  12.4614868   5.4533362  37.8515282  12.8341494   4.2093301  38.9596748
  14.8717203   6.3068419  37.1512070  14.9546280   6.1732430  35.9417000
  15.0500193   7.4887161  37.7538834  15.1203270   7.4627872  38.7611008
  15.1889877   8.8496733  37.0415802  15.7064028   8.8095779  36.0830536
  13.7977810   9.3197184  36.7326202  13.2503672   8.4888964  36.2874565
  12.9443836   9.7557192  38.0001640  11.9033785   9.9255171  37.7252388
  13.1805935   8.9620657  38.7089767  13.3772163  10.6463747  38.4556694
  13.7762346  10.5869846  35.8447647  12.7430735  10.9291182  35.7846031
  14.4219675  11.3826914  36.2162209  14.2013159  10.2718544  34.8918190
  15.8794727   9.7470369  38.0098534  15.8898945   9.4702902  39.2193451
  16.6290264  10.8134069  37.5213814  16.4974709  10.8869591  36.5226898
  17.1777039  12.0219307  38.3027725  17.5706005  11.6590662  39.2525406
  18.1465149  12.8303108  37.4650116  17.5855141  13.1139154  36.5745354
  18.4985447  13.7353859  37.9600029  19.3828087  12.0616436  36.9794655
  20.5443592  12.1288900  37.7681046  20.6057434  12.7504044  38.6492119
  21.6479111  11.3105202  37.5417175  22.4375896  11.3748293  38.2756615
  21.6057320  10.4888992  36.3855133  22.4453239   9.8834019  36.0775299
  20.5265446  10.5683222  35.4867706  20.6200981   9.9474335  34.6080513
  19.3497906  11.2163734  35.8307304  18.6262951  11.3327723  35.0373802
  16.0209599  12.9342194  38.7082481  15.1541061  13.1988335  37.9133072
  15.8752489  13.4340963  39.9544525  16.7463226  13.2237225  41.0870819
  17.7499466  13.4913883  40.7566338  16.5948677  12.1767788  41.3498917
  16.3076134  14.2160215  42.1894722  16.8004341  15.1545858  41.9358444
  16.5826702  13.7465076  43.1339302  14.8367271  14.3424873  41.9920464
  14.4270658  15.2708654  42.3900337  14.2547474  13.5004663  42.3667450
  14.7952843  14.2732153  40.3821411  13.8811550  13.7300453  40.1424828
  14.7982779  15.6759930  39.7746773  13.8526382  16.4396687  39.7019844
  15.9123774  16.1569786  39.1426506  16.6678410  15.5212221  38.9300652
  16.2144833  17.5305882  38.7730789  16.0302067  18.0489635  39.7140541
  17.6622791  17.6020374  38.4323196  17.9665089  18.5993576  38.7499542
  18.2240982  16.8724213  39.0155182  17.7892590  17.5108376  37.3535881
  15.2558794  18.1274605  37.6558723  15.0106697  19.3800926  37.5641823
  14.7531967  17.1764259  36.8515091  15.0177927  16.2147732  37.0106125
  13.5835209  17.3916531  35.9378815  13.8116693  18.1500950  35.1890030
  13.3428946  16.0281715  35.2459335  14.2433662  15.8946791  34.6464005
  13.3221436  15.1610222  35.9060249  12.1962337  15.8616343  34.2591858
  11.3173885  15.7534161  34.8948135  12.1519222  16.7479973  33.6263351
  12.2731295  14.6007223  33.3852348  13.0580235  14.7422285  32.6422539
  12.5724173  13.7978649  34.0589905  10.7831650  14.4702196  32.8396187
  10.2015934  14.2382545  33.7318459  10.3658972  15.4387751  32.5641403
  10.6409321  13.4562588  31.8278294  10.8771591  12.5187483  32.1200218
   9.7489643  13.3429604  31.3677673  11.2774916  13.5843563  31.0542126
  12.3332481  17.9894676  36.5684166  11.5800657  18.6286507  35.8763199
  12.1296110  17.8220253  37.9048309  12.7595692  17.1901417  38.3780937
  10.9370165  18.2771721  38.6144829  10.0202084  17.9256344  38.1412048
  10.7648029  17.7538204  40.0739403  10.0825090  18.3771019  40.6519547
  10.5212173  16.6919460  40.0394745  11.7425947  17.9630394  40.5078201
  10.8781147  19.7942085  38.6149254   9.7987576  20.4071064  38.7088051
  12.0602160  20.5433350  38.5096397  12.9337854  20.1073666  38.2509727
  12.0037012  21.9870262  38.6024094  11.4749403  22.1545525  39.5407295
  13.3714275  22.6139965  38.4980049  13.9223442  22.2900963  37.6150093
  13.3586445  24.1654720  38.3713570  13.0017376  24.5111866  37.4011993
  12.6811113  24.4949741  39.1590614  14.3584099  24.5347805  38.5998077
  14.1361418  22.2930260  39.8462639  14.4409752  21.2894402  39.5496178
  14.9213810  23.0176525  40.0617104  13.4216127  22.3468533  40.6676369
  11.1525459  22.6347370  37.4786339  10.2794781  23.4425049  37.7510109
  11.2554045  22.2101746  36.2338600  11.9013853  21.4415989  36.1238403
  10.4662266  22.5510139  34.9795418  10.4316959  23.6208115  34.7735176
  11.1458788  21.7707291  33.8970413  11.1043262  20.6919689  34.0475311
  10.6858110  22.0916977  32.9624710  12.6192169  22.1480083  33.7466393
  12.7076674  23.1945343  33.4549904  13.2133102  21.7577057  34.5729675
  13.2778893  21.3400688  32.5721741  13.1968670  20.2954254  32.8726044
  12.6676607  21.5854111  31.7029629  14.6618214  21.5624123  32.3756142
  15.0869274  22.3303375  32.8752899  15.4738531  21.0217533  31.4595528
  15.1517143  20.0484314  30.6285324  14.2022772  19.7087326  30.5712948
  15.7732315  19.5919361  29.9762821  16.6889648  21.5108681  31.2946014
  17.3265648  21.0448952  30.6649704  16.9264507  22.3245296  31.8438358
   8.9203539  22.2706623  35.0606384   8.2057419  22.8511105  34.2373314
   8.4657679  21.6177368  36.1157379   9.1239653  21.2722416  36.7994843
   7.0074973  21.3251743  36.3111153   6.6138196  21.0390072  35.3358078
   6.7354560  20.1704235  37.2991333   7.1055632  20.3518105  38.3082008
   5.6586246  20.0114632  37.2419930   7.5328045  18.8651752  36.8287888
   8.5727701  19.1666965  36.7036552   7.6383252  18.2109909  37.6942406
   6.9587207  17.9753361  35.7177620   5.7028370  17.6739140  35.6257782
   7.7796144  17.4403820  34.9439697   6.2233171  22.5379810  36.8480186
   4.9635687  22.5524921  36.8707314   6.8678236  23.6184292  37.2600479
   7.8730221  23.5840340  37.1678581   6.2895026  24.7357216  37.9919586
   5.2587943  24.5556831  38.2974548   7.0210118  24.9168262  39.3082047
   8.0765667  25.1882839  39.2935410   6.5607772  25.8334942  39.6769943
   6.6594019  23.7185421  40.2176285   5.8762856  23.1055298  39.7714844
   7.7934761  22.7964458  40.5616837   7.4412332  21.9548073  41.1580658
   8.1885595  22.4159508  39.6197548   8.6219263  23.2983284  41.0615730
   6.1023693  24.1894627  41.5947418   5.9024816  23.3258839  42.2290802
   6.8611774  24.8490734  42.0157204   5.1533060  24.7160645  41.4943962
   6.3586736  26.0036945  37.1645737   7.2410293  26.1661644  36.3339119
   5.3923283  26.9118423  37.3105011   4.7128701  26.7702408  38.0442505
   5.0953822  27.9522991  36.2572594   5.0623870  27.4413242  35.2950134
   3.6694844  28.5626945  36.3783379   2.9542592  27.7422829  36.3193817
   3.6876366  29.0569420  37.3496780   3.4127691  29.5373478  35.4127769
   3.1675103  29.1989193  34.5485344   6.1395507  29.0412483  36.0872841
   6.3247848  29.9657707  36.9244766   6.8193216  29.0717678  34.9194832
   6.4849296  28.4919281  34.1631317   7.8968420  30.0621071  34.6333542
   8.0581264  30.1215324  33.5569916   7.6745420  31.0246372  35.0940285
   9.2532740  29.5770054  35.0741882  10.2567596  30.2363396  34.7769928
   9.3014450  28.4477901  35.7776184   8.4409618  28.0464001  36.1219368
  10.4760218  28.0070877  36.5403061  11.0493765  28.8636055  36.8949051
   9.9589930  27.1561699  37.7287903   9.1747608  26.4733448  37.4019432
  10.7774897  26.5118351  38.0497284   9.5035725  27.8915768  38.9295082
   8.2602816  28.4494171  38.9978180   7.5063014  28.4149857  38.2253342
   8.1467724  29.1471729  40.2017288   7.3523946  29.7601376  40.3172226
   9.2123508  29.0191231  41.0301704   9.5592537  29.5033150  42.2820702
   8.8244543  29.9752674  42.9174690  10.8294287  29.2640820  42.7272301
  11.0559120  29.6767330  43.6992493  11.7001677  28.4984245  42.0359421
  12.6049261  28.2090340  42.5498161  11.3906631  28.0274734  40.7289047
  12.1230392  27.5086040  40.1282387  10.1547184  28.2968445  40.1923141
  11.5072794  27.2345676  35.7307701  12.6277037  26.9302197  36.0953369
  11.2247868  26.8553963  34.4938469  10.3165092  27.1561871  34.1703300
  12.0479698  25.9983120  33.6331635  12.0701036  25.0970840  34.2458649
  11.2228575  25.7362633  32.3826790  11.6076689  24.8089237  31.9583397
  10.1673450  25.5495949  32.5805397  11.2588301  26.9150753  31.3230858
  10.8076506  27.8062763  31.7593174  12.2327280  27.0799484  30.8621731
  10.3743172  26.5736141  30.0611744   9.9937429  25.4523354  29.8666630
  10.0834045  27.4684029  29.1632271  10.3860588  28.4317627  29.1841793
   9.6825390  27.1173363  28.3052292  13.4854641  26.4599190  33.3718109
  14.4782639  25.6708298  33.3351593  13.7402201  27.7810249  33.2496681
  12.9607935  28.3630962  33.5213013  15.0233984  28.4244728  32.8973389
  15.5277386  28.0498447  32.0066147  14.6938877  29.8792324  32.5006180
  14.2543068  30.2747936  33.4162636  15.6446886  30.2996349  32.1729889
  13.6706867  29.8994350  31.3834705  14.1640768  29.9293823  30.0669060
  15.2373581  29.8628883  29.9666862  13.2607708  30.1782360  28.9932518
  13.6818352  30.3047543  28.0067902  11.9002895  30.1726818  29.1747875
  10.9851351  30.3295116  28.1630154  11.3252459  30.8366985  27.4222813
  11.3953018  30.1884937  30.5011578  10.3476152  30.2748394  30.7487411
  12.3163881  30.0762348  31.5876560  12.0266743  30.1729050  32.6235695
  16.0148411  28.4183502  34.0723839  17.1967278  28.5918655  33.8501663
  15.5253849  28.0059586  35.2636185  14.5499420  27.8312054  35.4587402
  16.3222446  27.9326973  36.5595589  16.8078423  28.8884315  36.7567139
  15.3762732  27.6641064  37.7503090  14.7696190  26.7827568  37.5422440
  16.0692997  27.4850807  39.1288643  15.3805790  27.1841621  39.9182930
  16.8851109  26.7642231  39.0748329  16.5897846  28.3828354  39.4623756
  14.4652414  28.9128380  37.9833412  15.1505260  29.7556171  38.0739746
  13.8000689  29.1408672  37.1504860  13.8046465  28.7589607  38.8365936
  17.4476223  26.9349632  36.4675293  17.2047138  25.7304897  36.1755867
  18.7224865  27.2209969  36.6634865  19.2688560  28.5452290  36.9963531
  18.7772675  28.9378147  37.8864746  19.0318928  29.2331638  36.1847534
  20.7448406  28.4545116  37.1290207  21.1000462  28.2368221  38.1362686
  21.2578335  29.3406219  36.7551956  21.0413399  27.2105579  36.2532921
  22.0082092  26.8005619  36.5451241  21.1447773  27.6434765  35.2583122
  19.8329697  26.2834034  36.4699669  19.6497898  25.6687164  35.5886612
  20.2266483  25.3723679  37.6577301  20.4070930  25.9064274  38.7339287
  20.0944557  24.1102829  37.4563789  20.0535374  23.7779217  36.5035095
  20.0803528  23.1145153  38.4776344  20.6275311  23.4800224  39.3465996
  18.5730553  22.7597656  38.8285446  18.1153927  23.6880856  39.1704063
  17.7455482  22.1821346  37.6297531  17.6350727  22.9229584  36.8378639
  18.2624702  21.2810383  37.2997246  16.7166996  22.0677452  37.9710503
  18.3371906  21.7586956  39.9868469  18.6442909  20.7537880  39.6971054
  18.8373680  21.9889374  40.9275436  17.2594223  21.7930832  40.1460114
  20.7060871  21.7482357  38.1095467  20.7616425  21.3020840  36.9513550
  21.3223190  21.1063747  39.1117706  21.2243404  21.5391884  40.0190582
  21.8147926  19.7028370  39.0514603  21.2270145  19.1387253  38.3273087
  23.3230095  19.6689129  38.6489754  23.4132481  20.2011929  37.7020645
  24.3457146  20.3317356  39.5006065  25.3409882  20.1215401  39.1090012
  24.2515335  21.4176426  39.4944878  24.2936096  19.8534336  40.4786720
  23.7666435  18.3307266  38.4792671  23.8752441  18.1235638  37.5481987
  21.4900742  19.0039902  40.3724785  20.8376026  19.5981693  41.2689018
  21.9144726  17.7534695  40.5191307  22.4159374  17.3704319  39.7305145
  21.5187626  16.8587570  41.6355438  21.3672886  17.3920498  42.5740280
  20.2679024  16.0216103  41.2587929  19.5108585  16.7339554  40.9308395
  20.6147346  15.2359104  40.5876122  19.5897083  15.1058788  42.6549797
  20.2572689  13.9608135  42.4873924  22.6901665  15.9280176  41.8712769
  23.3528290  15.5327768  40.8993454  22.8779297  15.4870806  43.1493454
  22.1059875  15.6560116  43.7783661  23.9885845  14.6820660  43.6332588
  24.3762150  14.1333427  42.7749138  25.1514435  15.4574318  44.2339478
  25.9827499  14.7858534  44.4484558  25.4937515  16.1978989  43.5110130
  24.7303886  16.2487183  45.4920311  23.6652508  16.4664764  45.4135208
  24.8337688  15.6292496  46.3829155  25.5993977  17.8156490  45.7357903
  25.0838223  18.9462547  44.4365196  24.5696678  18.3821850  43.6583328
  24.3508263  19.6094799  44.8958130  25.9472561  19.4721680  44.0290947
  23.5419540  13.6559286  44.6909142  22.5182228  13.8880110  45.3254814
  24.3700294  12.6168633  44.8443756  25.2211647  12.5691576  44.3027153
  24.1293983  11.4509954  45.7228165  23.0601730  11.2640352  45.6232948
  24.7702427  10.1692867  45.2888794  24.6741352  10.1147356  44.2044945
  25.8099842  10.2569170  45.6040878  24.1743774   8.8529978  45.8934708
  24.3969765   8.8107185  46.9596634  23.1071186   9.0335627  45.7651978
  24.7759361   7.5871344  45.1937561  24.5961208   7.3896160  44.0417671
  25.5303860   6.8113084  45.9025307  25.9728451   6.1453619  45.2854042
  25.8174057   6.9084501  46.8660049  24.2970448  11.8248510  47.1925888
  25.3553162  12.3306055  47.5629120  23.4322224  11.4256983  48.0895767
  22.6944618  10.9089966  47.6325989  23.5286674  11.3195333  49.5418053
  23.6052380  12.3040190  50.0033569  22.2125549  10.7374992  50.1033630
  21.3479309  11.3065367  49.7617149  22.2523746   9.7032280  49.7616081
  21.8109646  10.4963598  51.5226936  21.2044792   9.5914154  51.5594635
  22.6209641  10.2801018  52.2192841  20.8790092  11.6305237  52.0412064
  21.4478207  12.5415764  52.6839676  19.6701851  11.5225248  51.8124237
  24.7115898  10.4632645  49.9643974  25.0912971   9.4630222  49.3703270
  25.4524345  10.9629793  50.9447289  25.0721054  11.6801577  51.5456467
  26.4827690  10.1562796  51.5744057  27.3296547  10.0106602  50.9038239
  27.1420841  11.0661077  52.5878639  27.7010994  11.9126358  52.1891251
  26.3105965  11.4070454  53.2047119  28.0987625  10.2174501  53.5024796
  27.6178455   9.3128939  53.8747673  28.9194374   9.8139410  52.9093704
  28.7021427  11.0693493  54.9194908  30.0710926   9.9658108  55.5062485
  29.6788750   9.1989422  56.1742172  30.4807053   9.5006275  54.6096306
  30.7746296  10.5364189  56.1125031  25.9242897   8.8432999  52.1056519
  24.8139973   8.8784895  52.6654625  26.5624390   7.6913490  51.8905640
  27.3918705   7.5589008  51.3296700  26.1003666   6.4420047  52.4150658
  25.0318203   6.3392820  52.2259521  26.6343708   5.2842855  51.5140343
  26.2174034   5.2928867  50.5069771  27.7035332   5.4880633  51.4551620
  26.3038902   3.9013283  52.1634483  25.1255341   3.5492539  52.0574417
  27.2734299   3.2709436  52.7081795  26.4512405   6.4127727  53.9658890
  27.5869350   6.0833483  54.2972794  25.4533100   6.5943413  54.7880859
  24.5813732   6.8463950  54.3450317  25.5680618   6.5319834  56.2760429
  26.5592785   6.1604228  56.5359116  25.5440979   7.9524446  56.8579903
  24.7712021   8.4981890  56.3167877  25.0736599   8.0850191  58.2866669
  24.0528297   7.7045684  58.3222504  25.7133636   7.4833355  58.9323082
  25.1195889   9.1142826  58.6424980  26.8870773   8.6645947  56.7358627
  27.5688953   8.2776432  57.4931602  27.2219448   8.2992525  55.7650414
  26.7879601   9.7430973  56.8587723  24.4817448   5.5604625  56.7791634
  23.5562630   5.1271138  56.0872498  24.6368084   5.0336881  58.0055809
  25.3194561   5.4172964  58.6434975  23.7473412   4.1033163  58.6397171
  23.2842445   3.4941170  57.8634949  24.6036987   3.1599808  59.5494156
  23.8521919   2.4876132  59.9632568  25.5200424   2.2292790  58.7879982
  26.4334793   2.7611561  58.5218353  25.8243446   1.3608912  59.3722954
  24.9570484   1.9062052  57.9123497  25.4292068   3.7518930  60.5532608
  26.2528114   3.9790542  60.1154556  22.6882133   4.8209586  59.4218674
  22.9645996   5.8050776  60.0802917  21.5238800   4.2372670  59.4718513
  21.3731480   3.3620203  58.9908905  20.4132347   4.8253069  60.2786560
  19.6896248   4.0169296  60.1736717  20.7371235   5.0920253  61.2846642
  19.7303352   6.0792532  59.6599464  18.6427803   6.4285274  60.1307411
  20.2061672   6.5029783  58.4907227  21.0385418   6.0414548  58.1527176
  19.6386929   7.5298710  57.6484718  19.4975281   8.4201403  58.2613297
  20.2955666   7.9587731  56.8917274  18.3725433   7.1104708  56.9500198
  18.2153702   5.9666042  56.4316750  17.4456005   8.0014877  56.7110519
  17.7038383   8.9213266  57.0386314  16.2032928   7.8124542  55.9046669
  15.5906382   6.9932685  56.2810822  15.3671389   9.0894709  55.9970627
  15.1580591   9.3245974  57.0406609  15.9918165   9.8841114  55.5891113
  13.9503994   9.1490612  55.3662643  14.0340967   8.8169746  54.3314629
  12.9925623   8.2563992  56.1402588  12.7917376   8.6002293  57.1549301
  12.0834646   8.1482744  55.5486908  13.4230967   7.2612319  56.2515221
  13.4890270  10.6138325  55.5735397  12.5006838  10.8231049  55.1642990
  13.4712629  10.9288673  56.6168709  14.2045975  11.2851105  55.0987320
  16.4903259   7.3542686  54.5086365  16.9438896   8.1658058  53.7099228
  16.0388947   6.1664453  54.1877594  15.5785446   5.6059175  54.8906021
  16.1156693   5.6313472  52.8019371  17.0851326   5.8421340  52.3504868
  16.1192226   4.0731769  52.8437309  15.2224236   3.8173373  53.4080009
  15.9520912   3.6280396  51.8629036  17.4519348   3.5365715  53.3873291
  18.2470837   3.8370659  52.7050209  17.5147800   3.9145865  54.4077454
  17.3779697   2.0183392  53.4683952  16.3934631   1.7382801  53.8431168
  17.2904472   1.5642968  52.4813385  18.5170708   1.3867085  54.3025131
  19.4133034   1.9755843  54.1073341  18.2054787   1.4788601  55.3429527
  18.7036190  -0.0107416  54.0031929  19.4375515  -0.5091389  54.4859505
  17.9024334  -0.5597154  54.2803726  18.9482746  -0.1082126  53.0281334
  15.0385313   6.2301002  51.9127884  14.0665340   6.8071241  52.4471321
  15.1264696   6.0803509  50.5452042  15.9876223   5.6922255  50.1876068
  14.2390804   6.5570817  49.4906464  14.8429060   6.5958281  48.5840073
  13.0266142   5.6022410  49.2392426  12.5743876   5.4046478  50.2111244
  12.3675909   6.0051537  48.4701881  13.4626446   4.2132134  48.6560478
  14.0496187   4.3052230  47.7422142  14.0423689   3.7106509  49.4302940
  12.2329903   3.2789609  48.4178810  11.7052851   3.6446183  47.5370178
  12.6627979   2.3016574  48.1982231  11.1322765   3.0821600  49.4931107
  11.5889254   2.8948097  50.4649467  10.5187302   3.9716830  49.6359863
  10.0893679   2.0292375  49.1842766  10.6000948   1.1583079  49.1570854
   9.4329596   1.9107008  49.9426880   9.5444517   2.1905184  48.3493195
  13.7102451   7.9957595  49.6846161  12.5144053   8.2815189  49.7934875
  14.7045689   8.8772306  49.8275414  15.6422749   8.5550413  49.6351852
  14.5799417  10.2771263  50.1601143  13.5128965  10.4938154  50.2107162
  15.1436319  10.4775610  51.5221367  14.6936092   9.6947966  52.1327629
  16.2256184  10.3560925  51.5736351  14.6257448  12.1014442  52.1056900
  13.3116331  12.0221739  51.8782654  15.2237654  11.2763309  49.2363625
  16.3066826  11.0054893  48.7364388  14.4727535  12.3504658  48.8394547
  13.6497068  12.5446529  49.3917122  14.9321260  13.4197721  48.0477562
  15.9404964  13.2799616  47.6582108  14.0520477  13.5386896  46.7811699
  12.9972973  13.5757360  47.0536232  14.3150091  14.8601570  45.9040184
  13.6521540  14.8892155  45.0392151  13.8222980  15.6902590  46.4102478
  15.3819857  15.0098896  45.7389641  14.2491426  12.2921238  45.8696480
  14.0141754  12.6612453  44.8713264  15.2328014  11.8257427  45.9244576
  13.1778870  11.2440662  46.1223602  13.1754866  10.9090862  47.1596069
  12.1732206  11.5847626  45.8720055  13.5651846  10.4726133  45.4568062
  14.8706799  14.6457767  48.8375206  13.8450804  15.0552988  49.3779602
  15.9324055  15.4170094  48.7840118  16.6142159  15.0891352  48.1148834
  16.0923271  16.7205963  49.4200211  15.1952496  17.0921307  49.9153137
  17.1812038  16.6395893  50.5272293  18.1602745  16.7805958  50.0693626
  16.9823551  17.4362011  51.2441444  17.2608356  15.3537207  51.4463577
  16.3004227  15.2901850  51.9578972  17.2658253  14.4502783  50.8365517
  18.3597641  15.3320551  52.3990479  19.2739468  15.4815435  51.8245735
  18.3249130  16.1262627  53.1447868  18.4937077  14.0100536  53.0015411
  18.8027401  13.2527399  52.4090271  18.1819553  13.5569868  54.1731949
  17.8872013  14.3105249  55.1879044  17.9480743  13.8351021  56.0769348
  18.1346588  15.2896891  55.1980095  18.2515945  12.2840948  54.3424797
  18.0052032  11.9172325  55.2506714  18.5160522  11.7043028  53.5588951
  16.2506962  17.7789650  48.3607445  16.5740261  17.4412689  47.2323494
  16.2477951  19.1098289  48.6935959  16.0003281  19.3422489  49.6448288
  16.5688152  20.1806278  47.6837692  17.3918495  19.7746677  47.0956268
  15.4364843  20.5590248  46.8335266  15.2880793  19.6677742  46.2238159
  14.1168623  20.7919350  47.5441437  14.2891912  21.6680679  48.1692772
  13.2863035  20.9754639  46.8625374  13.7862120  20.0374756  48.2579880
  15.7835083  21.6986198  45.7880859  16.7850475  21.6025009  45.3688278
  15.1169043  21.5740566  44.9347229  15.5974588  22.6691589  46.2480164
  17.1069698  21.3944283  48.4837379  16.7049198  21.5939636  49.5837364
  17.9624195  22.2272339  47.8947639  18.4603710  21.9370174  47.0653572
  18.1812496  23.6419525  48.2695770  17.3397408  23.8941669  48.9148293
  19.5352936  23.7945957  49.0769043  19.4527760  23.1012096  49.9138680
  20.4406948  23.5282974  48.5315285  19.7082024  25.2548294  49.5329475
  20.1967773  25.7786388  48.7113533  18.7239056  25.6925564  49.6992569
  20.8124104  25.2810154  50.9963531  22.2981930  24.7006435  50.1398544
  22.1218910  23.7704773  49.5996590  22.6372967  25.4841881  49.4622383
  23.1914062  24.5532951  50.7469444  18.1306400  24.5964642  47.0871506
  18.9786491  24.4352608  46.2236748  17.1527939  25.5214062  47.0501518
  16.6095619  25.5899429  47.8988571  17.1492462  26.6574249  46.0952606
  17.6771507  26.3229790  45.2021942  15.7410107  27.1243382  45.8367271
  15.8415127  27.8533897  45.0326843  15.2575693  26.3027287  45.3082008
  14.8339901  27.6895199  46.8917694  14.7929173  27.1321411  47.8275795
  15.3555107  28.6174221  47.1265564  13.2002954  28.3453388  46.3195763
  12.5318270  26.9122124  45.5162506  12.7508478  25.9928780  46.0593376
  11.4479504  27.0092106  45.4537659  13.0138407  26.7332172  44.5551453
  18.0289478  27.8137989  46.6683083  18.1877766  27.9778786  47.8714371
  18.7642403  28.4823589  45.7732353  18.8593063  28.2485809  44.7952728
  19.7719898  29.5077953  46.2441063  19.8642464  29.5476341  47.3294640
  21.2036686  29.2098293  45.7657242  21.2439156  28.9903717  44.6988029
  22.2897587  30.3635082  45.9988365  22.5005512  30.4964924  47.0599594
  23.2560005  30.0843067  45.5786896  21.9658909  31.3130951  45.5728111
  21.6189899  28.0353699  46.3752632  21.4872284  28.1102676  47.3232231
  19.2867146  30.8530312  45.6909142  19.3465424  31.0832062  44.4663582
  18.8424301  31.7397461  46.5597267  18.8838997  31.4791260  47.5346413
  17.9233456  32.8031883  46.1902313  18.1109123  33.1197433  45.1642113
  16.5257759  32.2313995  46.2921257  16.5595036  31.3982372  45.5901260
  16.1222210  31.6480103  47.6534691  16.5270424  30.6394215  47.7369232
  16.3908730  32.3176346  48.4704933  15.0429411  31.4967632  47.6728897
  15.4341993  33.0972824  45.7204132  15.5485973  33.0552025  44.6372528
  14.5145941  32.5960922  46.0224686  15.3487263  34.1250877  46.0731430
  18.1108379  34.1001511  46.9412994  18.3604431  34.0161438  48.1131516
  17.9417534  35.1835289  46.2262383  17.6645069  35.0261421  45.2678719
  17.8775215  36.4883652  46.8672028  18.7907963  36.5760498  47.4557076
  17.9740238  37.6521072  45.8502731  18.2500801  38.5389862  46.4206619
  18.7092743  37.3898964  45.0895157  16.6606140  38.0028267  45.0300407
  16.5785789  37.3789711  44.1399994  15.7550554  37.8784256  45.6238365
  16.5957108  39.4047127  44.4213371  17.4583950  40.2409744  44.5779037
  15.6535110  39.6840172  43.6161652  15.5178013  40.6397858  43.3192024
  15.0565548  38.9075966  43.3693466  16.6218357  36.5652618  47.8135872
  15.5187702  36.1849632  47.4379578  16.7370281  37.1704254  48.9611778
  17.7037678  37.2316284  49.2471275  15.5674944  37.5464706  49.8208046
  14.7508774  37.8839874  49.1825867  14.9492903  36.3407326  50.4398117
  14.6525574  35.6773720  49.6274071  15.9016914  35.6316147  51.3553123
  16.7119427  35.4133720  50.6596451  16.1958885  36.2738380  52.1854324
  15.5224504  34.6765671  51.7188454  13.7531738  36.6646767  51.0994110
  13.0564442  36.5034676  50.4589615  15.9003935  38.6001053  50.8464813
  17.0099411  38.5966988  51.4544792  14.9734650  39.5467567  51.0163803
  14.1595440  39.3971977  50.4373589  14.9428596  40.4657631  52.1155243
  15.9295244  40.8967514  52.2853508  14.1343794  41.6754303  51.7437553
  14.3788576  41.9257278  50.7114334  13.0988522  41.4338150  51.9833488
  14.4527168  42.9788895  52.4761581  13.4954453  43.7384872  52.6617088
  15.6872931  43.2239037  52.6569328  14.5075464  39.8978767  53.4960251
  14.5349894  40.4874535  54.5340271  13.9933748  38.6251411  53.4619026
  13.8992147  38.1512604  52.5749588  13.6469793  37.7883682  54.6558800
  13.0282183  38.4219818  55.2913055  12.9022789  36.4534874  54.3109894
  13.5138578  35.7157402  53.7915649  12.4297400  35.7989960  55.5989532
  11.6783371  35.0122795  55.5313759  13.2515984  35.2709274  56.0824699
  11.9635429  36.4933472  56.2979774  11.5806360  36.7834740  53.5757790
  11.6947565  37.2082634  52.5784607  10.9640131  35.8870354  53.5104027
  10.9540138  37.3745537  54.2436638  14.9047194  37.5487862  55.5302734
  15.9207935  36.9226990  55.1104546  14.9110470  37.9777489  56.8089600
  14.0362749  38.9164391  57.4164200  13.2042856  38.2906265  57.7392960
  13.7338505  39.8589287  56.9599571  14.8224258  39.4249725  58.5969543
  14.2716742  39.9293747  59.3908958  15.5442829  40.1549377  58.2306519
  15.6091471  38.1245041  59.0578842  14.8434067  37.4686584  59.4721375
  16.4623890  38.3715973  59.6895714  15.9952993  37.6237564  57.7721519
  16.8556194  38.1341209  57.3391647  16.2731285  36.1084213  57.7837791
  15.2926598  35.3705711  57.5087166  17.4444160  35.6491394  58.1550941
  18.0976620  36.3568687  58.4592209  17.9130344  34.2723618  58.1306686
  17.8685608  33.8917542  57.1102486  19.3595676  34.2970543  58.5815620
  19.8769264  35.2046852  58.2706718  19.4564819  34.3028526  59.6672287
  20.1775589  33.0373459  58.3323021  19.8301373  32.2862663  59.0417252
  20.0690174  32.7865677  57.2771111  21.5878105  33.2255936  58.7213669
  21.8709240  33.4911461  59.8773003  22.5841064  32.9217949  57.8712502
  23.5313282  33.0615082  58.1927452  22.2918320  32.5207100  56.9915848
  17.0187016  33.3545532  58.9199219  16.6235332  32.2569542  58.4841652
  16.7218781  33.8437309  60.1059990  17.0598164  34.7594604  60.3654938
  15.7735500  33.0486107  60.9776077  16.1387177  32.0235176  61.0403366
  16.0585899  33.5466194  62.3924751  15.6412201  32.8540230  63.1233749
  17.1389923  33.5747643  62.5340347  15.4877110  34.9558029  62.7042427
  14.8706350  34.9802818  63.7870560  15.4711084  35.8589020  61.8737488
  14.2779150  33.0289917  60.6973076  13.6346750  32.1529236  61.2286263
  13.8128386  33.8024101  59.7575531  14.5097141  34.3794899  59.3087273
  12.4040051  33.8911057  59.3557777  11.8727531  33.5506477  60.2445793
  12.0291948  35.3629570  59.1556015  12.2566013  35.8195992  60.1188622
  12.6009111  35.7386589  58.3070221  10.5802183  35.7223206  58.9117355
  10.2997694  35.2926712  57.9500465   9.9869862  35.1286774  59.6072693
  10.1419725  37.1423912  59.0699577  10.7201023  37.9421997  59.7433662
   9.1284943  37.5252113  58.3061485   8.7065973  36.9094429  57.6257553
   8.5793982  38.3709869  58.3632278  12.0441027  32.9929619  58.1519547
  10.8856354  32.7231750  57.8741455  13.0750999  32.5364380  57.4632912
  14.0061922  32.7908630  57.7606697  12.9979401  31.5445366  56.3818398
  12.2945900  31.8848152  55.6218338  14.3448925  31.4761410  55.6154747
  15.2037115  31.3647423  56.2773857  14.3478622  30.3432026  54.6313744
  14.4016094  29.4196682  55.2078209  13.4522963  30.3892574  54.0117455
  15.2588730  30.3233471  54.0332451  14.6897669  32.8434677  54.9627838
  13.9568672  33.1111298  54.2016563  14.6575899  33.6170044  55.7300568
  16.0405827  33.0020828  54.2232437  16.8200397  32.4492302  54.7475510
  16.0104141  32.5965042  53.2119560  16.3015690  34.0578880  54.1506844
  12.5005789  30.1067009  56.8911400  12.7031755  29.7610245  58.0544167
  11.8208618  29.4005928  55.9924660  11.8660021  29.7178345  55.0346451
  10.9403057  28.2500324  56.2848167  11.1817484  27.8872833  57.2839279
   9.4624529  28.6747417  56.1641960   9.3049231  29.1712990  55.2067413
   8.7625313  27.8393803  56.1837349   8.9970627  29.7394943  57.0831070
   9.3926401  30.6736526  56.6843987   7.9112906  29.8310947  57.0546188
   9.2901182  29.5214958  58.6183357  10.3722544  29.4608173  58.7340927
   8.9119310  30.4120636  59.1203041   8.6275206  28.3021641  59.1702614
   7.7942324  28.0547447  58.6559486   8.9719086  27.4814663  60.0962219
  10.0610046  27.7014046  60.8030357  10.3551970  26.9356079  61.3921928
  10.6575451  28.4819221  60.5684319   8.4077482  26.3060818  60.2826080
   8.7628908  25.7029915  61.0107956   7.6726394  25.9150238  59.7109528
  11.2003555  27.0250511  55.4444046  10.8257933  26.9816799  54.3025513
  12.0496979  26.2157478  56.0255737  12.2272081  26.3440361  57.0115433
  12.6563463  25.0046310  55.4396515  12.6870699  25.1654968  54.3620224
  14.1035328  24.8578377  55.9690399  14.0662804  24.5586033  57.0164986
  14.5606318  24.0009098  55.4742355  14.9939041  26.0324020  55.8589554
  15.9257679  26.1746883  54.8652802  16.6601601  27.2737045  55.1342125
  17.4621811  27.7276001  54.5710602  16.1980419  27.8129864  56.2463303
  16.5100670  28.6702404  56.6797562  15.1673317  27.0122089  56.7531586
  14.6900511  27.0983448  57.7181396  11.7209196  23.8002720  55.6151237
  11.5350084  23.4213448  56.7834358  11.0353870  23.3284016  54.5840454
  11.2544346  23.8040199  53.7203865   9.7859526  22.5144997  54.6274338
   9.1857662  22.5982742  55.5334435   8.9686947  23.0322857  53.3562469
   9.5105858  23.0074005  52.4108200   7.8173552  22.0433464  53.1219330
   7.2484584  22.3570080  52.2466774   8.3255606  21.1411152  52.7816277
   7.1446290  22.0203457  53.9792633   8.4480104  24.4688282  53.6363258
   9.1917639  25.2067947  53.3357468   7.5868983  24.5635490  52.9748001
   8.1317902  24.5462494  54.6765709  10.1536283  21.0405693  54.5406418
  11.0379391  20.6402740  53.7677574   9.4997520  20.1831150  55.2932396
   9.0699492  20.5311375  56.1383705   9.8010063  18.7656040  55.2961922
  10.3012066  18.4235954  54.3901367  10.7724180  18.5099983  56.4313278
  10.3545904  18.9385090  57.3423157  10.6917315  17.4528561  56.6843834
  12.2078266  18.8696365  56.2076645  12.6871977  20.1726379  56.3761749
  12.1179199  20.9787617  56.8149109  14.0317535  20.5754967  56.1093216
  14.3280029  21.6096630  56.2049484  14.9242144  19.5062866  55.8403397
  16.1769676  19.8360329  55.5796089  16.7911930  19.1483402  55.8468323
  14.4608946  18.1425285  55.6809502  15.1785212  17.4534073  55.2607994
  13.0937357  17.8666992  55.8815651  12.6387949  16.8886223  55.8287010
   8.5186176  17.8660774  55.2346115   7.6272497  18.0558624  56.1044846
   8.3216152  16.9409084  54.2291946   9.0899029  16.6832542  53.6263275
   7.1261783  16.2441883  53.8176155   6.3865352  16.5905228  54.5394821
   6.7527208  16.7262917  52.3702126   7.4689732  16.3036003  51.6656456
   5.7799811  16.2650681  52.1994667   6.6924186  18.2848816  52.2641258
   7.6794386  18.7044544  52.4586868   6.5543404  18.6633205  50.7844582
   7.2700014  18.1063404  50.1797295   5.5722179  18.4996529  50.3408966
   6.7258959  19.7283020  50.6279831   5.6646924  18.9755440  53.1871910
   5.7047114  18.5231647  54.1780777   5.9045520  20.0379314  53.1435699
   4.6745524  18.7854023  52.7729836   7.2379923  14.7290545  53.8163109
   8.3333025  14.2044001  53.9307709   6.0444226  14.0752220  53.6646309
   5.2211723  14.6139040  53.4362030   5.8633938  12.6557159  53.8477287
   4.8238654  12.5442734  54.1560516   6.1657262  11.8185568  52.6327362
   7.2184038  11.9389954  52.3768730   6.2216091  10.7505341  52.8432236
   5.2436757  12.1311798  51.3917160   5.3170013  13.1789913  51.1004868
   5.6121240  11.5581217  50.5408592   3.7337861  11.8659353  51.4518051
   3.2806942  11.4165182  52.5330658   3.0184224  11.8616381  50.4039993
   6.5427117  12.0478191  55.0813675   6.3822370  12.6820402  56.1564178
   7.3579483  11.0154190  54.9445305   7.4512320  10.5541697  54.0508614
   8.1665926  10.4295835  56.0594139   7.4946404  10.3073721  56.9089088
   8.8532057   9.0929422  55.6887054   9.1450748   9.1321659  54.6392403
   9.7404804   8.7858238  56.2423477   7.7179742   8.0215368  55.8055649
   7.3034110   8.0955610  56.8109283   6.9983559   8.1307964  54.9942017
   8.2648973   6.6491914  55.9255867   8.8571167   6.4537201  55.0316238
   9.0017309   6.5590372  56.7237396   7.1540256   5.7094288  56.1145744
   6.7347779   5.7752509  57.1185646   6.2363172   5.8880363  55.5542068
   7.5397911   4.2855296  55.9685364   6.7421551   3.6825171  56.1108475
   7.6871042   4.0542035  54.9964790   8.3337803   4.0274568  56.5369377
   9.2166147  11.3135128  56.6513748   9.4987984  11.2119322  57.8507042
   9.8085899  12.2585955  55.8787346   9.4084196  12.4346724  54.9682617
  10.8894167  13.1907787  56.2694969  11.5342255  12.6055107  56.9250755
  11.5081110  13.7990456  55.0745430  11.0060425  14.7156200  54.7648277
  12.5363770  14.0640354  55.3206139  11.5563669  13.0844555  54.2528801
  10.3975792  14.3075657  57.1591301  11.1031351  15.0797615  57.7615128
   9.1191463  14.3967085  57.4888191   8.5800467  13.6724310  57.0361710
   8.4450693  15.2377825  58.5194550   8.6330042  16.2356834  58.1232529
   6.9117084  15.0299282  58.5248985   6.5766416  14.8737059  57.4995079
   6.6071658  13.6278238  59.2264175   6.9702935  13.5060368  60.2469101
   5.5328321  13.4536600  59.1666374   7.1098881  12.8648672  58.6320534
   6.1608210  16.1620731  59.1799126   6.6895285  17.1011887  59.0167046
   5.2295303  16.2285709  58.6174393   5.9389248  15.9584370  60.2274780
   9.1636333  15.2982273  59.8898315   9.0229406  16.3541412  60.5178032
   9.9135237  14.2906151  60.2293968   9.8359756  13.4375257  59.6943016
  10.6148348  14.2280607  61.5289459   9.9794903  14.6364250  62.3148689
  10.9604530  12.7615223  61.9198494  11.3574696  12.7289801  62.9344521
   9.6023893  12.0812311  61.9292526   9.8203144  11.1228142  62.4004707
   8.8379841  12.5973997  62.5100746   9.2520905  11.8360195  60.9266281
  11.9597559  12.0083733  61.0259018  12.9001513  12.5523453  60.9372520
  12.2854881  11.0820904  61.4991875  11.5328608  11.8095455  60.0428810
  11.8667574  15.0680275  61.5690155  12.3121061  15.4342518  62.5992241
  12.4413385  15.3102636  60.4190063  11.9083433  15.0068550  59.6165352
  13.7324228  16.0763359  60.2826996  14.4661751  15.9702492  61.0817375
  14.4459238  15.5609436  59.0612411  13.8522940  15.9802494  58.2489052
  15.4084606  16.0711880  59.0255585  14.6784887  14.0456820  58.9469910
  13.7400589  13.4985094  58.8572617  15.5013027  13.7092810  57.7022400
  15.0553484  14.0866938  56.7820282  16.4888878  14.0806818  57.9758034
  15.5849562  12.6270151  57.6032219  15.4209375  13.6632605  60.2207680
  15.9375734  12.7094336  60.1139641  16.2153664  14.4019709  60.3270226
  14.8122044  13.6534491  61.1248970  13.5378723  17.6458149  60.1367569
  14.5265093  18.2777901  59.8587608  12.2938557  18.0912132  60.2821236
  11.5488110  17.4098816  60.2537766  12.0486565  19.4977741  60.2233734
  12.3196201  19.9141273  59.2531509  10.5321884  19.6240311  60.3967934
  10.2496262  20.6261005  60.0741196  10.0410032  18.8924294  59.7552299
   9.7815790  19.3673172  61.6718597   9.9972115  18.3200035  61.8833656
  10.2649422  19.9884644  62.4259377   8.2720098  19.5987473  61.6641846
   8.0960836  20.6577435  61.4752922   7.7681231  19.1134586  60.8283043
   7.7703085  19.1687031  63.0029335   7.5590758  19.8903370  63.6772652
   7.3286753  17.9453449  63.3199196   7.2691426  16.9676991  62.5508156
   7.7223783  16.9881191  61.6484489   6.9974790  16.0744514  62.9360504
   6.8702846  17.7980251  64.4954987   6.3965244  16.9663239  64.8178787
   7.0311298  18.5158615  65.1875534  12.9304390  20.2005463  61.2654991
  12.9221497  19.7809906  62.4563599  13.6662130  21.2956924  60.8669434
  13.5374413  22.0192623  59.6112976  12.4984808  22.1501465  59.3087578
  14.1551790  21.5491581  58.8461189  14.1237688  23.3778324  59.8432617
  13.2959299  24.0461864  60.0800896  14.6235933  23.6758156  58.9215889
  15.0503016  23.1754837  61.0212746  15.1506681  24.0516567  61.6618576
  15.9977922  22.9994755  60.5119781  14.5545225  21.9247551  61.7843132
  15.3955116  21.2637825  61.9939613  13.9194546  22.3395557  63.0828705
  14.5996447  22.2019329  64.1066132  12.6258802  22.8229275  63.0833244
  12.2467871  23.1988850  62.2259789  12.0557213  23.2921257  64.3890533
  12.6805811  24.1315250  64.6941299  10.6788683  23.9948387  64.2437820
  10.0039339  23.2445507  63.8319092  10.3698273  24.4558811  65.1818771
  10.7542772  25.1914310  63.3278847   9.8662796  25.2677784  62.4100494
  11.5334339  26.1367989  63.6516914  11.9996128  22.1721439  65.4979782
  12.5109024  22.4187737  66.5510635  11.3998289  20.9882240  65.1952438
  10.9357395  20.8387012  64.3107300  11.4380522  19.8757191  66.0603561
  10.8708782  20.2945766  66.8916016  10.8006754  18.6572151  65.3311310
   9.7739782  19.0066719  65.2221527  11.1214485  18.4624519  64.3077621
  10.8753138  17.3872318  66.1675415  11.8418303  17.1040096  66.5843582
  10.0938807  17.3742352  67.5012054  10.2923288  18.2316551  68.1442871
   9.0384140  17.4201584  67.2329102  10.1772394  16.3831577  67.9472046
  10.3392982  16.2318192  65.3333359   9.5740786  16.5253544  64.6147385
  11.1254683  15.7310238  64.7683182   9.9233370  15.4500427  65.9688568
  12.8638153  19.5524311  66.5947723  13.0560865  19.3441277  67.7747650
  13.8183651  19.5371132  65.7162018  13.5831242  19.7085495  64.7490540
  15.2347050  19.4469013  66.1271057  15.3334522  18.5648155  66.7597809
  16.1279984  19.2731762  64.9376984  15.8634462  18.3504734  64.4212418
  16.2127552  20.1000576  64.2325897  17.4346142  19.2518063  65.5096054
  17.4949970  18.3757229  65.8974609  15.7440987  20.5174217  67.0984726
  16.1961422  20.1968746  68.1691284  15.6681442  21.7790565  66.7217484
  15.2823448  21.8989849  65.7960739  16.0116291  22.9425392  67.5649414
  17.0658836  22.8766842  67.8338470  15.7574844  24.1648674  66.6121979
  14.7885046  24.0030212  66.1399841  15.5357361  25.0724144  67.1736984
  16.7528515  24.5644150  65.4983673  17.1179333  23.6660194  65.0006714
  16.2020988  25.3886337  64.3610535  15.4351187  24.6702023  64.0717392
  15.7119350  26.2674961  64.7799072  16.9445477  25.5722542  63.5844193
  17.8636379  25.2773876  66.1045609  18.4073429  24.7008514  66.8529587
  18.5853329  25.4988537  65.3182983  17.4297276  26.1384087  66.6129532
  15.1683969  23.0193405  68.8495865  15.7032909  23.6023312  69.8065796
  13.9755831  22.3328362  68.8631439  13.6886482  21.9970703  67.9548340
  13.1423960  22.1629887  70.0421677  13.2937803  23.0681305  70.6303024
  11.5977697  21.9918652  69.7290115  11.4253750  21.0084343  69.2917023
  10.7197142  22.2449341  71.0185089  10.9518642  23.1375904  71.5993500
   9.6633301  22.3192062  70.7603683  10.8431005  21.4214344  71.7218781
  11.2574682  23.0214844  68.8538895  11.7445650  22.9071102  68.0345917
  13.5942783  21.0288219  70.9795303  13.7938795  21.2210541  72.1579208
  13.8271809  19.8204803  70.4380569  13.4561625  19.5757828  69.5311050
  14.3353662  18.6337223  71.1630249  13.5350504  18.3766499  71.8569412
  14.3490887  17.4375248  70.2524719  13.3817263  17.3473167  69.7583313
  15.0960436  17.6449223  69.4862213  14.7691374  16.3074760  71.0904770
  15.8224821  16.4569054  71.3276138  14.1524553  16.2199841  71.9849854
  14.7987700  14.9670029  70.3543549  13.7700167  14.6883373  70.1260757
  15.3885231  15.1163607  69.4499207  15.4003782  13.8710814  71.2361069
  16.3961792  14.2655191  71.4383392  14.7787256  13.8599091  72.1313858
  15.5147438  12.6291380  70.5112915  14.6916847  12.0815392  70.7182159
  15.7442875  12.7024727  69.5304565  16.2006111  12.0928221  71.0232010
  15.6599340  18.9778671  71.8769455  15.8304510  18.5527191  73.0347290
  16.4919472  19.8017521  71.2842484  16.1746216  20.0822735  70.3673477
  17.6692600  20.5327530  71.7849731  18.2695942  19.7438221  72.2380600
  18.4299259  21.1401825  70.6407623  17.7975330  21.6804447  69.9362793
  19.0902233  21.9252033  71.0093384  19.3202915  20.0653629  69.9327011
  20.2196922  19.5385818  70.6026917  19.0598488  19.7998371  68.6320953
  18.2765160  20.2416039  68.1723862  19.6780548  19.2108021  68.0926819
  17.4369106  21.4565716  73.0161285  18.2430992  22.3045425  73.3346710
  16.3597870  21.2848015  73.8089371  15.7832460  20.4675140  73.6683960
  16.0531788  22.0333347  75.0234375  16.9805031  22.5738659  75.2131729
  14.8395367  23.0347748  74.9405975  14.6836996  23.6546841  75.8235016
  14.9664106  23.8667660  73.6455460  15.8793030  24.4623165  73.6521530
  15.0515995  23.3450413  72.6923141  14.2030249  24.6413136  73.5718918
  13.7085075  22.2402058  74.7225800  13.6685476  21.8935795  73.8282318
  15.7204809  20.9977970  76.1628723  15.4580412  21.3209743  77.3454666
  15.4167423  19.7533684  75.8760529  15.3864298  19.5062389  74.8972244
  15.1001825  18.7044716  76.8368759  14.4650784  19.1286831  77.6145630
  14.4858675  17.5484581  76.0939484  15.2626457  17.2435379  75.3927078
  14.3057203  16.8107357  76.8758850  13.1512165  17.8319302  75.3403625
  13.3792725  18.3882332  74.4311752  12.7463360  16.8542233  75.0790863
  12.0322247  18.5348511  76.1129456  11.2474947  19.3059692  75.4893494
  11.9928026  18.4993896  77.3837662  16.2911682  18.0080109  77.5510178
  16.0904636  17.4672661  78.6195374  17.4958668  18.1626053  76.9999161
  17.5480289  18.9359760  76.3523941  18.7416153  17.5555000  77.5756226
  18.3112011  16.7608299  78.1849976  19.5199165  17.0019684  76.3628922
  18.9684162  16.1165676  76.0466461  19.7006111  17.7383118  75.5797882
  20.9764404  16.4382591  76.5567017  21.5034370  17.2764435  77.0125732
  20.9194908  15.2564259  77.5346069  21.8832722  14.9394159  77.9330139
  20.3864841  15.5121870  78.4503555  20.4012299  14.4364748  77.0374298
  21.7064953  16.0185452  75.2245789  22.7576828  15.8443718  75.4543152
  21.2976685  15.1131611  74.7759781  21.6017342  16.7927494  74.4644928
  19.3652248  18.6622219  78.4190063  19.2708130  18.5748119  79.6714401
  20.0836906  19.5789280  77.9668808  21.0343361  15.8462191  32.6451683
  20.3047123  15.0466452  32.5362778  21.9673424  15.5389919  33.1127586
  20.7224483  17.1480598  32.2739563  21.6682968  18.2799988  32.3620949
  21.3211193  19.4315586  31.9440937  22.7206078  18.1571751  32.9474258
  19.5109997  17.4355259  31.7157822  18.2459106  16.9959812  32.3166847
  18.4595623  16.1351185  32.9620247  17.2568398  16.4874382  31.2575054
  17.6817970  15.8469419  30.4876328  15.8883801  16.7006664  31.3270054
  15.3555765  17.5351105  32.4304810  14.2755642  17.5487022  32.5638847
  16.1473389  18.2404556  33.2303085  15.7686300  18.8881226  34.0181160
  17.6744480  18.1243935  33.2186089  18.0213871  19.0907764  32.8326988
  18.1355762  18.0346985  34.5861130  17.5589924  17.3514462  34.9701004
  14.9392900  16.1128864  30.3225822  15.2968235  15.3119097  29.5103416
  13.7052870  16.3780785  30.4226646  41.6707878  18.9623146  45.4405251
  41.9962006  18.0736694  44.9039230  42.1692085  19.9292068  45.4257050
  40.7576065  18.6964722  46.3369980  40.2136536  19.7607422  47.3019867
  40.5863075  20.9228287  47.1914864  39.4461708  19.4845123  48.1586189
  40.1888885  17.4569874  46.3895416  39.2225494  16.9565163  45.4201355
  38.9457703  15.9442015  45.7392006  39.8674622  16.7922592  44.0351944
  40.4749908  15.9130239  43.8317680  39.8957481  17.8213367  43.1227264
  39.0978355  19.0083961  43.4893456  39.2120209  19.8614006  42.8232079
  38.2899284  19.0828133  44.5302353  37.6902657  19.9794064  44.6718292
  37.9800339  17.8830547  45.4465179  37.9164429  18.2221489  46.4877472
  36.8002090  17.2588310  45.0083313  36.4027634  16.7268848  45.7195320
  40.5555229  17.6577568  41.8498344  41.4393959  16.8234921  41.5986824
  40.4244232  18.5784283  41.0708542  18.1120605  16.5559063  59.2871704
  17.3860760  17.3150558  59.5703125  18.2423058  15.8185711  60.0764084
  18.6680374  16.4165955  58.0103188  18.3092957  17.2823944  56.8733521
  17.6555405  18.3596821  56.9648209  18.6628513  16.9308243  55.7983055
  19.5580063  15.3449717  57.7279091  20.6920681  14.9900703  58.5660057
  21.2785282  14.2417364  58.0189552  20.2986984  14.2409124  59.8055954
  19.3980331  13.6334858  59.7476273  21.1637707  14.0232868  60.7955933
  22.4130421  14.7630577  60.7732849  23.1673641  14.4277077  61.4824677
  22.5834045  15.7866507  59.9247742  23.5099850  16.3562889  59.9026184
  21.4949818  16.1881866  58.8950806  20.8883648  17.0103703  59.2941017
  22.2039814  16.6909084  57.7522736  21.8300877  16.3830643  56.9083748
  21.1074409  12.9107676  61.8264275  21.9756527  12.8085794  62.6703072
  20.1403370  12.1973352  61.7644691  20.9327469  20.0813942  80.1231995
  67.7251740  49.9630203  47.0001717   2.0126626  46.1956444  10.9974766
  11.6898689  32.1305542  62.4283600  85.5571747  63.8856163  30.4181309
  52.6734695  38.0482216  79.9816284  51.5726433  19.9136372  69.9851532
  72.7494125  18.2190685  57.0004807  73.1047440  71.2326660  28.0829620
  50.9598465  58.5046196  86.0306778  50.1021309  58.7686348  86.3636169
  51.1282158  57.6590042  86.4463959  59.8113403  15.3126192  60.1778488
  60.3193130  14.6470757  59.7139015  60.1266594  16.1443100  59.8241615
  43.6483574  21.4275723  15.0418339  43.9494972  20.7903557  14.3941441
  44.0198860  21.1218491  15.8693199  13.3478107  43.4925842  15.1039324
  12.8446875  42.8110733  14.6582394  12.9632015  44.3136330  14.7970276
  66.0037689  55.5578499  34.2857437  65.7957382  56.1712723  33.5809975
  65.8896103  54.6929283  33.8919067  26.8472424  53.9018135  14.8041878
  27.2671337  53.0946198  14.5069389  26.3176289  53.6338043  15.5551281
   5.9334302  10.7237320  20.0956745   6.2802382  10.2450581  19.3427944
   5.0070505  10.4846401  20.1254692   1.3759313  57.1099434  54.2036552
   1.5868827  57.9857445  54.5272408   2.1515646  56.5866928  54.4057198
  66.2981567  18.0112877  62.3599968  67.0353928  17.4720612  62.0737267
  66.6947479  18.6862965  62.9107323  74.6186829  61.0377579  50.3634186
  74.5999527  60.9612885  51.3173752  74.1745300  60.2494278  50.0511780
  22.2876492  44.2922401  38.6980705  21.9405346  45.0425529  39.1805382
  21.7374802  44.2344666  37.9169121  22.5302391  47.8268738  27.7432785
  23.1501217  48.1659431  28.3890438  22.4762287  46.8900223  27.9320126
  32.3194580  66.6389236  65.3670273  33.1897240  66.9708252  65.1463165
  31.9041386  66.4742203  64.5205002  54.0224533  51.7547150  66.4053345
  53.8345070  50.8294296  66.5626755  53.9827271  51.8487129  65.4535904
   3.3492336  15.4647894  61.7841530   3.8234715  15.1439228  62.5512085
   3.1807008  14.6807795  61.2615089  86.4557266  68.4040451  23.6876183
  85.9706955  69.2278214  23.6390057  87.0077744  68.4965973  24.4640903
  69.1272278  13.4094143  33.7853432  69.7913895  12.7217951  33.8332901
  69.1537323  13.7049713  32.8753014  65.5424347  51.3071060  11.4851494
  65.1146011  50.5036201  11.1891804  66.4480591  51.2197685  11.1877508
  85.1334152  59.7774773  60.5340691  84.3509750  59.3416710  60.1962891
  85.6363602  59.0776711  60.9506607  27.0700016  27.5297127   6.0556951
  27.4371471  28.3900566   5.8526115  27.7588539  26.9116135   5.8114276
  62.5402679  23.1871243   1.0144403  62.8126640  23.7590637   1.7320170
  62.7218246  22.3023109   1.3312616  21.4636574  31.4615135  61.6752052
  21.3460751  31.9084949  62.5134239  21.7424603  32.1513100  61.0729713
  71.7293015   4.6746612  67.6545563  71.0437393   4.5904193  68.3172379
  71.2748566   4.5456014  66.8220596  57.5802879  35.2480316  83.8409348
  58.3308868  35.7048035  83.4612122  57.8825874  34.3475342  83.9590302
   0.3702314  27.2391052  17.4978733   0.3565366  28.1958084  17.4702129
  -0.5033725  26.9785271  17.2060738  13.5071287  26.2370377  70.2790146
  13.3093681  25.6933365  69.5164490  14.2698336  25.8196869  70.6794281
  67.0023041  68.2395020  84.7625046  66.6359863  67.9565048  85.6003418
  66.8316803  67.5092773  84.1676254  73.6651764  41.9116821  57.3653793
  73.6620102  42.0184822  56.4141617  74.4030609  42.4434624  57.6636505
  68.3080063  50.2075005  20.4631081  67.7168045  50.5879021  21.1127300
  68.7475052  50.9609680  20.0689545  60.4165878  34.8561974  56.6673927
  59.7353439  35.0840034  56.0347443  60.0132828  34.1902618  57.2242622
  32.3151093  70.1665649  28.2392101  32.9209557  70.8048630  28.6157169
  32.2770615  69.4619827  28.8860092  12.4923534  56.4760704  42.8866158
  12.4877644  55.7744446  42.2355156  11.7010746  56.9812851  42.6998863
   0.5972703   4.2344208   7.4684877   0.7902223   4.8096066   6.7281075
   1.2963654   4.4114833   8.0978899  31.3579216  45.1371346  63.9011612
  30.4096565  45.2642555  63.8717995  31.6481152  45.2906837  63.0020256
  59.2109718  70.6469650  81.1729507  58.4412193  71.1986542  81.3120651
  59.9440193  71.1740265  81.4908676  70.3463211  34.1862526  30.7159557
  71.3000183  34.1060753  30.6997280  70.0656815  33.8822098  29.8528061
  65.4334488  15.4046164  37.6012764  65.2337036  14.6239815  37.0846100
  65.2251968  16.1361866  37.0201836  50.1898346  19.6889515  78.7866287
  50.0160866  19.1581650  79.5640030  49.4711151  20.3206882  78.7624207
  42.4113274  26.2490177  24.8430843  41.9940605  26.9202423  25.3830643
  42.7868271  26.7327366  24.1073875  76.2114487   3.7958984  65.3045044
  76.9866943   4.2759757  65.5956345  76.0493622   3.1584005  65.9998856
  68.3619080  13.2215986  12.7053757  68.2990417  12.4039888  12.2116213
  68.1297913  13.9017019  12.0730667  52.3111954  19.0940113   2.8414059
  51.9184723  19.9053879   2.5194294  53.0960350  18.9787521   2.3057070
  51.2573586  37.8506775  66.7131805  50.7207222  38.1810532  67.4336777
  51.3863106  38.6088982  66.1433563  28.1963120  70.5877914  41.9572754
  28.0348625  71.4318695  41.5357323  27.6447048  69.9706116  41.4765930
  76.0679321  14.5742083  57.7174301  75.5121002  13.8154163  57.8949852
  76.9494400  14.2108507  57.6329041  16.0521317  70.1136322  69.3418732
  15.3377180  69.8921127  68.7445679  15.6964636  69.9436493  70.2141342
  45.6768188  61.5510178  79.7394257  45.0573082  61.2017097  80.3800735
  46.4444199  61.7947464  80.2567444  75.8743515   7.4871016  28.2768688
  76.7785187   7.7536407  28.1104984  75.7452011   6.7183514  27.7213745
  84.8050995  55.1733742  21.6452961  83.8675079  55.0569954  21.7989731
  85.2064667  55.0445518  22.5046768  35.0625916  41.8408852  67.2618561
  35.2709999  42.2185249  66.4073486  34.5488167  41.0590591  67.0593338
  37.6122246  47.0805588  30.5702362  37.2389984  46.7243271  29.7639885
  37.9256592  46.3130112  31.0486298  10.1993217  61.0922546  16.5144024
  10.9449930  60.4972191  16.4360390  10.5930882  61.9620819  16.5820789
  66.5073318  37.9421577  27.6436195  67.4599380  38.0281219  27.6807537
  66.3176804  37.1557770  28.1553516  41.8834801  53.1786537  70.1471558
  41.1051712  53.2588005  69.5957489  42.5187798  53.7764320  69.7530899
  55.9026489   6.2268782  83.4642105  56.7364883   6.3797960  83.0197372
  55.8277588   5.2737908  83.5116196  26.3538857  71.1110382  52.8947220
  27.2454929  71.4130936  52.7214241  25.8239689  71.5256271  52.2138863
  82.2548752  47.8902397  44.5998535  82.7781448  48.6788216  44.7432289
  81.6542435  48.1265831  43.8930168  85.7237015  35.3211937   8.4623337
  86.4179382  35.2481232   7.8074131  86.1413956  35.0630035   9.2839766
  71.8840561  45.9623604  35.7650185  72.0525894  45.0319672  35.9139977
  70.9296341  46.0350876  35.7600288   6.3833208  10.3248749  32.2502060
   6.3897667   9.8738174  33.0944443   7.2789521  10.2360392  31.9243450
  33.2829056  56.0435257  67.1926651  32.8262138  55.3162155  67.6153793
  34.2113686  55.8556061  67.3300781  52.6759758  68.2139359  20.1215744
  53.2839012  68.9460907  20.2245827  53.0339928  67.7059555  19.3935566
  47.2577057  14.0968933  85.2835083  47.0748100  14.8900185  84.7797852
  47.9233551  14.3639297  85.9174118  18.7721462  33.2449570  22.6080399
  18.0789833  33.0778694  23.2466640  19.0635910  34.1365585  22.7986546
  65.7934570  28.0449066  76.7539520  65.2926407  28.2322636  75.9600296
  65.2700958  27.3920288  77.2187881  35.3919449  38.5765228   4.9972501
  35.7783699  39.3385239   4.5656676  35.8917465  38.4814148   5.8080420
  29.4612160  45.6820831  34.4872780  28.8122540  46.3851776  34.5145073
  29.0172539  44.9636765  34.0367012  58.7380600  20.1379471  20.3785343
  58.3198929  20.9833794  20.5416679  59.6636696  20.3483810  20.2552586
  38.1978226  63.1774864  32.6420975  37.8607178  63.1872025  33.5379181
  38.2477646  62.2489471  32.4150391  79.2012177  14.9278841   2.3194172
  79.3096313  15.4002819   1.4939964  78.2878189  14.6417150   2.3134260
  71.0579376  70.7545319   8.0651579  71.4039230  69.9813232   8.5108919
  71.7096786  70.9554977   7.3935399  78.2981720  19.8866787  16.4769840
  78.8904495  20.6209717  16.6390076  78.5673828  19.5454960  15.6241360
  49.0957146  62.7802696  58.2304420  48.8022346  62.3954048  59.0562630
  48.3585968  63.3182945  57.9416161  81.1099777  11.8625422  68.1540375
  81.2386551  11.3689280  67.3440857  80.5115662  12.5691309  67.9113998
  12.8840761  10.6247368  89.4588242  13.3509922  11.4578953  89.3950424
  12.7434731  10.3587961  88.5501251  79.4378891  46.2993965  55.9295311
  79.5682831  45.4746056  56.3974533  78.7620010  46.1025543  55.2809525
  44.7819099  44.2534180  88.1349945  44.6367531  45.1652756  87.8826599
  44.3019562  44.1530838  88.9570694  31.9055023  20.3974419  19.0411263
  32.0286369  21.3011684  19.3315582  32.7932854  20.0667934  18.9042168
  62.4018936  55.1523476  74.5617523  62.1593399  56.0289154  74.2633820
  62.3474655  54.6083107  73.7760696   1.2690547  26.8292980  53.6743431
   0.6309667  27.2380524  54.2591438   2.1193759  27.0961704  54.0235748
  77.8331909  41.5103340  47.0722275  77.6742249  42.2842484  47.6126175
  78.6293259  41.1233330  47.4364166  52.7802582  18.2004013  34.2343025
  53.1711655  17.8361778  35.0285072  52.8144035  19.1482277  34.3635025
  61.1800117  42.5665665   5.0074525  61.9417038  43.1355438   5.1184425
  60.9585762  42.6411400   4.0792084   1.3184091  28.4172916  60.8802261
   1.0345024  27.5964680  60.4778862   1.0139494  28.3580341  61.7857780
  74.7708435  68.2590485  83.4472961  75.5979843  67.9193115  83.1057510
  74.1476974  68.1367264  82.7310791  36.3866615  62.4074936  37.9049606
  36.3928795  61.5451317  38.3203239  35.4590607  62.6333122  37.8357353
  65.9016953   7.0884571  46.9033508  66.2597427   6.2217522  46.7113762
  66.6605225   7.6714664  46.8807678   0.5861264  63.2675323  36.2207909
   1.3659050  62.7248383  36.1039009  -0.1445038  62.6513062  36.1690369
  71.6263809  62.0661125  84.8293533  71.8677444  61.6242828  84.0152512
  72.3354034  62.6907463  84.9821701  50.2784576  15.4380865  57.5890388
  50.8587074  15.9745512  57.0489006  50.7501450  14.6126499  57.7003822
  66.9731827  16.5380287  66.0158005  66.9763412  16.1613998  66.8957825
  67.4807587  15.9205589  65.4891815  10.7383347  69.0917892  23.7759323
  11.5141363  69.6378098  23.6485786  10.0250340  69.5932846  23.3810444
  10.1537304  54.2796669  20.7056618  10.8794451  54.9037704  20.6976585
  10.5730381  53.4261475  20.8148384  10.9687471  70.6368027  54.5528870
  11.8587208  70.6558456  54.2010117  11.0080156  70.0033951  55.2694626
  64.3099518  19.4107552  12.0614338  64.1168747  18.6774921  12.6456242
  65.0929337  19.1367493  11.5838470   3.0524216  33.7349930  31.9243336
   2.2080233  33.6248360  31.4871960   3.5211713  34.3703690  31.3832188
  66.4061813  39.5999374  39.0491982  67.0233917  39.6305084  38.3182106
  66.5551300  38.7448807  39.4528389  61.4958916  31.7542152  50.1070480
  61.3559647  32.6984100  50.0353050  61.2561111  31.5444565  51.0096779
  71.1830139  55.2540054  86.7492065  70.4994202  55.6964455  86.2460403
  70.9422073  55.4035416  87.6634750   6.5462031   8.1811304  34.3537598
   6.2336760   8.6721191  35.1136856   6.2072630   7.2955952  34.4848251
  39.2412415  32.6955910   1.1473619  39.1864166  31.8428707   0.7159747
  38.3688240  33.0746460   1.0404141  68.7741241  67.9213028  76.1961441
  68.8673096  68.6644135  76.7922440  69.6118240  67.8776016  75.7350769
  45.2980652  25.8038883  20.3573093  44.6285095  25.1379852  20.2007904
  44.8992424  26.6200886  20.0556679  51.3346405  34.5534363  31.8778400
  51.8918114  34.6490631  31.1054096  51.7494392  35.1039543  32.5419998
  81.7373428   2.5279746  31.1547642  80.8535309   2.4901390  31.5203819
  81.7822571   1.7802024  30.5589008  84.1385803  42.6714821  83.0029602
  84.5403061  41.9239731  83.4457626  84.3932495  43.4279861  83.5312347
  77.4619064  35.1422615  83.2622757  77.7949905  34.3021317  82.9468765
  77.4741592  35.7094383  82.4913101  14.4538059  46.5193443  80.4077988
  14.4748211  46.8040848  79.4941711  13.5453444  46.6512718  80.6789551
  15.1212511  51.5409012  62.8087997  15.9870853  51.8240471  63.1027222
  14.8504095  52.2109413  62.1811638   4.9972401  15.1488810  64.2026138
   4.8352318  14.8647461  65.1021957   5.2573195  14.3508129  63.7425270
  77.0858994  39.2166786  53.3167992  77.9817047  39.0581551  53.0190926
  76.5378189  38.9554520  52.5767975   7.7624722   9.3213854  83.8070526
   7.4733510   9.8921080  83.0950775   8.6629438   9.5945873  83.9823914
  51.5089035  31.2660542  42.2424736  51.0031853  31.7953186  42.8592072
  51.1991730  31.5421009  41.3798637  69.4483795  62.4781265  58.7207718
  69.0361862  63.2558479  58.3446350  69.0191193  62.3660469  59.5689507
  62.4948463   9.8490620  67.7553635  61.7270470   9.6613998  68.2952652
  62.1369514  10.0417614  66.8887482  48.2569847  29.1515217  31.0885258
  47.3425522  28.8761425  31.1534290  48.4870491  29.4290829  31.9752407
   3.0289586   1.8069657  49.7520447   3.2710702   2.7246277  49.8765831
   2.4628701   1.6053717  50.4971199  79.0593567  49.0455513  32.2929459
  78.5353470  49.1657181  31.5009785  78.4149246  48.9409904  32.9929504
  73.4617233  19.2382011   6.1408253  72.9298630  18.6851158   6.7130618
  73.0497208  20.1007404   6.1909285  73.2799988  17.4148750  72.1075363
  72.7649384  16.6148281  72.0032654  74.1707687  17.1591892  71.8679886
  61.2361031  55.3516312  33.4951973  61.5458908  54.8130417  32.7670593
  61.2188263  56.2419662  33.1441460  59.2086868  58.2757988  14.6370115
  59.8725281  58.9650612  14.6154070  58.6110840  58.5406609  15.3362608
  68.6272354  39.0144730  52.3456535  68.3677826  38.9577637  51.4260330
  69.1487427  39.8153992  52.3984261  82.9301224  42.0192337  16.0659523
  82.4787827  41.2047081  15.8444262  82.7023697  42.6198997  15.3563328
  61.8816566  59.8282204  11.0166674  62.1813126  59.4376755  11.8375902
  60.9665604  59.5573921  10.9425840  62.5495300  23.0451775  21.7862206
  62.2159309  23.1589375  22.6761646  63.2767601  22.4298744  21.8798676
  72.0320663  61.5743370  59.8263168  71.2569199  61.9655495  59.4234085
  71.7886047  60.6609383  59.9768410  74.3334579  18.7852688  40.1327438
  74.9052505  18.1900845  40.6175499  73.7502213  18.2083893  39.6395187
  73.8389206  67.3147812   2.0167952  73.9377670  66.3628387   2.0329230
  74.6815338  67.6377029   1.6974909  20.2084923  50.5951309  77.4781799
  20.9892387  50.3584175  77.9788132  20.4188118  51.4466324  77.0948563
  18.1354332  31.7391891   7.8214297  18.7141209  31.7878170   7.0605183
  18.6774101  31.3546066   8.5103340  80.6945496  57.1528206  63.2819748
  79.7836609  57.2304535  63.5656815  80.9494019  56.2655296  63.5349388
  71.1118546  39.8342552  26.9655342  70.1781769  39.7896042  26.7594337
  71.2302856  40.7012253  27.3535633  44.1080170  62.9585686  20.0126686
  44.4191399  62.9096565  20.9165726  43.8306808  62.0659943  19.8061943
   0.9731115  54.6293297  41.8697548   1.2231114  53.8814430  41.3271675
   1.2740113  54.3987885  42.7486992  27.1014614   7.6785560  84.1473389
  27.9144917   7.8463073  84.6238632  26.4636726   7.4667726  84.8289642
  34.9807320  48.7912521  46.0873222  34.5489960  49.3958473  46.6908951
  35.6256218  48.3338852  46.6269150  63.6135178   2.4904399  32.8060532
  62.7348213   2.2713032  32.4960442  63.5210609   3.3615396  33.1918869
  33.3871841  69.3278503  25.5279999  33.0210114  70.0908356  25.0807953
  32.6674576  68.9968796  26.0652943  45.9719696  56.8875198  18.7481613
  45.7956009  56.2883110  18.0228519  45.1447372  57.3496590  18.8836117
  80.7780457  50.5988541  43.9811821  80.8220673  50.5672150  43.0255203
  80.9038620  51.5230484  44.1962776   6.1045732  42.1289368  21.4254742
   5.6644268  42.4173279  20.6258907   5.4749846  41.5447578  21.8480701
  72.8695145  50.0361023  13.3853436  72.9618759  50.8317757  13.9093723
  72.5728073  49.3723602  14.0079556  14.9569187  32.8176384   3.5176587
  14.8780317  33.7312965   3.2433760  15.3384295  32.8628426   4.3943782
  41.3257599  49.0613441  19.3114281  42.1224327  49.5464592  19.5263805
  40.9450264  49.5402069  18.5752449  39.4702721  68.2583771  69.1596527
  39.3078423  68.4612274  68.2384033  38.6010666  68.0951996  69.5258408
  82.9879608  25.9188805  79.0055923  82.7149963  25.9456444  79.9226608
  83.7945938  25.4035721  79.0107269  47.5763397   9.1981678   1.6142863
  47.8364639   9.2406626   2.5344827  48.3560181   9.4734173   1.1320300
  17.2766018  71.5172272  38.0137863  18.0684605  72.0098877  37.7981949
  17.5801659  70.8165054  38.5909042  40.2418365  65.3061981   8.3870611
  40.9011421  65.6270676   9.0023556  40.4980507  64.4006577   8.2121544
  57.3355904   3.6062055   6.5600796  57.0077400   4.4521308   6.8652911
  57.4511681   3.7203321   5.6167612  34.1846313   8.3604288   3.7900202
  33.9850807   8.5487881   4.7070436  33.4020386   8.6365395   3.3130033
   5.8540864  31.1383400  74.5292969   5.0881696  31.3006744  75.0799789
   6.6008196  31.3536854  75.0880890  13.9345970  58.0053482  33.9941101
  14.4377537  57.9423370  33.1822624  14.5110188  58.4744759  34.5973396
  25.9609146  49.2868500  48.9707909  26.6594028  48.6370277  48.8928490
  25.4030457  49.1314163  48.2086525  34.5657921  59.7901993  65.2085266
  34.2758942  59.9546432  64.3112259  34.5974274  60.6572990  65.6127167
  73.0859604  38.6125336  83.0730820  73.1884232  39.2677727  83.7632904
  73.8174591  38.7755089  82.4776154  73.8028412  36.0750732  69.2374649
  74.4943314  35.9951324  69.8944931  73.8914108  36.9679108  68.9039536
  37.1659393  59.9079666  20.7521954  37.2695503  59.2054367  21.3940239
  36.8598213  60.6567078  21.2639713  75.4106750   9.5844393  69.3993683
  76.0132370   8.9280872  69.0495682  75.2855225  10.2025833  68.6793213
  77.3870697  25.0471687  29.8231087  78.2914429  24.9996281  30.1330891
  76.8674088  25.1669483  30.6179924  40.2711487  48.0440903  68.7847290
  40.2490349  47.4202690  68.0590668  40.6452179  48.8394089  68.4055557
  57.6513214  13.8188000  52.7094612  58.3563385  13.1869545  52.8507195
  56.8986473  13.4440813  53.1669540  71.0553818  38.3297615   3.3688920
  70.2826996  38.2342758   2.8120472  71.7848206  38.0482750   2.8166993
  19.5712719  51.3853111  23.1629620  19.5713253  50.9645271  22.3032093
  20.2829342  52.0238037  23.1171703  84.8597794  15.5036058  68.8756104
  84.3686523  15.0548925  68.1873550  85.5500412  14.8865290  69.1184616
  20.5183315  21.2797146  59.4782143  20.9291782  21.2733612  60.3427353
  20.9575062  20.5769653  58.9991531  22.9807930  45.9012184  81.6492615
  23.0383911  45.0325699  81.2513123  23.7997131  45.9966583  82.1355667
  13.0797415  67.1536026  64.6728439  13.4051428  66.4319153  65.2109070
  12.5604134  66.7283325  63.9904366   1.7373586  59.0406036  58.4573479
   1.7343502  59.9165421  58.8432961   1.2907865  58.4928780  59.1029472
  44.3756676  43.8388481  13.8953524  44.6522217  42.9850044  14.2280731
  43.6163979  44.0699463  14.4304562  11.3247128  55.9871254  57.7346992
  11.9349842  55.5973434  58.3606949  10.7977982  56.5909576  58.2581253
  61.9865913  21.2340927  65.6438980  62.4756775  20.7457542  66.3061295
  62.0683823  22.1492825  65.9121704  17.4274235  62.7683754  54.7548332
  16.6765652  63.3619461  54.7439384  17.9894009  63.0800056  54.0453949
   4.6851826  35.0739288  69.5197296   4.2578216  35.9140625  69.3530884
   4.0983911  34.4253960  69.1307373   8.6336174  42.3351860  39.3911400
   8.0793085  43.0592499  39.6821785   9.1060095  42.0638351  40.1781883
  58.1565781   1.5225186  10.9920359  57.5311394   2.2346592  10.8581963
  59.0061264   1.9588120  11.0564651  75.6962509   3.4593654  47.8862228
  74.7970123   3.5388815  47.5679855  75.9595642   2.5723741  47.6409760
  74.6451035  49.0494995  50.2833252  74.9572220  48.5835037  49.5076599
  75.3622055  48.9739494  50.9128380  73.0451050   7.6974068  66.9187546
  73.6558075   7.0679221  67.3021851  73.4282150   8.5524883  67.1144409
  60.5053520  66.6612778  71.1061096  59.5804672  66.9075851  71.0937881
  60.9573402  67.4435349  71.4223480  59.0921059  42.3657951  78.6537247
  58.6482010  41.7290688  78.0935822  58.9218941  43.2107506  78.2374191
   2.2979918  47.3948898  33.2087326   2.5460522  46.8029099  32.4986229
   1.7334949  48.0458145  32.7917519  47.4376411  28.5418377  43.3650932
  48.1429672  28.4681606  42.7221947  47.0501938  27.6671333  43.3968735
  76.6481857  69.2190323  69.9919357  76.1413727  68.5409698  70.4386978
  75.9984512  69.7138748  69.4927368  85.3284073  47.9239960  88.2041397
  84.6520538  47.4420128  87.7282410  84.9798660  48.8120995  88.2817612
  85.6126556  44.0604973  12.2873135  85.7516479  44.8372040  12.8292007
  84.6812973  43.8629646  12.3862591  60.1197014  66.1629486  77.7397995
  60.2771606  66.5591507  76.8827896  59.1673355  66.1700516  77.8356171
  78.3770828  29.0070496  82.8183517  78.8360138  28.8671284  81.9900742
  79.0670700  28.9838200  83.4813766  11.0188541  61.8376770  63.1214447
  10.3458614  62.4189720  62.7673111  11.8456078  62.2265320  62.8359566
  23.9164124  66.9234848  77.2311249  24.1963501  66.6781311  78.1129761
  24.6077290  67.5042496  76.9132767  76.6808472  11.9762716  23.6459045
  75.8610535  11.7032537  24.0577660  77.1224213  12.4993649  24.3149471
  48.1207047  19.1374531   1.0566320  48.1938019  19.4357967   1.9632076
  47.3271179  18.6023941   1.0438147  27.8506317  68.3191605  51.1484795
  26.9589844  68.1632996  51.4597740  27.7552986  68.4516907  50.2053032
  39.6747055  36.9182358  69.3190155  39.2705154  37.4457130  68.6300812
  40.0028992  36.1420975  68.8649979  24.3491478  45.3677483  35.8875809
  23.7037201  45.9997559  36.2041588  24.5806236  45.6796188  35.0127144
  66.0097198  40.4556389  78.5706253  65.3457489  40.0239258  79.1082153
  65.6076355  41.2855263  78.3140106  85.9601898  11.3152361  78.1978989
  85.4238434  11.1583719  77.4207535  86.2506943  12.2229633  78.1091919
  52.9592896  26.2925186  86.8386993  52.4733505  25.9107895  86.1076889
  53.8758354  26.0944767  86.6464615  80.0821304  25.8174419  14.0028734
  79.6936569  25.2531929  13.3343363  79.5309830  25.6886120  14.7747993
  76.5526047  10.0825377  62.7817879  75.8892670   9.6423311  63.3132362
  76.0804825  10.3723717  62.0011902  20.3541451   7.4437194  11.6842966
  19.5892849   8.0141830  11.6081963  21.0496254   7.9128218  11.2233391
  68.4945908  13.5555553   6.6550303  67.6998138  13.5209122   6.1227083
  68.9379730  14.3551512   6.3716817  26.8470554   4.7322040  76.5603867
  27.5920029   4.1565294  76.3875122  26.9459896   4.9826369  77.4789352
  12.8144131  36.6384773  63.0538826  12.1412630  36.0476418  63.3915443
  13.6396837  36.1861229  63.2286263  35.5700760  12.2060356  85.7061539
  36.2349243  11.5444031  85.5152359  35.4017448  12.1128206  86.6438217
  27.0094452  46.4179077  21.4733562  27.4630070  46.6089439  20.6523705
  27.5594578  45.7636375  21.9042244  65.1571121  26.9746132  67.7472305
  64.7163391  26.5259209  67.0256882  65.4883957  27.7844143  67.3590240
  31.5054989  69.7100296  84.7719955  32.1835518  70.2577591  85.1675568
  31.8686142  68.8246994  84.7958832  85.6706314  24.3692703  78.4459991
  86.0284805  25.2142448  78.1736145  85.8250275  23.7916088  77.6985321
  55.3370018  14.0693741  34.2078629  55.9708862  14.7699432  34.0541573
  54.9981117  13.8579102  33.3379936   7.9494386   2.6509037  16.2331181
   7.0323935   2.3945720  16.3308640   8.2332792   2.8684144  17.1210117
  64.1007004  26.5441647  62.5455055  63.7916183  27.1867905  61.9069633
  63.5238419  26.6601582  63.3004990  83.2548981  31.4960423  83.8551025
  83.7956161  32.2084961  84.1960754  83.8789139  30.8013954  83.6446152
  78.5762863  40.1243820  85.9610672  79.3686447  39.9591141  85.4501038
  77.9669037  39.4392281  85.6863785  35.2969971  36.1847992  64.3256226
  34.6341476  36.7148666  63.8830338  35.3046532  36.5127106  65.2248764
  80.9707565  23.1688652  50.9250603  80.7429123  24.0838070  51.0899925
  80.8992920  23.0716686  49.9754906  29.5979996  52.6684341  18.2386131
  30.3486195  52.9551506  18.7588005  28.9101543  53.3026161  18.4408855
   3.7873218  22.0124645  71.3956375   3.1478055  22.7143383  71.5165558
   4.6067042  22.3742485  71.7332077  19.6750813  23.6525021  34.6214409
  19.4477959  24.3443279  34.0001945  19.1064682  22.9203033  34.3831215
   6.0179696  49.3656425  73.5700684   6.2289095  48.4640579  73.3274231
   5.7971363  49.7912292  72.7416153  72.7774506   3.0523906  37.2318649
  73.4462128   3.7036922  37.4435043  73.2715988   2.2555027  37.0394745
   3.7874548  60.1826668  31.4004459   4.2344184  60.9588547  31.0628223
   4.2396955  59.4471512  30.9872551  82.7484283  10.1282377  26.4184685
  82.3288956   9.5731850  27.0758476  82.7112427   9.6141329  25.6119061
  20.6383324  68.1628952   0.6857744  21.0097313  68.3485336   1.5482327
  20.1177387  68.9385910   0.4771766   5.4398561   6.8245993  65.7114563
   5.4482164   7.6246934  66.2368240   4.8096113   7.0029731  65.0134583
  58.6928864  61.7812729   2.7721996  59.2406578  61.0185318   2.5867035
  57.7959023  61.4536858   2.7063198  83.5927277  31.5051212  47.9693909
  83.9829330  31.2476540  47.1341171  83.1598358  30.7122917  48.2860184
  20.6898880  17.0514984  69.6346512  20.5637627  17.2995739  68.7188034
  20.6725006  17.8809681  70.1120529  60.5758629  57.0412331   3.0768013
  60.0999069  56.5870667   2.3815117  60.4527473  56.4909401   3.8502688
  66.5551758  68.6072998  49.8721581  66.6263657  67.9001999  49.2309265
  67.0708313  68.3053360  50.6199188  42.5063629  15.5127201  14.2227974
  42.1539192  15.7881727  15.0690489  41.8772545  14.8676157  13.8998547
  83.5876465  40.6832008  36.0584106  82.8707886  40.5586586  36.6803703
  83.5222015  41.6020737  35.7983665  72.9375229  59.4399948  78.8824387
  73.1482315  59.3597832  77.9521713  73.1562195  60.3460541  79.1002960
  55.6426048  40.2524986  30.4603310  55.2970772  40.6985168  29.6870861
  54.9867096  39.5862465  30.6656094   9.0229473  50.8815804  72.0213165
   8.7470827  51.4246292  71.2829285   9.0940466  51.4926453  72.7546539
  56.2796249  57.8421860  42.1603012  55.8435822  58.5049706  42.6958504
  55.9292259  57.0097008  42.4771919  67.2838593  64.5595322  79.5494232
  66.8277283  64.4490204  78.7151794  67.3836975  63.6696205  79.8875351
  10.1177835  50.5001717  25.7788601  10.6761723  50.1162338  25.1028252
   9.2655869  50.0835609  25.6506977  77.5301132  43.9531326  14.7622623
  77.7397308  43.1846962  15.2931108  76.5864944  43.8915558  14.6138544
  81.5175781   7.1430206  38.6537781  82.3281174   6.7079287  38.3892899
  81.7592392   8.0647097  38.7449799  31.6003304  67.6295166  33.8112793
  32.1894913  67.1985703  33.1920853  30.8105373  67.8127975  33.3024940
  52.3724060   0.9801293  62.9127274  52.1462173   0.5006188  63.7096825
  51.5639572   0.9879438  62.4003029  30.9982834   0.8202630  49.9816628
  30.4754543   0.1589374  50.4350166  30.3835831   1.5327703  49.8064232
  62.3234940  12.1160221  46.0687790  62.8819199  11.8916759  46.8131332
  62.3903198  13.0682325  45.9976387   3.7715390  68.4714966  29.3506660
   4.0519500  68.4618912  28.4355106   3.8990872  69.3778687  29.6307487
  57.7807198   5.6880422  68.6496277  57.8773842   4.7568817  68.8491974
  57.9942780   6.1322794  69.4701614  64.2374268  14.9470987  47.8491402
  64.5946579  15.8351231  47.8433647  65.0030823  14.3803205  47.7554665
  79.5569153  10.7299356  19.7036114  79.2919922  10.5377722  18.8041000
  79.1032104  10.0735502  20.2323303  52.4218750  25.6173916  65.7773590
  53.0359001  25.3374481  66.4562073  52.9073601  25.5159149  64.9586716
  45.0087967  67.6062851  63.9426498  44.6117249  67.7509232  63.0837860
  45.7479973  68.2137833  63.9701424  70.3461761  10.3568554  61.7966652
  70.9388504  11.0752964  61.5757179  70.2033920  10.4453402  62.7390099
  82.0822678  60.1326218  15.0502081  81.3708191  59.6315231  14.6514883
  81.6768799  60.5698891  15.7990017  73.8732681   5.4768076   7.4121485
  74.3691101   6.0557137   7.9911485  74.5287399   5.1171427   6.8144636
  39.0275040  25.9389744   4.6462531  38.4257851  26.5121155   5.1213069
  38.5279083  25.1357079   4.4999719  64.8302078  12.8892298  76.9922180
  63.8953705  13.0161419  77.1540985  65.2606277  13.5270910  77.5615158
  46.2838287  70.4156113  31.0435219  46.7135010  70.9127121  30.3474560
  45.3584404  70.6483307  30.9678535  46.2857437  55.3348770  83.9116516
  45.7938919  54.7054520  84.4390335  46.6863289  55.9227257  84.5521240
   7.5065856  30.1504803  67.0768204   6.7184000  29.7293129  66.7338791
   7.2285261  30.5402985  67.9056549  60.2337151  59.9058685   2.1313190
  60.3756638  58.9911346   2.3749290  60.2205582  59.8995667   1.1742302
  19.5755272  46.5199928  19.5532818  19.2072620  45.9269218  20.2081718
  18.8130531  46.9371338  19.1522083   1.9384165  63.7656746  82.4220123
   1.3932166  64.1656036  83.0995407   2.5672565  63.2301559  82.9057617
  21.7223949   8.9308472  78.8918152  22.6372719   8.6711187  78.7833023
  21.6160183   9.6824484  78.3087082  27.8598919  17.4735889  75.8712769
  28.1587982  17.7467327  76.7386169  26.9079056  17.4164276  75.9530334
  47.4078178  17.7503891  33.9060783  46.9205246  18.5101700  33.5874786
  48.2836113  18.0886040  34.0927048  17.0849743  39.6185989  37.0930176
  17.5008945  40.4050179  36.7397690  16.2786331  39.5256348  36.5856667
  73.0011520  41.0324402  66.8244400  72.8863602  41.5762863  67.6037292
  72.1550217  40.6005745  66.7070007  55.3596153  70.7435303  62.7089310
  54.6024361  71.2648544  62.4422112  54.9984665  70.0799179  63.2966576
  31.5434189  71.2696609  71.1392899  31.1705456  71.1695862  70.2634048
  31.0524120  71.9939499  71.5273056   3.8901932   8.7101183  19.4335098
   4.4809041   7.9675694  19.3073578   3.3544986   8.4645634  20.1878071
  47.3972282  53.5748291  11.8216238  48.2230072  53.6086922  11.3387403
  47.4426765  54.3156509  12.4260683  56.6392517  18.9381046  28.5750351
  55.6834526  18.9544544  28.5259399  56.9183121  19.6986065  28.0651398
  11.1946936  35.5306549  78.2410049  11.5984440  34.6666527  78.1590576
  10.3716412  35.3676949  78.7017212  55.2284012  21.3412533  15.5497522
  55.1461830  22.2351990  15.2175875  54.3256531  21.0439224  15.6631985
  66.4780579  42.4387283  30.9973030  65.6938171  42.7574539  31.4440861
  66.1713715  41.6981087  30.4741783   2.4516377  26.2159977  63.7493324
   3.0763690  26.2038879  63.0242157   1.6541431  25.8321114  63.3848267
  65.9591904  29.7350826  15.3377552  65.0190506  29.9144859  15.3241768
  66.1008911  29.1437912  14.5984802  26.2455463  57.3954926  17.7795238
  25.4581242  57.9397011  17.7736492  26.7289467  57.6652298  16.9986267
  57.8996010  46.9388390  45.5092964  57.7891769  46.8580475  46.4566689
  57.0127068  47.0736694  45.1754265   4.8855219  47.3856926  82.1867523
   5.4888668  46.7604141  81.7852173   5.2405701  48.2438393  81.9548798
  79.7326889  19.1182003  14.0353518  80.6535187  19.3789043  14.0172920
  79.7248383  18.2401409  13.6543245   7.2014976  25.2679138  13.9626503
   7.3066707  25.3777676  14.9076910   6.3880768  24.7722778  13.8681955
  46.0051842  59.4151268  83.3792801  46.6296387  59.4106903  82.6538315
  46.4874992  59.8055458  84.1080933  36.0901566  42.8605309  26.1740761
  35.5106087  43.3017273  25.5530243  36.0180626  41.9324417  25.9511890
  81.8868179  35.7160759   4.8547921  82.6129379  35.4445267   5.4162588
  81.1018295  35.4426842   5.3294320  67.8074112  15.1526918  38.5209923
  67.6872787  14.5679197  39.2692184  66.9182281  15.3848753  38.2532845
   6.3782911  58.1673698  57.4864922   7.2139816  58.6271248  57.4059906
   6.6010671  57.3376923  57.9086685  52.4217644  31.5748272  60.0150986
  51.6452484  31.4814510  59.4632492  53.0844727  31.0303230  59.5901718
  16.5176582   7.7418408  88.7297592  15.7456636   8.0471849  89.2062302
  16.5086575   8.2418451  87.9135818   6.4495320   7.2554698  72.2815094
   5.9249067   8.0062666  72.5595398   7.0592923   7.1084270  73.0045547
  60.4166870  66.6909561  75.0350342  59.7288094  66.0296097  75.1103821
  59.9496117  67.5261307  75.0587387  49.6186562  27.8689651  29.2916451
  49.1493835  28.3154984  29.9963608  48.9500885  27.7010250  28.6275330
  84.5903931  39.9645653  84.2924423  85.4083481  39.5340767  84.5411758
  84.0266800  39.8696365  85.0601883  83.8323364  68.9607544  50.8242798
  83.2505875  68.2469940  50.5628433  84.5762100  68.5237885  51.2389374
  31.1041088  28.7435341   0.6850995  30.9558277  29.5302849   0.1604392
  31.2079315  28.0425663   0.0415958  54.5413742  42.7988319   6.6219773
  54.6852531  42.1626167   7.3225169  53.6530190  42.6192436   6.3140678
  74.8192825  53.5908241  38.2061996  74.5459518  53.5885925  39.1235390
  75.0957184  54.4921951  38.0408363  62.2614441  68.2907410   2.7663162
  61.4215202  68.7397995   2.8617525  62.2329826  67.9138718   1.8868885
  35.1600876  43.0806389   7.4148526  34.2402611  42.9592896   7.6502872
  35.2769089  44.0302734   7.3869596  60.8911400  58.1078835  52.9734840
  60.3765755  57.8908234  53.7508774  61.2480164  58.9768143  53.1574135
  13.2851410  13.6377735   0.1726681  13.2513628  14.2593670  -0.5544588
  14.0439386  13.9124041   0.6874856  16.3413658  36.6223068  74.4417114
  16.1179924  36.9271965  73.5622940  17.0053844  37.2400131  74.7479019
  66.5567627   2.7347770   7.8868127  67.5124664   2.6852407   7.8665204
  66.2658310   1.8790754   7.5715914  42.5280304  25.4476032  80.1310272
  42.2670822  25.3157310  81.0424805  42.0798035  24.7516212  79.6504745
  63.2029228  15.3858137  77.8874969  63.4346542  16.2574120  78.2081985
  62.7586136  15.5471630  77.0551529  77.7149048   9.0374403  74.0595016
  78.4525070   9.5982780  73.8194122  78.0808792   8.1530666  74.0728836
  43.8560028  62.0197258  27.8504982  43.5990829  62.3597794  26.9934177
  43.0334740  61.7443962  28.2553101  56.9898529  64.5794907  20.3924847
  57.2725029  65.4934235  20.3597870  56.5702057  64.4890289  21.2480221
  50.3786583  63.0889969  81.6348038  50.6539574  63.5539017  82.4249344
  50.9409904  62.3149986  81.6041336  30.8373756  28.3965263  83.4016724
  30.1118164  28.5654716  82.8006287  30.5271130  28.7183018  84.2481003
  28.0135155  69.8550262  72.2757187  27.7086086  70.7407837  72.4724274
  27.4170494  69.2834930  72.7592545  16.1058121  38.0668144   1.2082638
  16.8028603  38.4884300   0.7056754  16.3117104  38.2702560   2.1206508
  74.4961853  23.3111286  74.4197006  74.6561737  22.6935787  73.7060699
  75.1136551  24.0252132  74.2614441  78.3889847  58.3603439  75.3095551
  78.4685287  58.9502678  76.0591507  77.4713287  58.4299583  75.0463028
  70.2294159  64.7990036  79.9308014  69.3859100  64.4872284  79.6028900
  70.0102997  65.5564957  80.4734039  41.0171051  26.0995750   6.8841605
  41.8775787  25.6983261   7.0058994  40.9782867  26.3042431   5.9499040
  20.6051788  32.4121895  85.2590332  20.8757000  32.4230385  84.3409195
  20.7621593  33.3052979  85.5655441  32.0930252  45.6911850  25.6491547
  33.0139465  45.5193710  25.8456631  31.6115704  45.2321777  26.3374481
  12.3984718  46.4246445  75.6866684  12.1222992  45.5366478  75.4599075
  12.4090042  46.8927422  74.8518066  67.1917877  59.8123512  35.7017899
  67.9082108  60.4470367  35.6894798  67.1636353  59.5004539  36.6063080
  54.9101562  24.0324650  15.2978058  55.2050056  24.2763729  14.4204206
  53.9903870  24.2962856  15.3233519  15.1890059  47.9201775  68.0089798
  15.7004042  48.3264503  67.3092346  15.5423660  47.0334320  68.0800171
  80.7534256  43.0609207  20.4586697  80.2906342  43.8011780  20.8511963
  80.6872940  43.2100105  19.5154667  82.3116150  47.0812531  56.2566833
  81.3683319  47.0350227  56.1007500  82.5109329  46.2892914  56.7559853
  69.7245941  62.7541313  74.7822876  69.8574066  63.3714066  74.0628738
  69.6645203  63.3051605  75.5626678  86.3407974  45.9663200  14.1922789
  86.5417023  46.3891602  15.0271883  86.0302582  46.6776848  13.6321402
  79.4143829  43.7380409  12.9782619  79.9678879  43.0834999  13.4042263
  78.7835083  43.9929390  13.6514988  20.5611458  14.6673450  19.6969223
  20.7182293  15.5635586  19.3996735  19.9546452  14.7614613  20.4314518
  85.5853119  16.9060898  28.0641384  86.4410324  17.2235107  28.3526154
  84.9602737  17.5234261  28.4442101  27.9802227  67.2796478  13.9929113
  28.0474281  66.9894180  14.9025717  27.0503597  67.1944122  13.7823858
  12.2337303  26.2155514   2.5183198  12.3780918  27.0507698   2.0735717
  12.7572565  26.2760620   3.3173759  85.0887375  21.3319302  13.9764404
  85.3004456  22.2443943  13.7794075  85.4920044  21.1713314  14.8295612
  48.7811508  10.2058697  82.6248856  49.2705154  10.9925690  82.3843384
  49.4515457   9.5321245  82.7383423   1.7161747  18.6400127  16.7863598
   1.2585477  18.0953350  17.4267769   2.5580263  18.8367214  17.1972408
  63.1673431  64.6435242  47.6876259  62.2363396  64.8588028  47.7434235
  63.2405548  64.0981979  46.9043655  65.2007675  52.8361778  13.9999695
  65.4281693  52.1597290  13.3620558  65.8605804  52.7482376  14.6878262
  36.8401451  46.2483482  65.2726288  36.4787598  47.1154671  65.4563065
  37.7770081  46.3373566  65.4475479  10.2862101  51.8706284  28.4535770
  10.8882504  51.2158241  28.1000061  10.8537703  52.5106888  28.8830280
   2.7465649  69.7576675  81.9019928   2.3945291  70.2397537  81.1537323
   1.9729817  69.4390182  82.3670349  31.2129192  37.9443169  58.4175835
  31.2400570  37.4851418  57.5781479  30.4036694  38.4545288  58.3854485
  32.9354515  27.4953785  68.4059677  32.7853432  28.3940125  68.6994934
  33.8727646  27.4591122  68.2152863  76.6603165  19.6524410  68.8628159
  77.6033020  19.5899582  68.7107620  76.3879318  18.7542038  69.0504456
  21.2966061  27.7442894  74.8108444  20.5690765  27.4707527  74.2521744
  22.0729256  27.3720741  74.3924942  57.4063377  34.0314560  21.9127102
  56.8846664  33.7401466  21.1648941  58.3018837  33.7726173  21.6953850
  37.9073105  60.8317451  46.0973434  38.8306465  60.6049728  46.2080574
  37.4545631  60.3303833  46.7754974  63.8222733  65.8713150   1.6078622
  64.0255737  66.5604706   0.9754353  63.2277946  65.2847672   1.1401093
  64.4945984  44.4539528  26.1918850  64.7754364  44.1940651  25.3144932
  64.5233536  45.4106331  26.1790142  82.8908386  18.0342731  74.9034119
  83.8146744  18.0753746  75.1505356  82.8191147  18.6164246  74.1469803
  62.4746780  69.4471817  20.2313080  61.6831360  69.8853607  19.9187393
  62.3604851  68.5328293  19.9721680  72.8817291  11.8465986  19.3638935
  72.1789627  12.3958263  19.7113094  72.9998093  11.1630468  20.0234737
  11.9307842  35.8162918  68.1054611  11.2955151  36.5190544  67.9683838
  12.5964127  35.9605713  67.4328918  73.1219177   3.7239773  80.2926483
  73.0716324   4.2159452  79.4730911  72.7929306   4.3301134  80.9564285
  66.2930679  58.6936760  62.3286438  65.3917999  58.6012154  62.6375008
  66.8216019  58.6870461  63.1266670  70.1853714  44.3809090  56.7805252
  70.4626541  43.8944359  57.5568581  70.3603058  45.2968292  56.9966736
   1.7435752  15.8055191   6.7499452   0.9448920  16.3202820   6.6343775
   1.5599114  15.2443171   7.5033054  53.5298233  38.2964401  41.6181984
  53.6082726  37.6284332  40.9371376  52.8158646  38.8599205  41.3199043
  66.2247849   3.0641258  45.7889671  66.8513336   2.5416996  45.2882309
  65.7560120   3.5740120  45.1282883  62.2249794   3.4281814  37.3901863
  62.6131783   3.0963387  38.1997604  62.9332161   3.3808780  36.7480049
  30.0909824  16.7678947  81.5801239  30.4055729  16.1378212  80.9318390
  30.3026180  16.3690262  82.4241257  53.9233398  41.9023247  28.3894749
  54.0365295  41.8416595  27.4409294  53.1220245  41.4097900  28.5670528
  57.1371346  63.8525620  59.3919830  58.0225792  63.9982605  59.7251396
  56.7369232  63.2587700  60.0271797  34.9223938  64.3314133  33.8963699
  35.5849838  63.8335381  34.3752556  35.2051239  64.2894669  32.9828415
  70.7965240   5.2856860  85.9941864  71.5806046   5.8326011  85.9459152
  70.9120102   4.7714534  86.7932205  66.0944977  30.1799145  61.3881416
  66.8573608  29.6021786  61.3657837  66.1649017  30.6372719  62.2260551
  39.5504150  47.9317551  15.9488096  39.4318848  46.9822845  15.9225636
  39.3222961  48.2260704  15.0670090   7.0148907  39.5269775  58.4302483
   7.1116562  40.0804024  59.2052231   7.2885022  40.0846672  57.7019958
  79.2806015  45.7213974  18.3079090  79.1433411  46.4228973  17.6712837
  79.6519775  45.0027962  17.7961292  68.2398376   3.4526672  36.5443382
  67.8490601   4.2958984  36.3152313  69.1478653   3.5214520  36.2494011
  68.9655762  67.9692993  44.6943207  69.0062485  68.3813782  45.5573235
  69.7426376  67.4115295  44.6583786  30.6046009  33.4667969  21.6383476
  30.8893261  33.2739792  22.5316467  29.7472477  33.8791313  21.7439747
  53.3862572  65.9043655  58.1516457  54.1280365  65.3196106  57.9965477
  52.6913414  65.3297348  58.4727707  34.1152802   0.4244224  28.5331802
  34.6741409   0.7724187  29.2280197  34.7206535   0.2115302  27.8229485
  47.4477654  13.6671209  26.7466831  46.9775505  14.4155588  27.1140671
  47.0402489  13.5240879  25.8924561  55.4496727  25.4047699  86.0922699
  54.9998589  24.9614048  85.3730164  56.2708931  24.9236450  86.1940155
  56.9820290  62.6534233  66.9458008  56.1770058  63.1708946  66.9654999
  56.7544212  61.8392105  67.3946762  64.3002853  52.6753464  54.4104042
  63.7360039  52.4685287  55.1554184  64.1567612  53.6085472  54.2530327
  83.9652939   4.1598644  45.6044884  83.3462677   3.7100708  46.1795731
  84.6392059   3.5057242  45.4196091  16.7064705  68.3992920  31.1165466
  16.5914669  68.6700363  32.0274277  16.8414612  67.4528046  31.1632290
   1.7027862  11.9283657  73.2462769   2.0125544  11.0910749  72.9009933
   0.7728372  11.7855024  73.4223938  34.4109039  48.4524879  63.5975914
  34.3591576  47.8476410  62.8575134  33.5143089  48.5027390  63.9289894
  51.9204674  67.9524994  64.4343491  51.3102379  68.2298660  65.1176682
  51.8159142  67.0019989  64.3912888  60.1552658  31.2467899   1.9372722
  59.2585831  31.0052109   2.1692865  60.1871300  32.1955338   2.0601542
  12.9778366  61.3870201  26.1584930  13.0748882  61.9399986  25.3832321
  12.1758471  60.8894501  25.9989090  43.2329140  38.2283974  84.1578827
  43.3386497  39.1614685  84.3434372  44.1187592  37.8705826  84.2168503
  55.5617867  24.3435822   7.9433608  54.6541748  24.0946922   7.7686305
  55.8562546  23.7229366   8.6099339  84.7823486   0.7807606  10.6299057
  85.3376999   1.5582321  10.6877842  84.4138870   0.8147956   9.7471209
  13.0827866  60.5452118  44.0363808  13.4439211  61.2789879  44.5337639
  12.2001286  60.8287010  43.7980957  58.9844170  36.6133690  13.9584503
  58.3061829  35.9537735  14.1039362  59.4133110  36.3409996  13.1472178
  44.5413437  19.6687851  72.5856476  45.0959473  19.3091450  71.8933334
  44.0016861  18.9303799  72.8680725  43.7897034  27.6990891  70.8333359
  43.5862694  28.4062958  70.2212067  44.3886452  28.0950947  71.4663315
  78.8440628   2.7762070  13.4461269  78.3854141   2.4024549  14.1985769
  78.3722687   3.5872343  13.2567110  12.8063717  49.5882874  51.8981018
  13.4362078  49.8955612  51.2460899  13.0247135  48.6650772  52.0255585
   8.5678053  21.7904625  31.2254925   7.9486961  22.2440281  30.6534672
   8.0440788  21.5223255  31.9805069  67.2123260  67.4058228  15.0736895
  67.8285217  68.1020050  14.8459568  66.9546967  67.5993805  15.9750175
  58.4164238  35.5096855  78.3112030  58.6328735  35.1253586  77.4616928
  57.8222351  36.2308006  78.1034470  12.4571161  42.0274010   5.1825604
  12.9017811  41.5141602   4.5079556  13.0235729  41.9551315   5.9507642
  41.2237740  44.9278870  56.4535599  40.9740028  44.1546402  56.9594574
  41.7786980  44.5863762  55.7523727   0.1813383  10.6802282  61.6332855
  -0.3703543  10.1097975  62.1685219   1.0553688  10.5939331  62.0138855
  37.2200851  35.9890366  13.5779161  36.4151001  36.4307709  13.8482828
  37.9094543  36.6368294  13.7240858  36.8257179  33.9788666   1.2285036
  35.8857803  34.0711975   1.0728606  37.0132408  34.5964317   1.9353857
  31.5227413  56.6286621  42.1486397  32.1468163  57.3487015  42.2397842
  31.5755138  56.1591454  42.9811096  60.2364578  51.8237305  53.5203438
  60.7582626  51.5692368  52.7593040  60.2267838  52.7805481  53.4949951
  46.2600441   2.4403331  18.9412537  47.0002480   2.5187540  19.5430660
  45.9687424   3.3413091  18.8011837  73.2482071  32.4103470  87.6233368
  72.5708694  32.3564301  86.9491425  74.0686340  32.4724007  87.1341782
  44.7454758   5.9765882  72.1301956  45.2805252   6.2944741  72.8574524
  44.0197296   6.5984445  72.0770798  31.5817471  67.1724243  88.1517792
  31.4842834  66.9968185  89.0876694  32.2742805  66.5761337  87.8670502
  59.7845840  45.7009811  52.7655716  59.7410622  46.5841980  53.1319923
  60.3279648  45.7928772  51.9829330  85.8875961  56.6047401  33.0822334
  86.1179810  57.4128113  32.6237869  86.2498627  55.9075584  32.5354843
  55.2035370  16.7600918  86.8658752  54.9608994  16.0231056  86.3053284
  56.0675163  16.5278530  87.2062225  30.9876556   8.0804090  45.9496536
  30.8238144   8.3233557  45.0384102  31.4855690   8.8153543  46.3076630
  84.8463898  44.8113518  84.6826706  85.2262955  44.4765511  85.4949646
  85.5096970  45.4081879  84.3362045  77.9844818  59.2825737  69.4846268
  77.9262466  60.0781937  70.0136185  77.3982239  58.6628571  69.9187698
   5.3203492  28.8764458  14.8024769   4.5706639  28.5147305  15.2750921
   4.9580860  29.1678352  13.9657631  39.5462036  37.5093536  76.1875153
  40.2492867  38.0651894  75.8514404  38.9240532  38.1214828  76.5805283
  47.1020699  66.8805389  30.4482441  47.0553703  67.4937363  29.7147293
  47.9001160  67.1268387  30.9158840  73.4436188  58.6825218  41.7333412
  72.7977753  57.9922752  41.8839226  73.5481796  59.1030273  42.5868492
  61.0638275  57.1444931  59.5485992  60.1906090  57.1135597  59.9394493
  61.6602173  56.9983215  60.2828941   3.1554720  62.5959129  61.9963722
   3.8639817  62.4841576  62.6302147   2.8280404  63.4809570  62.1567230
  54.0239868  29.5695400  81.6725311  54.0938721  29.1290264  80.8255997
  53.0985603  29.4951935  81.9055405  46.9641380  30.8165741  60.0147476
  47.1496162  30.9578590  59.0863800  46.0340042  31.0227890  60.1072502
   7.3085041  69.0347519  86.9809036   8.1564760  69.3507309  87.2928772
   7.2190242  69.4129791  86.1061630  72.8592224  59.1526566  30.9858341
  72.2988739  59.9206238  31.0974998  72.8657303  58.9961853  30.0415325
   6.0130553  12.2464418  66.8312759   6.7290149  11.8464966  66.3376389
   6.3642569  13.0875196  67.1236420  20.3852386  57.1019897   5.7967911
  21.1993637  56.8161888   5.3823643  20.3760052  56.6524963   6.6418366
  43.5807152  32.0278397  48.9454918  43.1106911  32.0996170  49.7762489
  44.3175011  31.4474258  49.1365280  83.5173874  50.1193390  61.1580315
  83.1147842  50.9877319  61.1522141  83.5518723  49.8775215  62.0835419
  64.2747879  24.4022713  47.3819122  64.9404678  24.9164982  47.8387146
  64.7119751  24.0964565  46.5871925  21.1739101   7.4931078  63.5210609
  21.7011814   8.2556171  63.2827415  21.7942581   6.7641397  63.5231895
  10.6138926  32.8058929  34.0670776  11.5151663  33.0598602  34.2656670
  10.5083332  31.9511452  34.4848022  80.8320160  51.6576920  81.2101517
  80.4095612  51.3360863  82.0066071  80.2882156  52.3944283  80.9313507
  20.6092377  28.9129963  14.6371803  20.1603317  28.2538414  14.1078138
  19.9216976  29.2859268  15.1889429  35.6957703  69.1682510  16.4460087
  34.8517265  69.5462723  16.6928291  35.7994957  69.3965302  15.5222330
  68.0676422  63.7404442  39.0280609  68.3448868  63.3597946  38.1947098
  67.3696823  63.1618843  39.3352318  67.1349182  30.9724731  84.2166748
  67.2989044  30.7985611  83.2898026  67.1337967  31.9272556  84.2846832
  85.0987625  23.3244705  46.2430382  85.0413589  24.2572041  46.4502640
  85.9643631  23.2196903  45.8480911  51.2491226  48.7950554  15.6517286
  51.7294540  49.5552711  15.3237352  50.3724518  48.8863335  15.2784281
  76.8740387  37.7513046  47.4327049  77.6418533  38.1902542  47.7987900
  77.2341614  37.1098938  46.8202209  22.7269459  49.3628235  82.4018402
  22.7343636  49.2380142  83.3508377  22.1252728  48.6930351  82.0768738
  75.3209381  22.7000847  58.5098381  74.9685211  23.4952068  58.1100769
  75.3493881  22.8952789  59.4464912  60.7408257  57.6677094  21.2001953
  59.9336052  57.2353058  21.4788666  61.1680794  57.9265213  22.0167141
  26.7604618   6.8062048  10.9449482  26.2266541   6.9883428  11.7183208
  27.5886154   6.4799037  11.2969742  39.4620934   9.6034584  47.2854881
  39.4316864   8.7923632  47.7928658  38.7292862   9.5310411  46.6739464
   4.0284939  14.9065056  66.9028320   4.2390699  14.0584497  67.2935867
   4.7245879  15.4893904  67.2060318  63.5049553  30.8140259  60.1677246
  64.4254684  30.9195118  60.4080467  63.2289886  30.0171585  60.6205788
  65.2537079  71.5314102  29.8006687  66.1212463  71.9058914  29.9535427
  65.3567963  71.0036392  29.0087967  84.0399551  52.2387848  44.2016068
  84.6414108  52.8097572  43.7236137  83.5629425  51.7677574  43.5183601
  66.1043472  44.5512733  81.0704651  66.0624313  45.5074463  81.0562363
  66.9828491  44.3452568  80.7510605  84.4097748  27.1732368  12.1896067
  83.8817825  26.8729763  11.4498148  83.7784119  27.5726566  12.7880030
  85.0206451  26.3852310  39.3175583  85.0703278  26.3774109  40.2734375
  84.3705292  25.7152786  39.1060257  64.1934814  39.1238403  73.6175156
  63.6684799  38.3299904  73.7195282  63.5573158  39.8380966  73.6544113
  32.8067284  25.8415413  18.5155487  32.8031731  26.6371460  17.9833527
  33.6923180  25.7986374  18.8762741  55.6815948  36.8354836  86.7960892
  55.9122238  35.9282684  86.5960770  55.6214676  37.2614212  85.9409866
  13.7783575   0.9200976  55.8396034  13.8627615   1.8405187  56.0884666
  13.0653267   0.5887899  56.3855476  84.1609192  21.7548313  21.7724342
  84.9423904  21.2680454  21.5105591  84.2968674  21.9446545  22.7007217
  17.8070583  62.1631126  84.8822556  17.5974007  62.1480980  83.9484177
  17.9861450  61.2489128  85.1022491  18.1288128  64.6458435  71.1246948
  18.7361050  63.9846802  70.7925873  18.3291969  65.4318924  70.6165543
  77.6633453  33.2309532  24.6421852  77.0256195  32.5621643  24.8917122
  77.4126663  33.4809799  23.7528725  60.4612045   4.7581229  73.1577759
  60.3977699   4.6099219  72.2142487  59.6887207   4.3248172  73.5207520
  14.7938013  54.3721848  69.5768051  14.6829414  54.0314026  70.4643860
  13.9494390  54.2170219  69.1534729  60.6328812  46.4428139  40.1630592
  60.4648170  45.8288574  39.4481850  60.2525406  46.0223465  40.9342804
  49.6774902  48.1037788  61.9885941  48.7214775  48.1431541  61.9616852
  49.9569168  49.0164566  61.9166985  86.0238419  18.6268463  56.2951775
  86.5541077  19.1239204  56.9180489  86.6572418  18.2705231  55.6722298
  84.6555328  15.8922462  32.0314598  85.0668793  15.3719778  32.7216377
  84.8552780  16.7990761  32.2638206  37.7383804  15.4723063   1.3313793
  38.3015823  14.9526358   1.9049449  37.3324051  16.1152248   1.9128170
  82.8659134  59.5569229  80.7797165  83.2474899  59.1802521  79.9867783
  82.2797089  58.8761711  81.1101303  65.7021103  63.1032372  66.6105652
  65.7453003  63.5854454  67.4362946  64.7731857  62.9005585  66.4998703
   6.8529530  60.3427048  33.4356575   6.9616718  61.1929207  33.0095749
   5.9806538  60.3811646  33.8278885  69.0615311  31.4605675  50.1510010
  69.0682144  31.8941135  49.2976379  68.1455154  31.2203674  50.2904510
  83.2969360  28.5609188  47.7561073  82.6591339  28.9633789  47.1666412
  82.9398575  27.6916161  47.9378700  76.5697327  54.6909523   9.8961859
  77.4476318  54.4533958   9.5977049  76.7179260  55.2126961  10.6848898
  86.6733170  56.1508026  57.4081612  86.3854294  56.9481621  56.9636765
  87.2444305  55.7163429  56.7746735  15.5995474  36.8389130  82.0877991
  14.8003321  36.5018082  82.4925766  16.1139011  37.1787834  82.8200302
  77.6313629  30.4790306  70.9874725  78.3428497  30.3468018  71.6139908
  77.6512146  29.6981792  70.4342041  41.4417610  23.4895935  10.8824539
  42.0079994  23.4447060  11.6529016  41.6290932  24.3455276  10.4970760
  60.7097816  60.2920647  14.4601917  61.4760666  60.2777138  13.8867550
  61.0523148  60.5663986  15.3108616  26.9646492  38.8265762  87.8115692
  26.3937435  39.4753609  87.4000168  27.4630432  38.4512825  87.0856323
  77.1423874  13.6591034   6.2510781  76.9255066  12.8279877   6.6735034
  78.0472794  13.8311615   6.5114532  12.4582882  58.2919884  29.3502312
  12.8318748  58.6461906  30.1572037  13.1978054  58.2452393  28.7442932
  61.5081024  14.2768774  11.2811441  60.7680779  14.7189674  11.6972637
  61.1082916  13.7093019  10.6221752  47.5413475  70.1568222  59.1402969
  48.4964676  70.1357193  59.1997223  47.3475380  70.9784927  58.6891518
  75.5540390  58.9764481  31.3348541  75.7654266  59.2298546  32.2333717
  74.5972900  58.9639473  31.3083153  21.6577377  53.8701286  80.1255417
  22.4802685  53.4262390  80.3320312  21.6813221  54.6727142  80.6466293
  81.8873749  15.9663267  57.0129509  82.3913727  15.3627729  57.5587921
  81.7103348  15.4736280  56.2116165  21.1979027   6.5258255  83.9246674
  20.5578403   6.6450210  83.2229996  21.8397961   7.2218471  83.7841110
  32.6970558  66.2037735  36.5864868  32.5137939  67.1415405  36.6434250
  32.8009224  65.9243698  37.4960899  79.2242889  28.3745880  24.5643673
  78.4905167  27.8124981  24.8130894  79.9000549  28.1887798  25.2163258
  55.4307327  56.3550873  37.2624245  54.6440086  56.8216858  36.9803200
  55.6085434  56.6939926  38.1397858  36.3852997  60.8814697  33.9016075
  37.0730705  60.7712288  33.2450638  35.8349953  60.1042747  33.8048248
  64.1315994  52.3045845  38.7724915  64.9843903  51.8906898  38.9054031
  64.1354828  53.0566483  39.3646202  34.0943565  56.9058380  87.1890182
  35.0296822  56.9549904  86.9915695  33.6703339  57.3423195  86.4501495
  26.1201668  54.2291145  46.3901138  26.5045834  53.6557236  45.7270317
  26.7602386  54.9325027  46.4986954  69.4581757  33.8400993   2.8368661
  68.7748260  34.3548164   3.2662060  69.8321915  34.4340820   2.1860762
  85.9070740   6.0042276  47.6900787  85.7524872   6.2144361  48.6110268
  85.4564972   5.1704521  47.5558167  44.3527222  15.9368763   0.9730108
  44.7980728  15.4147902   0.3056860  43.4572563  15.5988436   0.9834224
  10.9355555  37.4835777  88.8643188  10.4434624  37.2595673  88.0744476
  10.7097530  36.7955933  89.4903564  18.3412399  24.6651020  61.2117462
  18.5091705  25.0255947  60.3410683  18.5093689  25.3938103  61.8092003
  66.9639969  40.2651215  13.7951880  67.0738144  41.0437737  13.2494135
  67.4406433  39.5775185  13.3301659  65.0635605  43.2757111  78.7579269
  64.1098938  43.1937943  78.7641907  65.2984467  43.4101219  79.6760712
  85.0182571  11.1886320   8.2715387  84.9798508  10.7844105   9.1383505
  85.9474335  11.1752701   8.0419941  66.6125412  63.1729050   9.2456532
  66.6829605  62.4799423   9.9022150  66.8285675  63.9755096   9.7204037
  73.8420639  38.4011955  19.2824917  73.5538635  38.9349670  20.0229397
  74.7779312  38.5861015  19.2038364   4.0310307  24.4256382  20.0944767
   3.2325442  24.8024769  19.7248230   3.7675240  24.1050224  20.9570312
   4.4100103  44.4283638  34.3526192   5.1333051  43.8129654  34.2327919
   4.4964795  44.7262077  35.2581825  19.7863235  61.1918144  30.8757343
  20.0251694  61.7489090  31.6165657  20.5298805  61.2582169  30.2766132
  61.6846237  58.5691071  23.7535725  61.7398758  59.3915100  24.2402267
  61.4202957  57.9214592  24.4069595  66.1814728  15.5473871  41.4169922
  65.4903107  14.9300823  41.6566963  66.9603424  15.0026627  41.3035393
  40.3135262  29.7718010   7.1004038  40.2970810  30.4593697   6.4346642
  39.4013367  29.4925537   7.1789026  28.7088318  28.1571636  16.2125835
  29.0432129  27.7681103  15.4044638  28.0103550  28.7447815  15.9243698
  62.8264503   3.4206228  85.1153336  62.8731880   2.5968003  85.6004791
  63.5911865   3.4034317  84.5399094  48.3151741   5.6280789  80.0206146
  47.8676834   4.9284730  79.5446625  47.7825546   5.7632561  80.8043747
  13.7217464  53.4681320  25.2759132  13.8434992  53.8939171  26.1245098
  14.0649080  52.5832863  25.4004879  39.2922440  62.5456161  38.6447792
  39.9827232  62.2616234  38.0457649  38.4816856  62.4260483  38.1498718
  83.9066315  45.5786591  27.2623119  84.4566116  45.8261604  28.0056133
  84.4926682  45.6197052  26.5065918  71.3839264  36.6113548  24.3890553
  70.4964981  36.5947990  24.7474251  71.2691650  36.4277916  23.4566574
  50.2839394  43.9579048  47.0415535  50.8809853  43.5782089  47.6862183
  49.7137184  44.5324478  47.5524178   1.0839405  57.2568588  80.2361984
   1.3296645  57.9919090  80.7979355   0.1663348  57.0881920  80.4501648
  77.4303284   2.2841256  58.9257736  76.7689667   1.9983356  59.5559845
  77.1191101   3.1368594  58.6220970  35.8878212  61.4712601  86.9082413
  35.1306343  61.4307594  86.3240662  36.1140823  60.5555229  87.0709076
  72.9096146  46.2759666  42.9981728  73.6974106  46.1619110  42.4665642
  72.2052536  45.9080048  42.4645882  19.7538929  62.1003075  20.0733624
  19.6736603  61.5465317  19.2967472  20.6967258  62.1637688  20.2259102
  29.4414883  39.8648415  20.0400581  30.0506134  39.1287727  20.0983486
  28.8518906  39.6316071  19.3229733  58.2687035   0.4651483  22.0979080
  58.6027679  -0.1342592  22.7652512  58.0023003   1.2436543  22.5869789
  83.2655945  34.6696205  56.0315094  84.0596542  34.1897278  55.7961311
  82.7211609  34.6322250  55.2451057  35.2491302   8.4399061  19.4777470
  35.7020721   9.1212835  18.9809570  34.9527893   7.8167520  18.8143520
  -0.0144557  12.4518852  58.2840347  -0.5390481  12.4795713  59.0842018
   0.8472571  12.1514435  58.5728569  68.0080109   5.5744605  15.6149826
  68.2603607   4.7023344  15.3117495  67.7173004   5.4396138  16.5169449
  63.1075745  19.8857021  32.0038185  63.7623711  19.1998463  31.8731461
  62.3813286  19.4429626  32.4428902  38.8739891  18.7269745  82.8272934
  38.5560532  19.1928310  82.0539093  38.9888954  17.8236256  82.5323563
  60.8115273  17.5018749  59.2373619  60.4131584  17.9995975  59.9513664
  61.2408104  18.1632977  58.6947136  34.0221176  54.7545166  30.8890991
  33.8881187  55.6434326  31.2178917  33.7737579  54.8006630  29.9658337
   3.9537442  35.7921333   9.0463076   3.9881182  35.9035339   9.9963808
   3.2290881  36.3510208   8.7656851  64.8277588  66.9662933  33.5564270
  64.4889603  67.3571625  32.7510300  64.7457886  67.6591110  34.2117996
  39.7871819  46.8388252   7.7542567  40.2108459  47.4813309   8.3233995
  40.5115433  46.3957825   7.3123875  64.0752869  18.6657925  75.5076065
  64.5802307  17.8910694  75.2604904  64.6345062  19.4036903  75.2646790
  67.2519989   4.2870111  28.6508064  67.6933212   4.6779213  29.4048996
  67.0731354   5.0254793  28.0686493  37.9169006  67.3694382  35.1797752
  37.3839645  68.0589142  35.5757942  38.7072296  67.8193512  34.8811264
  71.7141266  28.5429935  14.3059196  71.7816772  28.1718311  13.4261990
  71.2925262  29.3924294  14.1757679   1.6524079  68.4804535  53.8522453
   2.1719437  69.2664490  54.0211182   1.9927374  67.8315048  54.4680977
  43.6786270  59.1182442  70.6625214  44.1701851  59.0757980  69.8422775
  43.9832382  58.3617744  71.1637192  45.1657410  39.3740807  23.6038876
  46.0348206  38.9788017  23.5354366  45.2431526  40.2053604  23.1356831
  20.7718639   4.1874228  28.5159111  19.8396053   4.3392897  28.6710358
  21.0968628   5.0208268  28.1752567  39.8235893  45.5980873  44.1781616
  40.5176544  46.2504387  44.0835876  39.9301071  45.2623520  45.0681992
  12.0195751  53.3431511  71.4270401  12.5274601  54.0870972  71.7508087
  11.5329542  53.0345535  72.1913681  81.6905594  33.4211082  78.8319626
  82.4478073  33.9701080  79.0354385  82.0654755  32.5692406  78.6083832
  42.9647217  48.2608261  74.5397415  42.0292015  48.3437462  74.3549194
  43.2553825  47.5374222  73.9843750  50.6791458  40.6894035  65.6464996
  49.7458076  40.6319504  65.8509750  50.7152138  40.6895714  64.6899796
  59.6649132  61.1716042  64.5825806  59.8018532  61.4966164  65.4724350
  60.4233665  61.4888573  64.0923462  44.8871689   0.8717936  59.0732384
  45.5343056   1.5533445  59.2547112  45.1325417   0.1487309  59.6504745
  63.6525688  50.1684914   2.0200453  63.2178383  50.5537834   2.7808292
  63.3875618  50.7231865   1.2863452  12.9842243  43.4931602  79.1393890
  12.0929041  43.5380173  79.4854660  13.5242462  43.9040375  79.8145142
  54.9692650  41.6335220  53.2670937  54.5979004  42.3313332  52.7272911
  54.6586037  41.8242989  54.1521492  59.6826477   3.5669043  20.3374882
  60.4564171   3.5218761  20.8991680  59.9486809   4.1262178  19.6076736
  39.3339310  58.5693054  58.9635963  38.3958397  58.4316940  59.0950508
  39.3932838  59.4251595  58.5390663  38.3539429  48.4424400  60.4914780
  38.1935272  47.7316780  61.1122131  38.2689896  48.0324364  59.6307182
  74.3320999   6.6693482  62.1771736  74.7642288   5.9220681  62.5907822
  73.7209244   6.2774601  61.5533829  12.4083719  31.0477409  25.7931728
  12.9501104  31.7134285  25.3693676  12.6101990  30.2392445  25.3221836
   5.2373600   2.0018187  16.0266228   5.3946705   1.4921579  15.2318077
   4.2841482   2.0271719  16.1101494  43.2094498  15.9985428  78.3909225
  43.0445480  15.0908003  78.6459579  43.1481094  16.4920368  79.2088013
  59.5521774   0.4513232  55.8621864  59.6644592  -0.4510431  56.1611176
  60.3281937   0.9090488  56.1854820  34.5573235  54.3814240  13.5716124
  34.5377350  54.2553711  14.5202732  35.4528580  54.1572495  13.3186464
  81.9120941  18.2501049   2.5123935  82.2173157  17.6436367   1.8376577
  82.4231491  18.0215302   3.2888007  63.1394768  49.5354004  87.2614365
  64.0817490  49.6695480  87.1596298  62.8844757  50.1438713  87.9549561
  55.6468735  10.6972151  44.3546143  56.1979599  11.4282951  44.6340027
  55.9212341   9.9655447  44.9074440  31.9759216  42.3938370  12.9448900
  31.2923641  41.9016075  13.3995237  31.5989361  42.5911865  12.0874701
  32.7880859  44.8685760   2.5409884  33.1091881  43.9753494   2.6645870
  32.1868591  44.8064041   1.7987661   4.0294390  10.6086740   0.5490522
   3.3898821  11.2480993   0.2354705   3.7391701   9.7765770   0.1754340
  30.4427299   7.2594838  24.9999142  31.1170483   7.5170865  25.6285381
  30.9267654   7.0547013  24.1999111  71.4353104   4.4811425  13.8688402
  71.4102097   5.0351434  14.6490231  72.0795746   3.8043110  14.0763245
  80.5610733  27.5395851  49.1395683  80.6924744  28.4381123  48.8368912
  79.6194458  27.3922710  49.0509109  29.8681698   6.0767303  71.1517792
  29.9799786   5.6924958  72.0213165  30.5372124   5.6524138  70.6145935
  10.2621651  10.1932850  83.3472824  10.8224554  10.3823462  82.5945816
  10.8617487   9.8584328  84.0140686  11.7291288  54.1051826  68.9015274
  11.5971413  54.9792671  69.2686539  11.8644495  53.5429535  69.6642990
  38.5579071  44.8396339  31.8740997  38.2768173  45.1873474  32.7204552
  39.2805519  44.2487640  32.0859718  37.3456612  58.3106918  62.1702614
  37.4659348  58.1553497  63.1070824  37.1820450  57.4422226  61.8025360
  31.0374088  11.4760828  19.1768837  31.6610641  11.3751507  19.8959789
  30.9265862  10.5908852  18.8299332  73.3277740  20.4168224  30.5075722
  73.7052002  20.2171803  29.6508808  72.4171066  20.6449413  30.3208160
  30.2499695  40.6593285  56.0292740  29.6595898  40.2980423  56.6904526
  30.3622093  39.9507675  55.3955727  64.8229523   8.5756979  39.2818832
  65.6967087   8.1863575  39.3164253  64.9140091   9.3156347  38.6815224
  36.2065659  70.1632614  63.1594734  36.8454247  69.6770401  62.6382446
  35.8105049  70.7772675  62.5411148  58.2230186   0.6467806  35.0294685
  58.0207520  -0.2485368  34.7579384  58.6673622   1.0315772  34.2740059
  21.5087776  24.9741688  67.3471985  22.2641277  25.5247688  67.1409988
  21.0512409  25.4460564  68.0430527   9.7653151  18.8173923  31.1665306
   9.9618664  18.4872303  32.0432243   9.4146404  19.6956806  31.3144073
  68.4455414   1.1697676  26.9433136  67.5850830   1.3768152  26.5786572
  68.7220459   0.3832685  26.4729977  73.4572449  48.3431625  85.6730118
  73.3153152  47.6492729  85.0291214  73.9731522  49.0008354  85.2066040
  57.4266052  54.2046852  61.1788368  56.5731583  54.4706497  61.5210724
  58.0160789  54.9175568  61.4249382  32.4674454  14.9977837   4.1135030
  31.6380253  15.3669014   4.4168978  33.0613785  15.1000233   4.8571572
   5.5290022  20.1247692  20.7781620   6.4196510  19.7958717  20.6564960
   4.9855905  19.5494785  20.2396679  82.1862411  37.5703354   2.1532071
  82.7387848  37.1611671   2.8191731  82.3290482  37.0435829   1.3668400
  42.3198128  33.6028976  12.1214943  42.0505562  34.5203629  12.1661425
  42.3542290  33.3186646  13.0348721  26.2015781  32.5826912  81.5205460
  26.4927158  32.3890686  80.6294937  26.9770565  32.9393997  81.9537048
  68.8638458  25.5735760  17.9973087  69.5811615  25.0506039  17.6392841
  68.0873489  25.2678947  17.5284271  38.4852333  45.1728935  34.7466583
  39.1375961  45.4684830  35.3817062  38.4210625  44.2288170  34.8909950
  13.6047401  29.8772888  21.6227627  13.7159748  28.9628239  21.8827858
  13.4826479  29.8433647  20.6739883  79.3767014  16.3279572  35.9264259
  79.2163849  17.2401428  36.1681824  79.3967285  15.8590460  36.7606621
  63.2393188  38.0468521  44.3643112  62.2950020  38.1599960  44.2561340
  63.6271286  38.6921539  43.7731934  15.0929203  60.2352791  22.7993927
  16.0150146  60.1737328  23.0487671  15.0143890  59.6700134  22.0309277
  35.3046265   1.8497510  69.9620895  34.8283043   1.0281539  69.8424072
  34.7278824   2.5172799  69.5906067  65.4644394  34.2528152  58.1995506
  64.6618652  34.2875175  57.6790733  65.1615372  34.2594070  59.1075401
  58.7383461  38.0897903  64.0510101  59.5492401  37.7633743  63.6609650
  58.7234879  39.0207291  63.8288269   2.7778530  53.8170891  58.6247978
   1.8252301  53.8383789  58.5337563   3.0691953  54.6663933  58.2930756
  40.9204292  65.9201965  83.1393051  40.5962143  65.1607437  83.6233978
  41.8059082  66.0583878  83.4755478  56.3756905  41.8065681  79.9578934
  56.5020523  42.5026054  80.6027222  56.6994324  41.0168991  80.3913040
  85.4102859  47.1990471  71.2685013  84.6592636  47.1889114  70.6751175
  85.3544464  48.0459442  71.7110748  11.1733589  28.5974541  20.2884541
  11.4254494  27.6879559  20.4481220  11.8854876  28.9536476  19.7572002
  84.9723053  31.3036575  73.3227921  84.3490601  31.5319576  74.0124893
  84.8033676  31.9392738  72.6273193  20.7865829  68.8144608  19.1849995
  20.0866814  68.1653214  19.2556019  20.7630291  69.2837296  20.0189438
  56.5812416  60.4493065  62.6623764  57.4694519  60.2369576  62.3756294
  56.6497421  61.3353996  63.0178757  38.8808899   4.2178011  18.3133335
  39.2708282   4.6857905  17.5749798  39.5236778   4.3032088  19.0174370
  10.2031851  35.4137192  15.1359148  10.0254316  36.2710114  15.5228109
  10.9943781  35.1096382  15.5806408  60.0486565   0.8190251  60.5155220
  59.8972816   0.7009307  61.4532700  59.5059967   1.5709590  60.2781372
  40.3598213  52.8545914  83.3265228  39.7971420  52.1993752  83.7392197
  40.0496063  52.9012909  82.4221954   4.6365852  68.9431915  44.2269287
   5.0704699  68.1508179  44.5433464   3.9115007  69.0790482  44.8368683
  37.5743027  58.5099106  35.8153534  38.2678871  58.8095474  35.2276573
  37.9735718  57.7961922  36.3127708  15.0630531  44.9864197  82.8179474
  14.5557232  45.5808372  82.2652130  15.2449083  44.2332764  82.2558670
  51.2672462  18.0382900  40.0491028  51.3216057  17.3630714  40.7253876
  51.2537651  17.5514202  39.2250824  75.6465759  53.8918877  27.1159229
  74.7310181  54.1101608  27.2901173  75.7731323  53.0396309  27.5329037
  36.3870621  18.2064381  85.5666733  36.0464592  18.0574589  84.6846161
  36.9659233  18.9632702  85.4752350  43.0218925  49.0728798  80.8644791
  43.6095619  49.6901588  81.3001862  42.5743866  48.6220779  81.5805435
  73.3318558  13.9523659  37.4051552  73.3797989  13.8604870  36.4535828
  74.2451401  13.9560089  37.6917458  52.8833427  64.9579315  10.8780527
  52.0196075  65.0807571  10.4842148  53.3419342  65.7814026  10.7112331
  70.9259109  21.5132256  30.4967327  70.6722565  22.3791027  30.1771240
  70.5673676  21.4706364  31.3832226  77.6985855  70.7710342  56.0053368
  76.9916763  70.4098816  55.4704742  77.6161194  71.7191467  55.9027786
  51.2809029  50.2518463  51.2930336  50.8883896  49.4480476  51.6337280
  52.1311760  50.3067360  51.7292213   1.6470606  50.6982765  21.5718670
   2.1529226  50.5544128  22.3716412   1.0731637  49.9346352  21.5108376
  17.0639477  42.3583412  19.9352703  17.1861362  41.9989433  20.8139820
  16.1435909  42.6200867  19.9094009   9.3559818  57.2290001  46.0694313
  10.2696304  56.9486580  46.1231537   9.1308203  57.1356010  45.1437912
  64.5002899   3.2156789  50.3356552  65.0028305   3.6020813  49.6184540
  64.5836258   2.2711318  50.2048187   4.3320479  47.0899773  10.9452000
   5.0276680  47.0455055  10.2891769   4.7900844  47.0363846  11.7839861
  53.4896736  68.4644775  33.4585876  53.9627457  67.9642181  32.7936249
  53.0283279  67.8023071  33.9733009  39.5760345  47.1828537  55.6713562
  40.2483406  46.5796280  55.9881477  39.1792297  47.5383072  56.4666100
  30.9970016   2.7725055  41.9057121  31.0944023   1.8263698  41.7981415
  31.6948433   3.0175750  42.5133247  62.7927933  41.3851929  34.6587715
  62.6704292  41.7495003  35.5354347  62.2956696  40.5672569  34.6677704
  22.3922443  13.3216352  35.6431770  22.6930618  12.7029076  34.9776573
  22.3431149  12.8039083  36.4467773  19.0604553  12.8959074  30.9821014
  19.6655350  13.4675665  30.5095367  18.3167114  12.7915144  30.3886547
  40.2891045  52.3332634  48.2358322  40.5257683  51.4248123  48.4227638
  39.9546509  52.3139915  47.3391724  68.2552948  64.3075104  28.2735367
  67.5648117  64.6432800  28.8451271  68.9230347  63.9759140  28.8738728
   2.9327683  52.3470039  43.6487846   2.2028618  52.8277855  44.0390625
   2.7126832  51.4254608  43.7849922   9.8504496  60.4459610  48.9153328
  10.4467516  59.7139549  48.7577858   8.9765720  60.0703545  48.8081474
  40.9731674  39.1479607  84.9995346  41.6751328  38.5956154  84.6554489
  40.5118904  38.5878868  85.6238480  18.7140865   2.0359397  58.6553078
  18.8817997   1.2267321  58.1723099  18.7099552   1.7696303  59.5747070
  19.1652908   6.6163616  78.9141464  18.5297852   6.4434872  79.6087494
  19.7125034   7.3213673  79.2602005  73.5021133  38.1329460  33.2270317
  72.9317856  37.8559341  33.9441261  73.4123230  37.4431915  32.5694580
  55.1068497  51.3224411  74.8588181  54.1959267  51.5915947  74.9771729
  55.1052856  50.8249741  74.0410385  73.8264084  29.1198788  60.1452713
  74.3388901  29.8662529  59.8346024  72.9696808  29.4897251  60.3585052
   0.9562642  19.2152634  76.1518021   1.3078210  19.3194160  75.2676086
   1.6857953  19.4432869  76.7280121  80.5196609  66.9652100  69.1569366
  80.8137360  67.8745575  69.1036682  79.9824371  66.8409958  68.3745041
  25.8081627  19.7678394   7.5822310  26.6208000  19.7508297   8.0877619
  25.8640041  19.0002213   7.0131311   7.2505436  42.4788361   2.8597376
   8.1083784  42.4540749   3.2836924   7.0633945  43.4113731   2.7521143
  58.8702393  53.7808838  85.5039673  58.3308563  53.7527351  86.2942200
  58.9910355  52.8622665  85.2635803  38.4044266  14.3084736  20.2266865
  37.6187057  14.8236341  20.0437107  38.7534332  14.0889273  19.3628426
  33.9418869  50.9526978  16.8719788  33.8298759  50.4126396  17.6542950
  33.2685280  51.6286163  16.9491253  86.3554459  20.3502960  46.0811958
  86.4963074  21.2969227  46.0642700  87.0416565  19.9958858  45.5157394
  73.9661407  11.8262854  24.2761440  73.6952972  11.2851210  23.5345116
  73.5331955  12.6673203  24.1296844  40.6336479   0.5440693  18.1300793
  40.4268456  -0.3074982  17.7449856  39.7852783   0.8995558  18.3949089
  63.8105507   6.5566230  55.1977921  64.5053558   7.2053390  55.3102264
  63.4075928   6.7802143  54.3588257  65.2765884  68.9689789  63.0672989
  65.9257584  69.3479996  62.4747238  65.2420120  69.5773849  63.8054619
  66.9195404  13.5290756  56.8332367  67.4684601  13.1924877  57.5414925
  66.5737457  14.3555393  57.1703072  14.2280817  62.3685150  45.8432808
  14.1376858  62.7656822  46.7094879  14.7668810  61.5913086  45.9911995
  69.6088257  63.0111961  30.2784233  69.7967377  63.5555916  31.0429859
  70.4402313  62.5796623  30.0814972  75.5630341  64.3730164  29.7566090
  76.3048935  64.3019333  30.3572979  75.1683578  63.5009727  29.7591858
  46.1718597   9.0802355  53.2093239  46.8365898   9.7564192  53.3402328
  45.3463135   9.5091295  53.4346275  56.8733940  34.5735741  31.3266563
  56.4947739  35.3232956  30.8675270  56.1664085  33.9289665  31.3564148
  68.2095490  47.0318947  76.6212921  68.1255569  47.7885818  77.2014618
  68.0901871  46.2754059  77.1954956  85.0455780  31.5032730  17.9558411
  85.2001190  30.9204159  17.2124519  84.8331375  30.9155502  18.6808815
  57.5261230  19.9163666  80.6558609  56.9144058  19.4028778  80.1282578
  57.6233559  19.4151173  81.4655075  29.9934006  16.4057083   5.0923319
  29.7185745  15.5176020   5.3202968  29.4528885  16.9723969   5.6427355
  65.8674393  22.0721264  70.2634125  66.5972137  21.4678307  70.1274261
  65.8554230  22.2243557  71.2083588  71.3301468  52.5551949  34.9238396
  71.8265457  52.0489616  35.5669136  71.8560104  53.3421249  34.7808838
  18.5070152   9.0501785  81.1016769  18.5817356   9.5619020  80.2962036
  18.1561069   9.6660051  81.7449875  72.3116150  53.3682594  62.0822525
  72.3963699  52.4923058  61.7057571  72.2642136  53.9511108  61.3244476
  45.7014618  36.4859848  76.9356995  45.7330933  35.8315582  76.2378769
  45.4342766  35.9948997  77.7126617  15.5844126  28.6754456   5.5317078
  14.7971525  29.0065899   5.0995073  15.6018791  29.1263905   6.3758497
  66.2781982   3.4627399  80.9735489  65.7719955   3.2691462  80.1845551
  66.9674225   4.0566902  80.6761932  57.8501396   5.2245812  65.1165314
  58.6247215   5.7481012  65.3219070  57.1466599   5.8661699  65.0179749
  78.6838074  20.7976875   8.8590603  79.3424301  20.1156712   8.9905882
  77.8509140  20.3262653   8.8422251  42.3873825  13.1283197  70.5454483
  42.5205612  13.8768530  71.1269913  42.5242882  13.4808407  69.6661148
  81.3268051  69.7443695  53.3103142  81.9779434  69.0846558  53.0715103
  81.5788345  70.5213013  52.8112259  27.3806438  59.3575706  26.6241188
  27.1493359  59.5458107  27.5336761  27.3327465  60.2063522  26.1842213
  58.7835007  44.8590164  42.6660805  59.1841507  45.6459846  43.0353928
  57.8440285  45.0422020  42.6741447  41.2530518  65.9098282  30.2481823
  41.9523315  66.1081161  30.8710117  40.4611664  65.8635330  30.7839146
  71.4571762  36.1233330  40.6444397  71.8554535  36.5249634  41.4166412
  72.1597748  35.6017609  40.2564392   2.3323984  40.3555412  54.1552467
   1.5836540  39.7609940  54.2013855   2.1741691  40.9943504  54.8503151
  55.9663506  67.3939285  88.5855713  56.8649673  67.7066956  88.4811630
  55.8526573  66.7532272  87.8835678  85.6417618  27.4153214  42.5636024
  84.7737808  27.2607250  42.9363403  86.1800995  26.7018452  42.9062119
   1.6917117  65.4060593  67.2066193   2.0055010  65.2582550  68.0987625
   2.4813962  65.6103973  66.7057419  84.8708115  25.9935608  55.0879364
  84.6406250  25.2368011  54.5488968  85.0396194  26.6940193  54.4577827
  36.9229355  41.0336266   3.8208156  37.5555573  40.7727699   4.4901261
  36.5245476  41.8325195   4.1661921  69.0719986  47.5455894  71.9739532
  69.5800095  46.7605667  72.1786499  69.2036972  47.6780624  71.0351562
  63.3905640   5.5146394  61.2417221  63.3459625   6.3004570  61.7864532
  63.7735176   5.8157911  60.4177742  41.9584198  50.9316750  79.0909882
  42.5222168  50.3729668  78.5559998  42.3833084  50.9496460  79.9485245
   1.7396939   5.8382702  54.8232269   1.8960347   5.7238445  55.7606163
   2.5185587   6.2942986  54.5044212  58.1915703  66.5544586  64.7772903
  58.4102783  67.2246323  64.1297836  57.2415619  66.6176682  64.8758926
  24.3581066  42.3945389  48.7542114  23.9964314  41.6394005  48.2903290
  24.1131859  42.2536430  49.6687584  35.0736008  69.5777893  88.5309448
  36.0031853  69.5526199  88.3040771  34.9749413  68.9115829  89.2111359
  86.0033264  65.8735352  82.6146698  86.8252563  66.2818756  82.3427963
  86.0584335  64.9784088  82.2800980  86.0856476  69.3512115  17.7889786
  85.1724014  69.4774399  18.0464249  86.5916519  69.6844025  18.5300426
  18.2507668  66.8067093  37.2985764  18.0204506  66.6786346  38.2187843
  17.7136726  66.1704254  36.8264503   7.9935513  47.0030098   1.8360100
   7.2802782  47.6233597   1.9864810   7.9757314  46.4274826   2.6006546
  12.3321772  48.2469597  14.4838524  12.0605774  48.5023880  13.6022511
  11.6780281  48.6423988  15.0600023  39.5811768  34.3060226  25.5534210
  40.3685570  34.1126823  25.0446167  38.9267921  33.6890411  25.2257824
  57.5686417  47.4949226  14.8491459  57.9307404  48.3699875  14.9883642
  58.1253891  47.1102524  14.1721745   4.6461639   7.3676610  56.5400200
   4.5572982   7.5726323  55.6092567   3.9685249   7.8921771  56.9665413
  47.1391983  51.3296509  23.9165134  47.5802116  51.8729477  24.5696335
  46.3120117  51.0822906  24.3298073  44.1641960   1.8772424  64.5022964
  44.0976372   2.2692358  65.3730087  43.4424095   2.2664773  64.0085831
  10.8746109   6.0235023  88.8654251  10.0491838   5.9602785  88.3848953
  11.5448637   5.7955918  88.2211761  19.2018261  11.3445740  78.8164978
  19.1197281  11.8328476  79.6356888  18.4111309  11.5668173  78.3249283
   2.6168242  22.8052425  30.8588352   1.8071488  22.7725735  31.3683357
   2.4408743  23.4465656  30.1703758   2.2010541  28.1100845  73.9728775
   1.2618607  27.9642601  73.8593750   2.4811828  27.4147625  74.5681000
  54.3320580  30.6438618  41.3224068  53.5081177  30.7603092  41.7954750
  54.0668526  30.3910389  40.4381142  42.8315773   4.0215163  86.2233353
  43.7624893   3.8389926  86.0955811  42.8108063   4.8893423  86.6266708
  17.2644215  46.2426872  84.2700272  17.0644493  47.1727028  84.1636505
  16.4921494  45.7911682  83.9295044   4.2577043  37.4527702  72.0724564
   3.9173968  36.5588646  72.0355988   3.5852768  37.9828720  71.6445923
  11.6709204   5.0619359  33.6153336  12.1971607   5.8610711  33.5891342
  11.0993309   5.1263661  32.8502426  85.9847641  46.6966629  42.2159462
  85.7145767  47.3054733  42.9033928  86.1472626  45.8730087  42.6757545
  77.0457077  67.2617798  49.0492783  77.1768646  66.3899994  49.4221382
  77.9256134  67.5569687  48.8150558  51.8511963  12.6129513  69.0337296
  51.1674004  12.0358105  69.3736649  52.6273003  12.0558167  68.9745712
  60.1340446  23.0159912  31.5658779  59.4235954  22.9951897  30.9247360
  60.2589760  22.1001892  31.8147354   1.2743207  66.5670166  12.8172121
   1.0910746  66.1264877  13.6470203   0.4245313  66.9020615  12.5311422
  78.8360825  41.4584160  41.3669701  78.1546021  42.0653381  41.6558571
  79.5290527  41.5473366  42.0212784   4.0961747  52.5180779  31.3551960
   3.4041767  53.1465759  31.5610142   4.0715947  52.4385109  30.4016247
  74.4016266  11.6693649  27.0637779  74.1100311  10.7624559  26.9704094
  74.4352112  12.0036364  26.1674709  25.3284855  20.5760059  82.0134201
  26.1422272  20.9926262  82.2971191  24.8028965  20.5094318  82.8106384
  85.6488876  47.4592705  34.0562782  85.7172089  48.4066734  33.9379845
  85.2062912  47.3543625  34.8984985  71.6590881  47.8644028  50.3984222
  71.4802780  47.6537819  49.4819641  72.4837112  48.3499184  50.3761063
  25.3616199   0.8988872  51.0130386  25.4384499   1.3911765  50.1957359
  25.1508198   1.5602686  51.6721039  52.9500732  32.9979630  36.5197372
  52.5411224  33.8468246  36.6883430  53.1697845  33.0187340  35.5883255
  76.0567551   9.0673370  50.7157822  76.9139862   8.6482935  50.6397705
  75.8181763   9.2896299  49.8158379  67.6785965  60.1433449  42.7849007
  67.8913879  60.3005676  43.7048111  68.1988220  59.3760452  42.5464821
  18.3965149  41.5047188  15.4049416  18.0987339  40.6025391  15.5216808
  17.9435425  41.9969444  16.0896053   7.7652483  -0.0522836  25.1652355
   6.9316597   0.3450182  24.9132175   8.0001163   0.3832179  25.9846306
   8.6376600  58.3699646  33.2724648   8.3626194  57.6501083  32.7046661
   7.8259726  58.8302269  33.4858932  53.9270248  24.2985725  53.9272232
  53.0244141  24.1124229  54.1858215  53.8684273  24.5247917  52.9989853
  24.4744225   5.3747454  36.3715591  24.9607773   5.2371812  35.5586853
  24.4446831   4.5105443  36.7820511   3.5554974  70.2224579  67.6764450
   2.7025576  70.0070190  67.2992020   3.6991251  69.5507126  68.3430481
   7.3490095  25.8777466  76.3247757   6.8032098  25.2020817  76.7270355
   8.2467527  25.5832729  76.4783173  48.8610992   1.1103767  24.4490433
  48.1198730   1.6786400  24.6585388  48.4670258   0.2538728  24.2836971
  36.6702690  11.9948215   3.9177980  37.2760887  11.2586994   3.8321304
  35.8988647  11.6217623   4.3444099  20.8127651  59.2542419  47.2597733
  21.5645275  59.1828003  47.8479729  20.0581684  59.3306122  47.8437080
  59.3200073   1.5918808  38.0909996  59.2961845   0.8316727  37.5098419
  60.2198792   1.9123070  38.0294571  18.8762856  34.4141502   6.3204880
  19.6646042  34.2165451   5.8147826  19.1565895  34.3551941   7.2338257
  74.3409424  57.2735977  63.9231529  74.9846268  57.9749298  64.0233078
  73.5055771  57.6806030  64.1528244  83.0759048  49.4824142  13.6433554
  83.1051102  48.9093819  12.8771896  82.2859192  50.0084419  13.5190392
  65.1991730  20.7679424  18.9232521  64.5482330  21.0225792  18.2692890
  65.8064880  21.5070343  18.9570999  51.3894272  62.6847267  75.1600952
  51.5705719  61.8508949  74.7263336  50.8331871  63.1599312  74.5428314
  73.0400925  64.3954239  69.5400314  72.5270615  65.0868530  69.1217499
  72.4410706  63.6506195  69.5916519  81.8171921  56.2004051  12.6806698
  81.4344177  57.0758018  12.6223936  81.9002075  55.9142532  11.7710228
  11.1328192  45.3950081  24.0354805  11.0132837  45.1331863  24.9483852
  10.9338655  44.6056633  23.5319118  79.1436844  13.8028946  50.7093468
  79.8704834  14.1943626  50.2248344  78.9869537  12.9662790  50.2714653
   4.7571430  68.4180527  80.7995834   4.4362564  68.4533997  79.8984680
   4.0092530  68.6909256  81.3310318  68.4327164   4.2485847  52.3039742
  68.7313461   3.4144256  51.9417191  67.5901337   4.0453753  52.7101669
  74.9577713  31.1679802  58.7096405  75.3946991  31.9934349  58.9192810
  74.1809311  31.4272766  58.2141418  75.5518646  67.8896942  86.0508499
  75.3245316  67.9830017  85.1257248  76.5034943  67.7866211  86.0544205
  45.4717369  21.3326111   3.2305899  44.6125603  21.3198433   2.8088238
  45.9486656  20.6088181   2.8245223  39.7409859   3.8999236  75.9213257
  40.4914665   4.0563407  75.3481369  38.9809036   3.9606442  75.3426819
  18.6679935  14.4183044   1.4857296  18.5871506  14.9724674   0.7094561
  18.1826935  13.6235361   1.2642397   0.5309700   8.6815701  13.1305075
   0.3921762   9.4189682  13.7248240   1.3829002   8.3265142  13.3842430
  26.2185383  22.0627899  73.8003998  25.8394279  22.2362976  74.6620255
  27.1358490  21.8561935  73.9795303  36.7213745   6.4922285  46.4832687
  36.4515495   6.1148868  45.6459885  36.8479538   7.4225612  46.2970161
   9.8041954  33.5760384   6.1226702   9.4191847  32.7276115   6.3421435
   9.6848497  34.1045418   6.9117670  66.5487747  56.4937096  71.7996292
  66.0253906  56.6078796  72.5928955  66.3284225  55.6145630  71.4917679
  78.4035797  30.1178474  53.0689163  77.8257599  30.7434940  53.5058632
  78.9675446  29.7847748  53.7669373  82.3653412  52.7962227  38.0525284
  81.7454376  52.1060333  38.2883034  82.8715363  52.4266129  37.3290710
  59.9616165  21.0724716  63.8863831  59.5278664  20.3459225  64.3338394
  60.5627670  21.4311829  64.5392075  78.8887787   4.7608438  65.5796051
  79.7098083   4.3002801  65.7528915  78.7912903   5.3625226  66.3176498
  53.2608414  36.4741974  18.3966408  53.5104637  36.9845810  19.1669827
  53.8031731  36.8255692  17.6904926  18.8601799  66.1746063  22.5337658
  17.9342842  66.4139557  22.4930134  19.3078003  66.9879837  22.7667503
  32.5292969  70.1512451  63.0836449  32.9069061  70.8906097  63.5600700
  31.8366737  70.5394058  62.5490112  66.6637115  60.8321724  49.5598297
  66.5063934  61.7518883  49.7733917  66.3460388  60.3511238  50.3239670
  64.1651382  11.7907639  87.8954391  64.2448578  10.8424053  87.7930069
  63.4872665  11.9035501  88.5617752  12.8131104  22.1752682  78.2399139
  12.0351572  21.7472706  78.5974579  12.9372368  21.7688046  77.3822327
  60.2925110  45.9122887  34.3870049  59.6409035  45.6465492  35.0358696
  59.9704552  46.7495880  34.0531731  29.8255100  52.6214027  22.3413582
  29.3279953  51.9582443  21.8628922  29.6409836  52.4405670  23.2630291
  64.2366867   4.8552051  86.8648453  63.6832695   4.5710731  86.1373672
  64.8242111   5.5050836  86.4792175  84.1755219  31.0410194  23.0339069
  84.8491058  31.2689171  23.6746674  83.3977661  30.8548927  23.5599117
  32.8475151  46.8992844  45.1812363  33.5972443  46.9750748  45.7714844
  32.5193253  47.7942963  45.0947647  66.1476746  19.6588669  72.7644958
  65.6737595  18.8326435  72.8593140  65.8545151  20.1895123  73.5052338
  70.5236130  65.4828415  48.7642822  70.6426010  66.0498276  49.5262489
  70.2534332  64.6413040  49.1317902  60.8824387  40.3892746   0.9326017
  60.6987572  39.6706619   1.5376551  60.9105797  41.1685333   1.4877514
  72.9624405   3.0718319  47.5001831  72.9283524   2.1436863  47.2686310
  72.1301651   3.4272099  47.1883202  12.6462555  54.8563728  52.0050888
  11.8020687  54.8237572  51.5550728  12.6509390  54.0779953  52.5621681
   4.8307228   5.5435491  83.6705322   4.1334119   6.0306392  84.1095505
   5.0221910   6.0553212  82.8846207  85.1202774  14.4735670  73.0847855
  85.1192017  14.7856207  73.9896927  85.9818192  14.0723286  72.9708252
  66.5796280   7.5068202  80.3360291  67.0558853   6.6773162  80.3725052
  65.8880615   7.4149594  80.9914093  67.9026260  28.7313995  85.9451599
  68.8585739  28.7741203  85.9688416  67.6371613  29.5439434  85.5144196
  41.5443077  50.9407463  51.3224373  40.7358246  50.5041847  51.0541115
  42.1305389  50.2265625  51.5724602  42.6473656  50.6524887  16.8370972
  43.2181015  51.3914528  17.0478745  42.2488136  50.8889580  15.9995584
  14.7130108   1.4310368  67.7950592  13.8759336   1.7726821  68.1093979
  15.2835112   2.1983798  67.7509460  60.9956551  38.8043633   3.1252055
  61.0548477  38.7924461   4.0804992  60.2001266  38.3097763   2.9283414
  24.0471363  51.9492149  14.1966391  24.4419842  51.9651070  15.0684614
  23.6453514  52.8126068  14.0999041  86.5590591  20.0876522  85.2226715
  86.7991409  20.8879280  84.7556076  86.1482773  20.3958549  86.0304489
  34.0021248  60.9617271  55.4851341  33.2903442  61.1409836  56.0995178
  33.5611115  60.7607231  54.6597023  46.1051750  13.6853561  18.6735744
  46.0203094  14.0368471  17.7872982  46.8525085  13.0892897  18.6242962
   6.8251748  49.4608498  34.5637703   5.9508185  49.0795784  34.6435547
   7.3109207  48.8356400  34.0258141  40.4505348  56.4003029  16.9687500
  41.2187920  55.8692131  17.1784000  39.9305534  56.3970375  17.7723923
  69.5229111  25.8278942  43.8464470  69.4895172  25.1007862  44.4680824
  70.2443161  26.3752518  44.1566238  32.5737114  60.3010445  38.9327011
  33.2130470  60.5847740  38.2792625  32.7229996  60.8793335  39.6807175
   0.5220448   0.1538514  65.5392456   0.1343544   0.1107592  66.4133606
   0.2041594   0.9807564  65.1767426  10.1276426  38.7513428  51.0315475
  10.9782076  38.7223778  50.5934486   9.7883825  37.8595467  50.9551430
  59.6388588   4.4409022   0.7590411  60.0677872   4.5042248  -0.0943291
  58.7083130   4.5597644   0.5687945  17.0247650  63.4271469  25.6188641
  17.4919147  63.2202911  24.8094101  17.0303116  64.3834076  25.6609249
   4.8908772  19.6012173  59.5674973   4.8195953  19.2137966  58.6951141
   4.8011322  18.8601933  60.1667137  74.6078110  31.2038345  45.5489502
  75.3110428  30.7951202  45.0443268  74.8787689  31.1041985  46.4615746
  73.5500641  56.8667870  68.3178253  73.8074341  57.7640991  68.1060944
  72.6061478  56.8448944  68.1604309   4.6730309   0.6998968  10.6608391
   5.2729025   0.1114876  11.1192722   5.0697241   1.5660906  10.7534389
  73.6928024  24.3483334  39.3095055  73.0987854  24.9185791  38.8214531
  74.3432617  24.9432297  39.6826515  36.0223579  29.6242332  11.6616545
  35.4108772  29.5188046  10.9328146  36.7927322  30.0360603  11.2703094
  61.7590485  28.9407864  85.1919250  62.3195190  29.3228931  85.8672791
  62.3342400  28.3445702  84.7124405  49.2787590  11.5484037  48.0807953
  49.9644547  11.8360081  48.6835670  49.7536316  11.1710730  47.3402863
  22.5356674  30.7497559  14.1756668  23.0124531  30.5387669  14.9784069
  21.8631535  30.0716629  14.1112814  73.3172073  63.3138390  44.1768150
  72.9824371  62.7803841  44.8976364  72.8025970  63.0404472  43.4174309
   9.1744156   4.8601861  67.5485458   8.5055542   4.9977221  68.2193222
   8.7172537   5.0078182  66.7206345  50.5385094  44.0081482  21.1656303
  50.5298004  44.9443550  20.9664497  51.3869286  43.7028122  20.8444004
  38.0349236  20.5477734  70.0825424  37.2693748  20.0219479  69.8508759
  38.7616882  19.9248428  70.0844421  80.2251740  39.9141464  58.5280571
  80.7230682  39.2384415  58.0678902  80.8841019  40.4036980  59.0203781
  46.4341698  51.9115829  16.9375191  46.0808449  51.3419838  16.2541847
  47.0834618  52.4517136  16.4870644  41.4415398  53.6935043  23.4696255
  40.9321976  54.1573715  22.8050747  42.2643280  54.1796722  23.5233440
  46.7617722   8.9869881  37.6094131  46.2311859   8.7770977  36.8408699
  47.6310005   9.1760798  37.2559814  24.3625374   0.6677471  63.3872185
  23.5491734   0.2016194  63.1938362  24.9800816   0.3565925  62.7253609
  20.9152126  48.9415855  37.4640770  19.9598522  48.9223709  37.4079437
  21.1982098  49.2818604  36.6153374  57.1010590  16.7157822  42.0393715
  57.9646187  17.1193371  42.1267662  56.5273552  17.2581196  42.5806389
  56.0236168  40.3056679  11.1037922  56.8574715  40.0142441  10.7350235
  55.5903740  39.4991531  11.3832035  69.0525970  32.3210907  62.1557198
  69.9447403  32.1920853  62.4776993  68.8908081  31.5663967  61.5895996
  42.9289169  30.2023163  30.8616447  42.7754974  31.1299324  31.0411530
  42.0966873  29.8854542  30.5106087  60.6020699  54.9455414  53.2013283
  60.7733192  54.6215591  52.3170547  59.7515678  55.3799400  53.1367226
  22.1596546  40.9016075  47.0977783  21.3335457  40.7007179  46.6579819
  22.7402344  40.1791763  46.8584976  79.0045471  47.2324028  10.7880917
  78.2139359  47.4128227  11.2966442  78.8997726  47.7510147   9.9904108
  39.5663681  66.8860703  48.0753822  39.6267738  66.3822632  48.8870277
  40.3724442  66.6772385  47.6033020  37.1643143   1.7299260  51.7429047
  36.7355270   2.2898176  51.0956802  36.6609459   0.9159340  51.7264481
  25.2333851  12.1054630  71.2969360  24.5165157  12.3126688  71.8964386
  25.9784565  12.6033754  71.6333694  46.7030563  63.7893715  57.2506981
  46.3002892  63.0770721  56.7540741  46.1285744  63.9087906  58.0069656
  57.9909592  56.5639191  49.7403488  58.8620491  56.9559746  49.6792908
  57.5030212  56.9500084  49.0129662  35.3739662  51.0907478  32.3467484
  35.2622986  51.1543770  33.2952805  35.9174309  51.8449059  32.1184387
  56.1838341  21.2963982   1.3193576  55.3084259  21.0445309   1.0253258
  56.7765427  20.8656044   0.7034461  56.0928154  45.8003082  41.4561996
  56.4504623  45.5263367  40.6116524  55.1457100  45.8226395  41.3193398
  36.0362625  38.0334473  76.5529327  36.3338547  37.2357979  76.1154099
  35.9230881  38.6671982  75.8445663  76.5180588   6.4656434  21.4121590
  76.0675278   6.6213999  20.5821037  76.9437714   5.6159773  21.2978535
  26.2165051  59.0063591  69.2828674  25.3400898  59.1825600  69.6250381
  26.1623421  59.2368507  68.3554153  45.3688507  61.4479828  76.9386215
  45.0320930  60.6185303  76.5997543  45.2541428  61.3836060  77.8867416
  53.2102928  54.1939468  87.2079544  52.3141670  53.8882446  87.0674667
  53.7302399  53.3924713  87.2672806  53.6448021  50.8624725   6.1035571
  54.0214615  51.0370331   5.2410665  53.6793442  51.7057533   6.5551262
  29.3758812   5.7169938  46.3871117  29.9457741   4.9969378  46.1169777
  29.8747501   6.5075102  46.1810913  64.1022415  13.2332277   8.5357227
  63.9350281  14.1102962   8.8807192  64.6309204  13.3810682   7.7515869
  25.9066429  46.4149666  29.8852062  25.7549953  45.5970802  30.3588047
  26.8553638  46.5379677  29.9173241  46.5209961  28.3464146  66.0259933
  45.9233246  29.0873985  65.9261703  47.2163849  28.5121536  65.3894424
  62.7652435  13.4654245  26.1707382  63.3942947  12.7642612  26.3407345
  61.9096680  13.0423460  26.2430439  29.5751381  56.3960762  37.8183632
  30.3012543  55.8672295  37.4877434  28.8708744  56.2586937  37.1848221
  60.2793503  44.8717155  65.7918091  60.6963844  44.0105667  65.7646103
  59.3408623  44.6833954  65.7935791  69.4652023  38.3062782  30.9358273
  69.7916031  39.1959724  30.8011723  70.2136765  37.8279915  31.2925663
  60.9793968  69.1702805  72.1988068  60.9732742  69.0078278  73.1420975
  61.6766167  69.8135605  72.0710754  42.2415543   6.1015587  79.0472336
  42.0958290   5.9761109  78.1095505  41.3826523   5.9575915  79.4444733
  65.0125732  35.8174477  83.5336838  65.3386917  36.1748123  84.3596191
  65.6983490  35.2147446  83.2461166  71.3365402  52.1124649  17.1196747
  71.0864792  52.6018791  16.3359776  72.0154724  52.6480637  17.5300598
  10.3404198  24.2520466   4.8497810  10.2404757  24.6830463   4.0009694
   9.5281916  23.7588730   4.9650960  69.8110580  43.9535179  66.1826096
  69.1194839  43.5421219  66.7009888  70.0668564  44.7225418  66.6919250
  30.1961651  52.3265610  42.8657875  30.9260273  52.2200737  43.4758644
  30.4374676  53.0847435  42.3336601  47.0051689   9.8208475  44.9618340
  46.4291191   9.8999033  45.7221947  47.7960701   9.4032784  45.3029213
  66.7549973  49.5374908  22.9913940  65.8274994  49.3423309  23.1251736
  67.0151443  50.0156136  23.7787647   3.6326993  54.2201118  51.4348793
   3.8377910  53.5822678  50.7512703   3.4754066  53.6909180  52.2168274
  84.3843918  41.1396637  67.4213943  84.1806870  41.9177475  67.9403534
  84.7192612  40.5081024  68.0579681   4.2308192   7.0469604  74.5033798
   5.1625643   7.2416906  74.6041946   4.0099635   6.5265265  75.2757797
  72.1650925  24.6212711  54.3944321  73.0658264  24.8804646  54.2001839
  71.7324829  24.6004124  53.5408249  81.6386642  33.1170387   2.2014885
  81.0260010  33.6782646   2.6767776  81.0991516  32.6744270   1.5463139
  82.3105240  22.3312035  76.3216324  81.7622375  21.5466022  76.3187103
  83.2067566  21.9969730  76.3577118  16.7082386   0.1400504  11.2017193
  15.9281530   0.2126867  11.7516470  16.9733562   1.0457017  11.0412807
   8.2693729  34.6467705  23.3881187   8.5415163  34.3965721  24.2710514
   9.0105047  35.1429596  23.0406303  72.9060287  53.8264618  27.2209435
  72.1859207  53.2090187  27.0927410  72.5611725  54.4718475  27.8380203
  53.4488945  38.1456184  59.4750404  52.4943771  38.1577682  59.4044571
  53.6570854  38.8925743  60.0362396  31.7111778  63.3053894  30.4900188
  31.4343967  62.9056969  31.3145599  32.6290131  63.0503349  30.3964329
  49.6426125  50.8302879  65.5040131  50.5631981  50.7275391  65.2627563
  49.6324310  50.7343025  66.4563293   5.1346979  51.1642151  11.9766665
   5.8987908  51.7343712  11.8911533   5.2622805  50.4909058  11.3083773
  77.9778366  36.2623253  45.6954460  78.5866928  35.5545998  45.9067459
  78.2388458  36.5495720  44.8204613  69.9841537  11.4012032  50.8708763
  70.2297211  11.1330528  49.9854240  70.5255203  10.8586302  51.4442520
   5.4865398  53.1556320   0.5063919   6.0247207  52.5811348   1.0509535
   4.9116125  52.5602798   0.0255071  57.9201241  32.6540947  84.0128632
  58.4605560  32.1082458  83.4417191  57.0655136  32.2229919  84.0176239
  45.7343102  59.9443054  16.5144901  46.3148003  59.2073631  16.7046986
  45.4132195  59.7739296  15.6289949  84.8287430  34.9052925  34.8149261
  85.5225525  34.4663963  34.3227615  84.4038544  34.2033043  35.3077850
  66.9599457  23.1239357   1.8232216  66.9191132  22.5623722   1.0491339
  66.3046570  23.8026772   1.6615615  84.2090607   7.6958370  24.1883755
  84.9364090   7.7052703  23.5661964  83.4576569   8.0062857  23.6831493
  61.4332199  68.8185120   8.2899380  61.6176605  69.5714493   7.7284303
  60.8340607  69.1569748   8.9552813  12.4541531  63.5180969  75.3828583
  13.2426300  63.4096642  75.9146271  12.7821436  63.7204666  74.5066757
  22.3148460  45.3276443  53.4660339  21.7886124  45.4436111  52.6749191
  23.1895618  45.1122894  53.1424141  37.5403900  51.6390762  77.9277420
  38.1529083  52.0297737  77.3045197  36.6806335  51.9526978  77.6472244
  39.0820503   1.6140884  45.0031738  38.7612114   2.5081129  45.1215591
  38.3456802   1.0593163  45.2605019  54.0402107  62.3761711  47.6085892
  54.0292892  61.4268036  47.7303009  54.5983238  62.7017746  48.3147926
  79.6688766  19.0452175  34.4911041  80.5662613  18.7379379  34.3625870
  79.1285095  18.4093666  34.0221367  83.6681595  41.9073486  78.3498917
  83.7959290  42.7907257  78.6956635  83.9140472  41.9734268  77.4271774
  69.7654190  45.1180229  50.4418030  70.2876892  45.5998917  49.8004990
  68.9112015  45.5497055  50.4279938  16.4891129   6.2905612  11.4235716
  16.1300297   6.8613591  10.7442474  17.2463379   5.8747072  11.0113745
  62.9124947   5.9995375  37.6081848  63.0192375   6.3550014  36.7258682
  62.4755020   5.1581998  37.4762039  80.9844818  51.4606514   4.5403757
  80.3326111  50.7621574   4.4820561  80.6000137  52.1884727   4.0518126
  47.5563812  11.3930187  18.0313454  47.9654274  10.6698103  18.5066166
  47.8365479  11.2722492  17.1240673  44.8840446  70.2917099   2.3746216
  45.7914886  70.3812714   2.0835030  44.9288597  70.3741913   3.3272080
  43.1420860  37.8344154  18.0415173  43.9702454  37.3613548  17.9602890
  42.6931458  37.4077911  18.7713623  63.3388710  51.7706451  66.2806320
  63.0922356  50.9284401  65.8984070  62.5576286  52.3152924  66.1844559
  42.6406097  63.8088646  14.4114685  42.9985199  62.9963837  14.0536880
  42.8906212  63.7943459  15.3353271   3.3941150  17.7907410  64.4060440
   3.6001430  18.7218628  64.3236008   4.0201273  17.3548107  63.8278503
  66.7797623  60.3030205  27.8902988  65.9414444  59.9099464  27.6474857
  66.7161331  61.2088966  27.5876904  25.9713669  59.6006546  88.2613754
  25.8602695  59.3799706  87.3366089  26.7533398  59.1185875  88.5303802
  79.6228027   8.5268793  13.4881535  80.4701157   8.2912836  13.1102839
  79.7765274   9.3704224  13.9136372  76.9304733  46.2585487   4.1378098
  76.0029602  46.1539955   3.9256516  77.3796387  45.6437378   3.5577314
  16.9034653  15.4318466  62.8808289  17.6449852  15.9748421  63.1482849
  17.2580891  14.5435266  62.8439293  26.6902084   2.6082201   1.9444844
  26.9071350   2.3117986   1.0605671  25.8329086   3.0242381   1.8539482
  38.0052414  65.1919250  52.2651672  38.3412170  64.5723877  52.9128799
  37.5082130  64.6509247  51.6515617  76.5827255  71.6784668  86.7599869
  76.6227798  71.1113968  87.5300903  76.0007858  71.2192688  86.1544189
  64.0238876  19.7543488   0.8348281  64.4786758  20.5544262   0.5716283
  64.6922379  19.2349052   1.2817249   3.0926924  63.7464294  41.6661263
   2.5583866  64.0926437  40.9513626   3.7140114  64.4477081  41.8621025
  35.4683228  53.8775024  44.8780060  35.0577583  53.2561302  45.4793091
  34.8485603  54.6050758  44.8254242  77.7055664  49.7555313  30.0639400
  78.4577713  50.2249870  29.7033405  77.1068649  50.4456978  30.3493481
  34.8605537   4.7417817  72.2540970  35.0544853   5.4772267  71.6729431
  34.0819397   5.0175672  72.7377701  30.6638336  63.2434883  77.9559708
  31.3816929  63.8307114  77.7191544  31.0930214  62.4970131  78.3740692
  85.8160782   8.7027836  79.5460434  85.3459091   8.2409887  78.8518448
  85.6917496   9.6300468  79.3436737   6.2903075  55.1577835   3.8715253
   6.0843415  55.6169243   4.6857748   5.7369785  54.3769493   3.8902962
  44.9192047  23.7704678  63.8188896  45.7266846  23.5517292  64.2840347
  44.2260437  23.3612957  64.3368988  24.6906815  64.4518738  15.4093533
  24.9352779  64.7989120  16.2672386  25.5159721  64.1524658  15.0279322
  86.6928864  70.9476624  38.0842400  86.3257675  70.0737762  37.9509087
  86.3888245  71.4527893  37.3301697  50.0240822  23.0022221  61.6345215
  49.0787201  23.1268291  61.7181816  50.1266747  22.4707108  60.8450890
  48.5365524  15.7450829  68.4146957  48.7371864  15.9031601  69.3371811
  49.3923912  15.6577501  67.9949951  51.5230560  50.6751366  19.0421371
  50.8390694  51.1547928  18.5748844  52.3404541  51.0796318  18.7514858
   9.9677696  24.9296169  83.2657318  10.2288475  25.8251190  83.0509186
  10.0550642  24.8764572  84.2174606  85.6595078  37.6460724  62.4180679
  85.0032959  37.6109428  61.7220879  85.1503296  37.7447433  63.2225761
  54.7573280  39.7157555  36.9878502  54.5452499  40.2302055  37.7666893
  55.6229973  40.0271721  36.7235107  35.1516304  64.7375870  30.9964027
  35.6569633  65.4632416  31.3628693  35.2465820  64.8340759  30.0488243
  78.8463287  24.6549911  36.2862701  77.9348221  24.3658810  36.3286743
  78.9084167  25.3485680  36.9430275  60.3603287  66.7690887  47.8002052
  59.7338562  67.4284439  48.0985489  60.9352303  67.2404327  47.1972504
  79.2444687   3.8213704  72.9107590  78.8806229   2.9374695  72.8601074
  78.8837814   4.2729430  72.1477280  62.9260101  56.1780090   6.2118645
  62.0994377  56.2239227   6.6923885  62.8551903  56.8634071   5.5474529
  43.4542389  19.5743313   6.8424602  42.8499260  20.1321468   7.3322372
  43.3411980  18.7044678   7.2255955   1.0635304  14.4251108   8.8589382
   0.2988932  13.9427271   9.1733713   0.9781749  15.2929564   9.2536411
  65.2910614  44.9316483  53.9199600  64.9307404  44.0605240  53.7539902
  66.0264282  44.7776642  54.5130501  49.7267799   1.7964958  62.0365105
  49.7429733   2.6775918  62.4101944  49.7543678   1.9371710  61.0901070
  82.0600357  15.1842442   6.0829711  82.4676056  15.6814775   5.3738289
  81.9408035  15.8231316   6.7857070  12.0697193   4.1128473  79.5502243
  11.4135361   4.7127914  79.9047928  12.8334246   4.6650343  79.3826599
  69.2628632  29.2680855  42.7936134  68.9423065  29.7493172  43.5564308
  69.9724884  28.7237167  43.1346893  71.3464737   9.2685194   9.0787811
  72.2628555   9.5126171   8.9488468  70.9222336   9.4792099   8.2469978
  63.0686760  54.0278015  58.9932594  63.3866806  54.8134308  58.5484047
  63.5926971  53.3159256  58.6260223   4.2639380  18.3779316  28.0616150
   3.3569915  18.2250690  27.7964478   4.7711473  17.7406464  27.5587845
  51.6652489  44.3302345  38.5831261  51.4632149  44.1014290  39.4903526
  52.5181046  43.9278793  38.4188728  17.5545349  30.2475052  57.0864677
  17.0777378  30.9070129  57.5903969  18.2515507  29.9550686  57.6737328
  23.4035568  10.7402353   4.9334984  23.9662266   9.9908018   5.1283903
  23.9609661  11.5037355   5.0838122  20.3395481  51.1665993  64.2594986
  20.1860313  50.5392876  64.9660034  21.2839642  51.1301994  64.1078873
   1.0185692   1.5524139  22.4131737   0.4243003   2.2953994  22.3080597
   1.8124074   1.8126875  21.9459362  85.6968384  60.2934952   9.6075773
  85.7900314  60.2575989  10.5595531  86.5606537  60.0522881   9.2730951
  65.6491928  28.6394825  12.6333961  64.8734207  28.8127975  12.1001348
  65.8821945  27.7336388  12.4299479  57.8579483  56.5122719  36.1911583
  58.5846634  56.9009933  36.6779938  57.1548920  56.4298935  36.8354874
   7.1690712  66.4349823  79.8996429   6.5551677  65.7301788  79.6932144
   6.6572895  67.0532913  80.4211884  81.9976044  17.1273556  70.5781403
  81.8806839  16.4470043  71.2412262  82.8565979  17.5036201  70.7699203
  52.3678589  64.9677582  76.3668747  52.4673347  64.6280746  77.2562256
  51.8861847  64.2837677  75.9017105  74.1585083  50.8741570  82.2230682
  74.1856079  51.6287842  81.6348190  73.3880157  51.0248871  82.7706680
  64.2227707  44.5187683  45.3708649  63.8757706  45.1048965  46.0433807
  64.8262711  45.0640068  44.8661537  58.5042076  32.6521912  86.5155182
  58.0151939  32.6857185  85.6933441  58.7873764  31.7407722  86.5887756
  27.4629345  17.6905079  78.4699020  27.6020622  17.2868443  79.3265991
  26.8734741  18.4243526  78.6437988  56.5559273  69.6539383  16.2686005
  56.8949089  70.3942566  16.7718487  55.7492371  69.9830933  15.8721981
   3.1326013  42.2017708   2.8070741   3.5119994  43.0762749   2.7202935
   3.5361764  41.8429489   3.5973940  35.2908821  36.7676888   0.4881734
  36.1878929  36.7350159   0.8206505  34.7438507  36.7586899   1.2736068
  70.5568085  63.3521461  22.4160309  70.9823914  63.8649635  21.7289162
  70.3210983  62.5285416  21.9890079  74.1537781  46.5375786   3.4661357
  73.8162537  45.9411392   4.1343932  73.4971542  47.2318802   3.4111030
  45.6672554  34.7744217  80.9214020  44.9368172  35.3879814  80.8424454
  45.9845924  34.6632233  80.0252075  51.6429482  40.4392815  27.9026337
  51.6221733  39.5896111  27.4623394  51.1242485  41.0136681  27.3393707
  10.5124912  36.0481720  19.9240761  10.7122364  35.1444397  20.1681995
   9.7029924  35.9859772  19.4170494  61.7481651  63.4999123  25.8567619
  61.3766632  63.8212471  25.0352001  62.2801666  64.2271805  26.1797028
  18.7083302  49.6308861  43.3926468  17.9370613  49.1425018  43.1048012
  18.8048477  49.4029274  44.3172798  17.2381172  55.2387886  15.9197216
  17.0613136  56.1192856  15.5885172  16.5987682  54.6825981  15.4746122
  85.4690781  70.4700775   5.6512299  84.6824951  70.8834457   6.0070987
  85.6355438  70.9371033   4.8324480  59.1124687  39.9272232  85.4817200
  59.0329018  38.9954987  85.6861496  59.2558823  40.3471260  86.3298645
   3.3205030   6.9632330   6.0461693   3.9834745   6.3031435   6.2486124
   3.7916656   7.7955556   6.0845962  52.3877869   2.1168919   4.5238075
  52.5574036   3.0557997   4.6007152  52.7204933   1.7456762   5.3409605
   1.0273817  28.4942932   6.2336888   1.3174150  29.4055214   6.2758298
   0.8847439  28.3312149   5.3013301  53.0980225   4.4290824  72.0101395
  52.2847176   4.0368834  71.6924133  52.8287125   4.9717116  72.7512589
   8.0337830  58.9362221  17.4754143   8.3255606  58.0408325  17.3040066
   8.8117924  59.4740067  17.3280392  20.0841446  64.8445587   0.9807172
  20.2756367  64.9147873   0.0455001  19.4063702  65.5022812   1.1364683
  72.2012329  68.5315094  58.7664337  72.3193054  69.4525681  58.5341873
  73.0557632  68.2569122  59.0990105  80.2210007  32.3157501  20.1666794
  80.7026596  31.6962433  20.7148075  80.5613022  32.1694756  19.2840538
  62.5333328  50.7753601  80.2856674  62.2547073  50.2132301  79.5627518
  63.3507118  51.1696053  79.9812088  45.6832848  65.6015015  78.0551071
  45.2505112  65.7744141  77.2190170  46.1166840  64.7572098  77.9303665
   5.3049040   5.7075729  34.7075539   4.5169291   5.8924150  34.1965141
   5.1089411   4.8882213  35.1619682  20.2284660  10.4045267  14.6369495
  20.1598816  11.1030178  13.9860754  19.3248062  10.1260633  14.7855701
  72.5532150  52.6258316   5.7825680  71.8569565  52.5650139   5.1285377
  72.1015396  52.8659859   6.5916090   0.6962070  33.9648209   0.9415892
  -0.2349925  33.9984894   0.7225787   0.8490233  33.0555916   1.1988542
  10.1173716  18.0299664  33.7990494  10.6130457  18.2738895  34.5807419
   9.2096462  17.9764576  34.0980530  37.7665138  29.0324574   7.3219028
  37.0158234  29.6228447   7.3862276  37.4179916  28.2469120   6.9003773
  45.8747978  54.7333031  72.8374176  46.7867775  54.7274132  72.5467453
  45.4357986  54.1073685  72.2614670  45.6962318   5.5547471  87.3967667
  45.5598717   4.6094375  87.4602356  46.1366730   5.7885942  88.2138138
  32.3785400  54.6224213  47.7917023  32.2739716  54.9301109  48.6920509
  33.1951675  55.0238647  47.4947243  73.7398758  64.9937592   6.8315430
  74.6412125  65.2273331   6.6095943  73.2421112  65.7991104   6.6905913
  86.4554443   7.4431276  37.6533966  87.2869415   7.0110307  37.4581184
  86.0880508   7.6545749  36.7951736  84.5337067  12.6184158   1.3714427
  84.2111435  11.7686405   1.6715515  83.7499313  13.0809689   1.0748410
  66.2230225  67.5303268  67.5508728  65.3778534  67.7941513  67.1871262
  66.0825348  66.6346741  67.8579559  70.9679794   8.4970112  76.6838074
  70.8568497   8.2495117  75.7658615  71.2376709   9.4149294  76.6534195
  39.7861938  19.4292297  11.8965368  40.4814453  19.8411732  11.3835478
  39.0493164  20.0368195  11.8326683  36.3277702  43.1060295  43.0659943
  36.7702599  43.5301476  43.8012238  36.0380287  43.8300247  42.5109138
  78.8513947  38.8576851  40.2957840  78.8775711  39.6079025  40.8896904
  78.7957993  39.2454376  39.4224091  32.0598831  22.1869240   0.2326889
  31.2579460  21.6764832   0.1205281  32.5743484  21.6883202   0.8674719
  83.9871826  48.3300552  18.8078194  84.7462616  48.8998795  18.6840038
  83.9318771  47.8251114  17.9965210  17.9204922  47.0589943  65.6418304
  17.7712650  47.1059074  64.6975021  17.8974247  47.9703751  65.9335251
  72.7747726   0.2707033  30.3913097  72.3305054   0.9713938  30.8686848
  72.1044540  -0.4027468  30.2757053  54.9107437   3.2591405  47.4481850
  54.9744072   3.2431564  46.4932404  55.8153381   3.3520951  47.7470131
  36.6171608  60.9869728  15.6459713  36.2087784  61.4710312  16.3637085
  36.1707916  61.3021049  14.8600454  52.6074677  29.3552608  15.9249649
  52.1632271  29.5286617  15.0950174  53.4640503  29.0117874  15.6709423
   3.1007805  57.6772957  33.7801208   3.7425058  57.0177841  33.5165558
   2.4643276  57.1947861  34.3077049  32.4299431  70.5303574  45.8742905
  32.8680992  70.0378799  45.1802254  32.5166512  69.9780350  46.6512413
  74.0671616  14.3538990  55.1859436  74.3626099  14.3557682  54.2754822
  74.8444824  14.5935822  55.6904793  65.0408859  10.6174908  37.6261826
  64.7856445  11.5393305  37.5902061  65.9772415  10.6202993  37.4275131
   0.4556268  12.1283178  81.6953659   0.2111831  12.9166088  82.1802139
  -0.3761309  11.6898355  81.5160751  80.3971481  57.2255173  84.4153442
  79.5143661  57.4403954  84.7165985  80.2821579  56.4439621  83.8748093
   7.8835845  38.6013756  21.9631577   7.5196829  37.9510765  22.5639267
   7.3403072  38.5326462  21.1780739  79.5116653  67.9243011  51.8132553
  78.5835266  67.7244568  51.9351616  79.6640320  68.6963043  52.3582497
   1.2149924  30.4449863  49.2409363   2.0830622  30.6838226  48.9159088
   1.0584176  29.5702019  48.8853111   4.2718096  64.2590485  36.0699997
   4.1638203  64.9170914  36.7566872   3.4066648  63.8586426  35.9837837
  47.7534866  41.9772720  17.0049648  48.1832390  42.5013123  17.6809292
  47.8643837  42.4853897  16.2013798  47.0603943  60.1509171  29.1542091
  46.4619026  59.8048363  28.4921894  47.6494102  59.4220009  29.3490715
   0.6938720  28.5573006  88.8273468   0.8317161  28.0036907  89.5959473
   1.3683053  28.2790680  88.2077026  28.0218048  46.9630280  26.3296089
  28.2744408  47.5568619  27.0365524  27.0674801  46.9153519  26.3864002
   9.7026892  55.4817352  12.7769041   8.9666853  55.9629822  12.3988438
   9.7613249  55.8021126  13.6769876  69.2742081   1.8509862   3.1505785
  69.3621902   1.3429096   2.3441365  68.5927963   2.4942336   2.9552619
  65.0505447  63.8807297  88.7050247  64.9037628  63.9786758  87.7642365
  64.8607864  62.9594460  88.8824081  81.8955002  41.1460991  26.2823772
  81.0772552  40.6495399  26.2940388  82.0616226  41.3556328  27.2014694
  39.4751892  27.1926517  69.9569931  39.1887054  26.7182121  70.7374191
  38.7357826  27.7589607  69.7360687  70.2575073  15.3812704   2.2876332
  69.3516235  15.1008101   2.4178126  70.4371109  15.9618540   3.0271573
  76.9159851  48.6756744  62.2724571  77.4874115  48.8613243  61.5273094
  76.2216339  49.3316727  62.2110901   2.4475360  38.8627319  70.4319687
   2.4683490  39.7597504  70.7653656   1.5632069  38.7581596  70.0808868
  68.0630417  42.4288902  12.3972359  68.6555405  42.8185005  11.7542896
  67.6577606  43.1779060  12.8342142  79.1446838   2.7484078  22.6626167
  80.0359802   2.5408196  22.3820362  78.6354065   1.9696521  22.4380970
   6.0358696  10.0389452  62.1957016   5.4879007   9.8071384  61.4458809
   6.8993325   9.6871004  61.9792099  55.8895874  53.9556847  42.4125023
  55.1419411  54.5085564  42.1853676  55.6524353  53.5660362  43.2540283
  12.4528437  60.2522545   6.9777455  12.0371962  61.0368118   7.3354268
  12.2077379  59.5536041   7.5844126  38.7215919   3.1538785   1.5976976
  38.9544106   2.4533610   0.9883505  38.3842010   3.8545129   1.0395659
  14.0785093  65.6837769  45.9218979  14.5293837  66.4936752  45.6831360
  14.7551985  65.0087585  45.8702316  20.6108856  40.6813469  24.0904961
  21.5024872  40.8586960  24.3902016  20.1979141  40.2254448  24.8238716
   3.2496574   6.1886206  32.6986847   3.5606694   6.9985800  32.2943687
   3.6291108   5.4922786  32.1626282  12.4254227   7.6593151  32.9324989
  12.1289721   7.5664206  32.0271149  11.8055487   8.2736588  33.3256531
  79.2864838  71.0342712  71.6431961  79.7189865  70.2143936  71.8818817
  79.7246628  71.6995468  72.1738968  24.2699757  11.9207792  61.2943611
  23.5800343  12.3172436  61.8263626  24.5760746  11.1776218  61.8142166
  37.7890129  66.0268707  73.7858658  36.8918610  65.7470245  73.9676361
  38.0991745  65.4169769  73.1164856  73.0137634  53.3803024  52.7694817
  72.9033356  52.8445053  51.9840164  73.8356018  53.0752754  53.1538925
  73.1030884  51.7386169  78.8758087  72.9857864  52.3754005  79.5807800
  72.9100800  52.2282028  78.0762558  54.1755638   9.5077085   5.9659910
  55.1236572   9.6274910   6.0207763  53.8451958  10.3506927   5.6554017
  12.3806496  26.4298344  74.9278946  13.1444712  25.8734093  74.7755814
  12.5378704  26.8226490  75.7865067  28.7011108  42.6247711  24.5190277
  28.7512932  42.2034531  23.6610050  29.5133629  43.1265831  24.5873241
  29.5202026  69.5846100  39.0346184  28.7344379  70.0179977  39.3677483
  30.1893806  70.2690277  39.0344162  63.2642746   4.9291782  10.3846769
  63.3858032   4.5979481   9.4948740  62.4261246   5.3906102  10.3560867
  31.7061405  56.6532593  57.3339615  32.5752716  57.0406685  57.2302399
  31.1828365  57.3442268  57.7401047  74.3507767  44.7840652  39.0137558
  73.5149384  44.3296089  39.1190376  74.1278915  45.5909004  38.5494576
   3.1968572  15.1552963  53.0979538   3.2048457  15.1112118  52.1418037
   2.2805567  15.0149393  53.3365440  65.6715164  39.9933777   1.4459097
  64.7709503  40.0437012   1.1254692  65.7791672  40.7789078   1.9821832
  37.5322647  32.8388672  78.9495621  37.8451881  32.3153687  79.6872940
  36.7599373  33.2919426  79.2878952  36.4637642  56.0034790  86.5785141
  36.3787079  56.0137177  85.6251526  37.1257057  55.3343697  86.7527466
  20.4123268  61.5602646  45.8830910  20.2659340  61.7795219  44.9629135
  20.8364849  60.7024727  45.8603668   8.9352808  44.4575386  29.1797276
   8.3105421  44.6370163  29.8823814   8.7065287  43.5796928  28.8742924
  66.1258011  23.1235409  19.4558220  65.3733292  23.5466328  19.0422935
  66.0995102  23.4231033  20.3645573  70.7613983  60.9340897  21.0162296
  71.1920547  61.5324707  20.4057350  71.4628906  60.6377754  21.5961761
   1.8312039   8.0163307  35.2518196   1.3900188   7.4501953  34.6185112
   2.0484357   7.4359355  35.9813309  47.6425362   1.0861926  56.7563782
  47.2087936   0.8378221  55.9400368  47.4306374   2.0129652  56.8678360
  84.2428513  43.3219757  35.6901169  83.8651352  43.6734314  36.4963684
  85.1656876  43.5732346  35.7285690  28.4658852   3.8296413   6.9955144
  28.3632030   3.1468058   6.3326240  28.2572422   3.3943405   7.8220816
  28.8870678   0.8680463  52.8799362  29.1435375   0.4199925  53.6859779
  28.4635372   1.6731179  53.1777840   3.6105914  61.2485504  86.7965622
   3.5217092  60.5144997  87.4044266   4.3798957  61.0316200  86.2699280
   8.5586414  30.5074577  84.0289917   7.6587000  30.7771835  84.2122574
   8.6747122  29.7021561  84.5332260  77.9530945  23.6354923  49.3067932
  77.8089752  24.5266285  49.6251335  77.9773636  23.0990810  50.0991974
  72.9766617  51.6351547  50.6410675  73.4852600  51.9890938  49.9114914
  73.3935394  50.7965622  50.8390923  52.6679039  46.8057556  32.1950340
  51.8203239  47.2350121  32.0785255  53.2467499  47.2456169  31.5723877
  74.6785660  23.5959148  45.8842850  73.7400742  23.7369709  45.7595634
  74.8272629  22.6979542  45.5879898  70.7975845  41.3770370  20.9832745
  71.3115768  40.9024086  20.3299999  69.9847412  40.8770866  21.0579109
  49.8525696  44.2695618  62.5159798  49.1140518  43.7772903  62.1575203
  50.2339821  44.7142792  61.7590218   4.1327910  11.2908916  79.7142029
   3.6745176  10.8144455  80.4064560   3.8649192  10.8546076  78.9054184
   2.3297782   3.2747519  76.0486832   2.0828762   4.1890864  76.1874771
   3.1654046   3.3201921  75.5840378   4.0641122  69.5190735   5.0360198
   3.9408317  70.3797684   5.4363179   4.7445011  69.6566849   4.3769550
  56.0715218   2.6469419  50.6197395  55.8422585   3.5387099  50.8813171
  55.2464828   2.2659340  50.3191109  65.0302048  52.3590736  58.1798286
  65.9494324  52.3878479  57.9144630  64.8420639  51.4271507  58.2909927
  40.2455826  43.9716759  60.7813377  40.0552216  44.8709679  61.0482903
  39.7077293  43.4311371  61.3599243  16.3791199   1.3577836  42.5306969
  16.5341244   1.7963274  43.3672867  15.7658272   1.9304496  42.0700912
   1.4178873  60.2263260   3.7111363   0.6917019  60.0134544   3.1249859
   2.1463604  60.4317284   3.1251597   1.0691524  30.7622414  18.5277786
   0.3392947  30.7893944  19.1464882   1.8412659  30.6165428  19.0744457
  12.7999716   2.7336566  86.8147736  12.0349302   3.1130247  87.2472305
  12.6008720   1.7995062  86.7518921  15.6064539  42.3848763  41.8780403
  15.9684343  42.1100464  41.0356216  14.7777319  41.9110985  41.9486580
  64.7656403  15.0726395  74.9859238  63.8737450  14.8808107  75.2756653
  65.2193298  15.3568840  75.7794037  76.8124313  13.0956450  83.9235306
  77.7116394  13.4038715  84.0360184  76.7365494  12.3540802  84.5239944
  19.4624062  49.9161224  74.8935852  19.7058296  48.9969292  74.7837524
  19.7140236  50.1246758  75.7932663  32.2677231  65.7705154  32.0891800
  32.9721718  65.4128189  31.5487690  32.1798897  65.1479797  32.8109627
  68.6895065  56.4022293   2.5387194  68.3496857  55.8791504   3.2647622
  69.2185516  57.0802269   2.9590356  28.1068306  23.2070217  14.4478636
  27.2779274  23.2315121  13.9697952  27.9191017  23.6495876  15.2755871
  73.7558517  10.7943935  29.7303467  73.9444962  11.0011501  28.8149796
  73.8518906  11.6289854  30.1891098  44.3479195  38.7446365  75.8949203
  44.9414253  38.0280457  76.1196060  44.1318626  39.1490746  76.7351456
  75.5631256   4.4729486  62.6908112  76.4300079   4.4954767  62.2855453
  75.7298813   4.2216268  63.5992508  52.6190948  69.1301193  69.6677475
  52.4062042  69.5281525  70.5118332  52.4892578  68.1918716  69.8058243
  49.6295052  49.4380264  69.4271851  50.1536484  48.6463470  69.3057404
  48.7255783  49.1479454  69.3047104   3.5119452  64.9097290  77.1246719
   4.4459486  65.0750504  77.2532730   3.1013138  65.2130280  77.9343796
  80.8684158  61.2260780  36.2499161  80.6914825  60.6724854  37.0104828
  81.1614838  62.0578461  36.6220779  73.7418747  44.3868294  19.1883621
  74.1666870  43.5408440  19.3300705  73.0515976  44.4221268  19.8505573
  58.5873299  20.5963402  32.9999390  59.4741135  20.5880909  33.3601875
  58.2850533  19.6922951  33.0869217  32.3350258  53.9785423  74.6481323
  31.7707195  54.7452354  74.5482864  32.0721626  53.5950012  75.4848099
  66.6947250  18.5135460  18.5607224  66.1496201  19.2938709  18.6616688
  66.0695953  17.7918797  18.4925480   9.4196548  57.0295067  51.7487907
   8.4833765  57.2273979  51.7700844   9.7545691  57.3661308  52.5799026
  19.6936798  18.2296677  88.3882523  20.1913776  17.7916737  89.0786819
  20.2040615  18.0788898  87.5926361  12.8594332   0.1344287  70.9508209
  13.3695145   0.9364284  71.0641556  13.4772005  -0.5713359  71.1418457
  72.1241913  13.9713945  46.0487022  71.6892776  14.8002625  45.8485413
  72.8811951  14.2200880  46.5790977   5.8047810  38.0116692  74.1879959
   5.4127498  37.9424171  73.3175125   5.9213948  37.1047249  74.4710007
   5.0849037  20.0913563  67.6883011   4.2632699  19.7880840  67.3020706
   4.8242645  20.7918396  68.2863159  62.2773819  14.0442419   3.1965108
  61.5971413  13.9624100   3.8649476  61.8844070  14.5973587   2.5213320
  29.0702763  52.5618629  37.5191154  28.4954224  53.2735329  37.2375183
  28.6097660  52.1590118  38.2552376  53.9066162  40.5667381  61.0418282
  54.5268021  41.2915001  61.1213379  53.5474243  40.4611320  61.9227715
  39.3641243  43.7039719  72.7184753  39.2991638  44.0435677  73.6110535
  39.4283066  42.7551460  72.8272934  27.9025383  58.8680038  61.7612419
  27.9572906  58.0361099  61.2909355  28.7937489  59.2163620  61.7362823
  75.5317688   3.1816690  23.8905983  75.1190720   3.7164834  23.2124500
  74.9043503   3.1854773  24.6134892  64.8031464   1.7217762  57.8975868
  64.2016602   1.5678773  58.6261177  64.4363403   1.2151294  57.1730232
  83.1527786  46.9249077  73.5966492  83.7999802  46.2202682  73.6257248
  82.3122101  46.4832001  73.7173386  33.4299202   2.7543874  13.4573460
  32.5067062   3.0071783  13.4580612  33.6389313   2.6134028  12.5339451
  82.5206223  49.5544548  73.4004974  82.5532227  48.6159363  73.2151642
  83.4214401  49.8541565  73.2782745  48.7907486  57.8359871   3.5958202
  49.6747971  57.5311508   3.8001876  48.5133591  58.3094330   4.3801274
  79.6016235  56.2115631  34.1862869  78.8793640  56.5848427  33.6810760
  80.3880234  56.5994263  33.8023987  81.9018173   5.8119841  48.5425758
  82.8495255   5.8284039  48.4091034  81.5611496   6.4546895  47.9203987
  76.7677765  65.3019943  89.3421249  76.1498642  64.5828629  89.4735413
  77.0422287  65.2181015  88.4289627  65.7430496  68.0710907  17.2004166
  65.9927139  67.9944229  18.1212978  64.8249893  67.8010941  17.1778793
  67.0796356  23.0446472  72.7155991  67.4560089  23.7680588  72.2143478
  66.8247452  23.4384708  73.5499649  62.1920433  26.8713188  64.6270294
  61.4841461  26.8290138  65.2699356  62.9002075  26.3583832  65.0164337
  42.5529747  18.0600758  87.4734650  42.7192383  17.1530533  87.7301712
  41.5997849  18.1200771  87.4097519  75.5545044  50.7105980  77.3693542
  74.8664856  50.3484650  77.9276733  75.2397614  50.5659294  76.4770279
  84.0176392  66.5450363  52.3174477  84.8288193  67.0525894  52.2928619
  83.9840393  66.1900635  53.2057610  65.2479172  24.8200989  86.0834351
  64.4400787  24.3347034  86.2508163  65.2575226  25.5064659  86.7505493
   1.4864204  19.3234577  26.7799377   1.3318226  18.8400364  27.5915012
   1.7206668  20.2058258  27.0676651  81.9366379  68.5632401  72.5793304
  81.6226501  68.4651031  73.4782257  82.0033951  69.5094299  72.4509048
  14.2332783  49.0665817  33.5824509  14.4710522  49.9879570  33.4787254
  13.3201370  49.0214882  33.2989502  67.3375473  20.8371639  54.0413818
  68.2733002  20.6852131  53.9090195  66.9087601  20.1518040  53.5288849
  28.0005608  55.6087570  88.2872314  27.9251461  55.4549446  87.3454819
  28.0317669  56.5616379  88.3725433  40.6442261   3.9178543  70.7742996
  40.0539169   3.6113145  70.0859680  40.1877289   4.6615734  71.1676483
  68.8199158  63.4172592  35.5727577  68.0780258  63.4800644  34.9711914
  69.5387650  63.8505096  35.1125641  67.9375992  55.9490700  30.2319164
  68.7490845  56.3851738  29.9720325  67.2452393  56.5567513  29.9719257
  12.4897165  34.2522545  51.6262779  12.1925697  34.3011856  50.7176857
  13.0434656  35.0248222  51.7391129  53.9517937  28.2497368  79.2732773
  53.8342972  27.3179550  79.0883179  54.8490486  28.4373474  78.9976501
   0.5735261  48.1570129  22.2614861  -0.2540812  47.6919594  22.1389141
   1.0995181  47.5706139  22.8052692  50.6455994  64.0771713  28.1130257
  50.1312408  63.3725700  28.5069904  50.1683578  64.3047943  27.3151188
  30.2909145  61.6741180  72.6441879  30.8068333  61.0305634  73.1298828
  29.3820515  61.4109001  72.7888107  85.8893585   8.7767057  47.8117180
  86.5400085   8.2604160  48.2874718  85.0540085   8.5385790  48.2138481
  65.6480789  31.3678207  53.9584312  65.2838974  30.9369812  54.7317276
  65.0008087  32.0344849  53.7285614   3.1064878  24.1561127  80.8471527
   3.3814330  23.8009071  80.0018921   3.9224293  24.4174595  81.2739716
  84.5746994  62.3054466  43.4341164  84.0672760  61.5105934  43.2699318
  85.4051361  62.1571770  42.9817543  20.7582397  39.5617065  83.7985153
  20.0624809  39.7003021  83.1559067  20.6609516  40.2859116  84.4168091
  29.2567081  47.0149994   2.7655416  28.7143288  46.6013222   2.0940297
  28.8335648  47.8577843   2.9295387  35.7668610   3.0627301  15.4144659
  36.4280548   3.7548232  15.4222212  35.4510918   3.0432670  14.5110598
  26.6164322  31.5126572  12.5691490  25.9838428  31.7594280  13.2438087
  27.3494740  32.1148987  12.6963816  46.4974289   2.3693886  41.2995682
  46.0228500   3.1710176  41.0795746  46.7750931   2.0158610  40.4544907
   9.3109493  40.3213158  53.0533562   9.7024260  40.3818283  53.9247437
   9.9021645  39.7489395  52.5643997  48.9844398  67.5984421  88.8511810
  48.3879395  66.8539505  88.9296570  48.5183296  68.3236847  89.2671127
  80.9742737  34.6204185  22.9369621  81.4978409  34.3766327  22.1736298
  80.7910995  33.7902298  23.3768044  33.5864716  38.4410591  79.8639755
  33.2741508  38.2459984  78.9804306  34.3098412  39.0539742  79.7324371
  64.5563583  35.9154892  38.9410934  64.1901245  35.5756989  39.7575760
  65.4790955  36.0740700  39.1401939  55.4105568  50.2971077  37.4888611
  55.9718628  51.0712891  37.4462433  54.8350334  50.3763733  36.7281227
  73.8504486   1.2726513  51.9042473  73.4859467   2.1150215  51.6326103
  73.1743317   0.8877566  52.4618874  63.0951805  15.8409920   9.0441933
  63.3926582  15.6271143   9.9284992  62.1548347  15.9931984   9.1380777
  15.1457911  49.0357437   0.8435652  14.9348536  48.7293854  -0.0384110
  15.6220646  49.8544350   0.7052214  80.7207794  68.4918976  64.4357605
  79.8918762  68.3846283  63.9692345  80.4648285  68.7189941  65.3297195
   1.2994636  13.4783325  67.2978592   2.1753695  13.7595081  67.5623627
   0.8150532  13.3989611  68.1196136  46.8185272  42.8812561  44.4463844
  46.8276787  43.5240860  45.1555519  46.0208015  42.3732185  44.5939102
  67.8593292  66.0619202  37.7296028  68.0079193  65.1272736  37.8730850
  67.6629868  66.1325836  36.7954254   5.8046050  11.8174181  84.6123047
   4.9432840  11.4122505  84.5113220   6.2155275  11.7239037  83.7528687
  34.5327072  31.1045170  86.8098984  34.4370308  30.2691021  86.3525620
  34.4171219  30.8859558  87.7346191  55.6785431  25.8123112  55.2416039
  55.0980034  25.1236572  54.9176254  55.6010780  25.7623024  56.1943512
  59.7538414  42.0827675   7.0191150  59.9318657  42.7713509   7.6597300
  60.4820251  42.1373177   6.4002419  70.4658890  59.3956795  51.2477341
  69.9412460  58.8240089  51.8082428  70.0228271  60.2431946  51.2883949
  66.8135147  31.0462418  69.3286285  67.6605759  31.2019806  69.7463150
  66.1896744  31.0212898  70.0541840  53.4559174  39.2370148  72.4273224
  53.9229050  38.4384918  72.1813126  54.0415192  39.6766739  73.0437622
  85.7993622  64.4444199  59.7806129  85.8255997  63.6715126  59.2165565
  84.8976517  64.4772568  60.1001129  65.4526215  61.2452583  74.1920700
  65.2344437  60.6110687  74.8750229  64.6174240  61.6586151  73.9734116
  50.6735077  47.3422241  36.7209358  51.1329536  48.1511993  36.9461060
  51.2743912  46.8802910  36.1363106  22.3376045  37.4318733  19.6703434
  22.3848476  37.9238319  20.4900856  21.4354324  37.5486832  19.3725605
   3.2512891  26.1528206  39.3744507   2.9014528  25.8956947  40.2275200
   2.4980700  26.1138382  38.7850647  68.9184036  12.8026056  48.3425140
  69.7164154  12.3047543  48.5201187  68.9771423  13.0258751  47.4135704
   8.2924089  26.3814087  87.4426575   8.3702517  26.7789726  88.3098984
   9.0520067  25.8028679  87.3753357  20.3815041  48.4018440  87.1973267
  19.4439907  48.4211807  87.3894882  20.7768688  48.9459343  87.8784180
   6.9049411  61.6504669  55.5723419   6.9553266  62.4947281  55.1241074
   6.5136580  61.8533783  56.4220238  14.2754641  50.1029930  10.2919712
  14.1692810  50.1764145   9.3435163  15.1533680  50.4445457  10.4618473
  32.9140282  44.1497803   5.9586744  32.7008896  44.3725624   6.8648586
  32.3894653  43.3707428   5.7738228  16.0008087  51.6280212  40.7541161
  16.6494980  51.7685089  41.4438248  15.2315845  51.2914696  41.2137451
   7.7268343  52.0509109  27.5771675   8.5277739  52.0140533  28.1000137
   7.8517871  51.3856544  26.9003735   8.4419603  67.6865921  49.9475594
   7.6465368  67.8334045  49.4357185   9.1125870  67.4841995  49.2952309
  84.4533463  20.1968765  70.3622665  84.7584152  20.7438602  71.0861282
  84.4148788  19.3136292  70.7291794  77.9273682  62.8991089  56.1868820
  78.4113922  62.7109756  56.9909706  78.0995026  62.1458473  55.6219063
  15.1865301  46.0485268  22.0381374  15.1829138  45.6507912  21.1674900
  14.8420649  45.3663597  22.6145229  83.6171188  23.9700489  58.9091415
  83.5631561  24.6076965  58.1972961  84.4785538  23.5661602  58.8041191
  63.2603798  63.9060516  11.0153551  63.3825378  63.5788422  10.1241522
  62.3120079  63.8998566  11.1448832  13.7156878  45.6368446  72.5326614
  13.2242432  45.8356781  71.7356796  14.6043739  45.9408722  72.3481827
  53.9108658  33.1517715  65.7758255  54.0885811  34.0667267  65.5578766
  53.0536919  32.9753265  65.3880768  67.6545715  39.9562874  87.6741028
  67.4098511  40.7606125  88.1317062  67.4784393  40.1423683  86.7518311
  20.0042152  12.9701929  13.5883045  20.8452377  13.4027872  13.4407406
  19.3954659  13.6859760  13.7708158  75.5808182  14.7658634  32.8414612
  74.8160858  15.2649479  33.1283951  75.9784164  14.4493675  33.6526260
   1.0382677  70.1907425  19.6845264   1.0466558  71.0968170  19.3759995
   1.9259630  70.0401154  20.0093975  17.5790310  33.5044365  77.9359970
  17.6083450  32.5546494  77.8207855  16.6812744  33.6842461  78.2151718
  27.4640198   0.2593619   5.1790667  27.4746017   0.9744671   4.5428715
  26.9959106  -0.4483814   4.7361159  57.1157684  33.9932747  54.5227356
  56.7673950  34.3402176  53.7014580  57.7841072  34.6260490  54.7857018
   9.2390881  27.2601585   2.8563449   9.4929342  26.3913937   2.5448298
   9.7785168  27.8645077   2.3464339  21.5300102  44.5297699   6.2546964
  21.7200241  44.4217720   7.1866107  20.6346664  44.8674088   6.2303705
  68.5148468  32.7928047  47.7837410  68.2150345  33.4099617  47.1163101
  69.4601440  32.7318039  47.6462021  39.6508179  22.3657036  84.7688217
  40.3816605  22.9802742  84.8351440  38.9857597  22.8376312  84.2676086
  26.8234634  61.1594887  57.3438568  27.6779652  61.5899963  57.3707771
  26.9607162  60.3263321  57.7946777  11.9135752  56.6274719  11.3767881
  11.1647787  56.5601158  10.7843351  11.5579405  56.4086723  12.2381144
  60.0896835  48.3201523  37.9517250  59.2270966  47.9069023  37.9891434
  60.5615234  47.9579430  38.7016602  47.1487465  55.5727921  13.8977242
  46.3968239  56.0267220  13.5172110  46.7660332  54.9606133  14.5262108
  52.4605942  47.3222961   0.9119023  53.1804543  47.7578087   0.4554375
  52.8534012  46.5295448   1.2772539   7.0761156  33.9419098   1.5531174
   6.1334748  34.1081924   1.5561466   7.3109927  33.8778038   2.4788361
  69.6701431  55.2324677  77.8425827  69.9578094  56.1426353  77.9138260
  69.5517578  55.0915222  76.9032440  31.1359730  46.1765022  87.9875946
  30.7539749  46.9806442  87.6359329  30.4342098  45.7857094  88.5082092
  12.3783951  39.4835587  21.4750881  11.7278366  39.7058296  20.8090553
  11.8724089  39.3895531  22.2821655  55.9752426  35.1983376  52.4367867
  55.2227974  35.7331963  52.6897430  56.2007713  35.5027122  51.5577393
  79.6986694  61.2910576  48.0852470  80.3417587  61.3948631  47.3838997
  79.8033829  62.0751419  48.6242065  39.0113945  27.9744492  83.8055725
  39.6314850  27.5135040  84.3705978  38.9929352  28.8677845  84.1488571
  41.2887535  20.0070553  16.7898560  42.2217598  20.0807896  16.9906006
  41.2556801  19.9062614  15.8385525  70.6778946  31.1447277  77.4762650
  71.1260757  31.6451530  76.7943954  71.2639160  30.4101734  77.6585770
  62.0567398  38.3883057  47.5504150  62.0285263  37.5206642  47.9536934
  61.5340118  38.2991409  46.7535248  19.5133934  33.2419319  80.1539078
  19.9835567  32.4991722  79.7751160  18.7857456  33.3971214  79.5516815
  21.1806335  55.7617455  86.2282562  21.0781212  54.9513016  86.7271576
  20.5170765  55.7053032  85.5406952  22.8730927   7.5175323   7.4266844
  22.0124054   7.8464594   7.1673455  22.7205448   6.6001854   7.6534791
  12.8695688  46.9029999  65.5075836  13.5298519  46.3474426  65.0933151
  13.2853136  47.2085991  66.3138046  14.4326982  28.9310722  84.9957962
  14.2576561  29.4915104  85.7517776  14.9241800  28.1920147  85.3542252
  45.9693565  69.3591461   5.0116692  46.2225227  68.4993134   5.3475671
  45.9104538  69.9126434   5.7903857  28.3639603  28.6165066   8.2753668
  28.4727287  29.3149910   7.6299825  27.8466778  27.9504566   7.8225679
  74.0646286  58.9768524   3.1753399  74.6193085  59.3675423   2.5001183
  74.0255356  58.0484581   2.9455819  40.4935303   6.2591085  82.0842133
  41.2992935   6.6404586  82.4328461  39.8462715   6.9607244  82.1551056
  60.6225357   9.2802439  79.7221375  60.7126465   9.0414734  80.6446838
  61.5078468   9.2015829  79.3667908   8.5700312  48.9075775  67.3559952
   8.9409437  49.7696762  67.5442581   9.2073755  48.4946785  66.7732925
  79.6394119   0.2311583  79.6755142  79.0054626   0.9239117  79.4899750
  79.1800613  -0.5791793  79.4551010  19.6466732  46.2511978  70.6932755
  20.4787350  46.6739273  70.9058838  19.8787479  45.3386497  70.5211334
  36.2985458  29.9681873  75.3401184  37.0455894  30.5501556  75.4796600
  36.0081787  29.7355194  76.2220459  73.6466599  30.2893467  15.6122980
  73.0683823  29.5744247  15.3463783  74.2613602  30.3834801  14.8846169
  81.6269150  36.5693054  58.1916122  81.5115662  36.1616821  57.3332596
  80.7443237  36.6049805  58.5603752  17.0746918   3.6727433  57.4101372
  17.6873322   4.2740107  56.9866028  17.6324501   3.0096591  57.8168983
  54.3044167  19.7900906  50.6191254  55.2532578  19.8300190  50.4993629
  54.1186943  20.4538612  51.2833138  56.8749695  45.0653839  25.2435360
  56.6541672  44.5511398  24.4669857  56.7188568  44.4705620  25.9770546
  82.1091309  32.4229774  32.5914803  82.6914215  31.6990242  32.3611183
  81.2356110  32.1131897  32.3522720  55.7225227  20.1216221  86.2923965
  55.1530037  20.5543747  85.6563110  55.8545380  19.2428112  85.9367371
  83.1631546  43.4640884  33.0537300  83.3722992  43.2477531  33.9624062
  83.9781570  43.8184929  32.6982117  51.5411034  54.3145523  25.5599861
  51.6724663  53.6225471  24.9118328  51.0653343  53.8880043  26.2726822
  68.2302399   2.9566727  40.2400208  68.3984909   3.8372831  39.9046898
  68.2239456   2.4008060  39.4607849  38.9923592  12.5238991  10.7855978
  39.1821899  11.9479084  10.0450363  38.6079865  11.9468126  11.4454918
   5.7848110  66.9698792   6.9543343   6.0895996  67.4842834   7.7018132
   4.9170141  66.6606827   7.2142549  78.6354446  47.9203949  16.8596649
  77.9952698  48.3807068  17.4023609  79.2579193  48.5982742  16.5965347
  57.6082077  66.1026382  13.7491655  58.5077477  65.8123627  13.5981655
  57.5043030  66.8659821  13.1810646  36.6547852   1.4780539  55.1027260
  35.9985313   1.9867818  54.6265373  36.7920723   1.9650580  55.9152565
  48.0110435  52.5386314   1.3193715  48.0699768  52.4965858   0.3649130
  47.1370964  52.2038841   1.5203559  68.4191742  10.2442455  21.7211819
  68.8774185  10.3819313  22.5502090  68.9707565   9.6254854  21.2425156
  23.7171955  56.7180519  47.7322464  24.0666962  56.9950562  46.8852806
  23.6799603  55.7632713  47.6753006  32.4402084  59.5326157  83.0835342
  31.5996819  59.9904289  83.0959244  32.5235291  59.2090912  82.1865234
  65.1720505  27.8577137  22.4582653  64.5874786  27.2420464  22.0161476
  65.6064911  27.3340969  23.1315536  29.6667900   0.4029790  58.6388741
  29.8843307  -0.3438509  58.0810623  28.9747581   0.8631279  58.1639137
  47.2754135  61.2050018  71.3028412  48.1320496  61.3922577  71.6866989
  46.6477699  61.5483932  71.9387512  44.4122124  22.9748669  80.1536865
  43.4950180  23.0094528  79.8820419  44.3798943  23.0002804  81.1100006
  51.9597778  25.2085400  68.5719223  51.4562874  25.8756828  69.0384521
  51.4132042  24.9776554  67.8208008  73.6359406  14.8150730  75.8435745
  73.4244690  14.5680819  76.7438507  72.8187943  14.6869411  75.3618164
   2.9994981   5.2331996  61.6012115   3.6494529   4.8480368  62.1889534
   2.5796440   4.4815698  61.1828728  41.6666069  33.3480949  78.6847687
  41.8481140  33.9758949  79.3841629  41.3836823  33.8873978  77.9462967
  19.5232162  33.9033279  63.2993355  18.8862152  34.4850807  63.7140923
  19.7796268  33.2955170  63.9929161  37.5922813   5.9525466  50.1722794
  37.8616753   5.9341011  51.0906029  36.8848953   5.3100448  50.1172371
  75.6917419  62.6273537  14.7093496  76.2566299  62.3596458  13.9844589
  75.0768509  63.2474785  14.3174391   0.9575616   0.9651468  72.2724533
   1.8190770   0.9423901  71.8559189   0.5350167   0.1528947  71.9932938
  51.0351410  59.4839058  58.0702934  51.0528946  58.6073837  58.4545212
  51.9522514  59.6801414  57.8788986  76.2082291  46.1622810  51.1501923
  76.8960495  45.5218468  51.3317795  76.6385269  47.0112381  51.2519112
  49.0422821  26.6596107  38.6226158  49.0548897  27.6010551  38.7951164
  49.2371902  26.2583103  39.4694939  55.5053711  24.5215664  88.9371185
  55.5270081  25.1731186  88.2362289  55.9266968  23.7494831  88.5594864
   3.1750746  45.0303001  72.1209259   3.5601273  45.0967216  71.2471085
   3.2545106  44.1037903  72.3478699  59.5977516  62.5237846  59.1624069
  59.6340752  62.9925537  58.3286400  58.7798729  62.0280457  59.1230240
  78.7669067  48.9468040  55.7995300  78.9137650  48.0009575  55.8057251
  79.6377869  49.3252029  55.9204445  20.5365810  56.7067223  76.9391861
  20.4090424  57.6328773  77.1446152  21.4446735  56.6501846  76.6418533
  78.8308182  31.2634773  46.0584297  78.3937454  31.9280090  45.5258904
  78.1908035  31.0387726  46.7338028  55.1846581   6.9310570   9.5069494
  55.0874748   7.8703618   9.6634550  55.8511314   6.6513762  10.1345053
  43.4573936  57.6967087   4.2667212  43.0133705  57.5385437   3.4336197
  42.8723373  57.3216286   4.9249425  15.2588482  67.0730209   2.9394717
  16.0597610  66.9822769   3.4557433  15.0548086  66.1820374   2.6553288
  11.6557484  62.8517075  60.0349236  12.3446779  63.3322754  60.4939041
  10.9770432  63.5059929  59.8690987   6.7721424  38.7600975  18.3394680
   6.0754576  39.0480537  18.9293346   7.0917950  39.5664558  17.9346981
  63.0974770  40.4993973   3.3871675  62.4597626  39.7985573   3.5227404
  62.5881233  41.3057289   3.4685104  59.0555229  34.9361839  61.1238213
  59.5909386  35.5338707  60.6019707  58.1584435  35.2446404  60.9960251
  65.8566895  51.2799416  65.3447037  65.5637131  51.1037979  64.4506302
  65.0536957  51.2729263  65.8656464  48.2062874  -0.1681112  29.1301899
  47.9643440   0.7007567  28.8096218  49.1344910  -0.2537742  28.9126377
   1.5631461  20.4581127  13.8803101   1.2199001  20.2621555  14.7520990
   2.2535148  19.8093758  13.7433290  76.7793274  61.5272446  80.2953720
  76.2500687  61.2061844  79.5652771  77.5280304  61.9541473  79.8789139
  41.8561211  55.0043640  89.2259216  41.3876266  55.3095436  88.4489975
  42.1634064  54.1286049  88.9917068  16.6607285  28.3329201  82.3054810
  17.2606010  29.0558243  82.1216431  15.8511429  28.7591267  82.5868149
  67.8339996  68.9372330  56.6438789  66.9080963  68.9639053  56.8851700
  68.3006363  69.0048370  57.4768944  49.7601204  16.1235428  37.9285583
  50.0512695  15.8850012  37.0484657  49.1816635  15.4077406  38.1917038
   6.5991416   3.0251369   7.2333164   6.2892075   2.3879797   7.8769026
   6.1930418   3.8503582   7.4985032  10.3168097  51.0658340  80.8032608
  11.0517559  51.6548805  80.9738770  10.6356287  50.4769516  80.1193008
  65.2070389  55.6757622   9.3253698  64.5720367  56.3894615   9.2650766
  64.7503891  54.9893150   9.8116741  76.0114136  50.9830856  27.8061333
  75.4332809  50.2205620  27.7825871  76.4818039  50.9528313  26.9730358
  77.1000214  48.7328682  51.6700211  77.8205032  48.4320221  52.2237663
  77.4444885  49.5100479  51.2300568  70.8508606  64.5186462  37.8968544
  70.7435760  65.1905899  37.2236443  70.2764206  64.7994156  38.6091881
  64.1757355  35.8083229  45.2472191  63.6547203  36.5434647  44.9242020
  64.2466507  35.9607697  46.1895370  50.2886124  55.1587944  50.3285942
  50.9840889  55.3954468  50.9422226  49.8056335  54.4610672  50.7714653
  20.8623466  30.3262177  71.4000549  21.5335693  30.3933010  72.0791702
  20.1412773  29.8584690  71.8213654  46.2219543  36.3622437  40.9904709
  46.4915428  36.8137703  40.1906738  45.7030983  37.0097160  41.4677582
  55.9021492   7.5376878  50.1634865  55.3053741   8.1677847  49.7596626
  56.7616386   7.9560733  50.1138649  38.9194641  34.0809898   4.7467117
  38.1807289  34.5515747   4.3606381  39.6059113  34.1253204   4.0810881
  17.8393612  42.0491638  36.2523651  17.3060322  42.8414650  36.3159981
  18.4684620  42.2391739  35.5564041  22.8224773  38.6265030  81.4581451
  22.2223339  38.5259438  82.1970291  22.7562103  37.7991028  80.9814377
  86.1837616  68.0742035  31.6386261  87.0871353  67.7948456  31.4899197
  86.0575943  67.9840698  32.5831833  27.0632420  26.0201607  48.1648216
  27.4520531  25.4505272  47.5010643  26.2240200  25.6088467  48.3716125
  33.8358307  35.4626732  56.3589783  33.1244736  36.0642433  56.1391563
  34.5836067  35.7810402  55.8533058  33.4704704  54.7026978  71.0639267
  34.3823128  54.6598587  71.3519211  33.2200203  55.6169434  71.1968384
  71.0501633  21.3820648   9.3598461  70.0958710  21.3972034   9.4328060
  71.3056793  20.5391388   9.7345686  78.3928299  39.3737602  34.7454262
  77.6716309  39.4595566  34.1219406  78.9601059  38.7033272  34.3647003
   6.3209758  38.4454384  50.9849663   5.9415908  38.2089615  50.1385765
   7.2096500  38.0909195  50.9565468  42.5083809  32.2379837  82.4275894
  43.4048920  31.9225464  82.5416031  41.9930305  31.7251205  83.0501785
   4.2304282   3.2151182  73.7420425   3.5306463   3.5555398  73.1846771
   4.8451777   2.8070426  73.1322937  21.9005623  40.5574837  79.3555527
  22.0615463  39.8833656  80.0157700  20.9518299  40.6838379  79.3686523
  30.5429077  18.6271687  74.0311813  31.2804317  19.0376110  74.4826584
  30.0014896  19.3611031  73.7406082  17.6351204  28.7706852   1.3243564
  17.1363869  29.2968769   1.9493529  17.4587059  29.1761417   0.4754064
  12.8815346  69.2074127  80.9299164  12.7287159  69.9313431  80.3226242
  13.8236752  69.2301865  81.0974960  60.5115738  24.4741745  18.3120251
  59.6186295  24.8159523  18.2665272  61.0340004  25.1018276  17.8126717
  52.1274300  13.8857622  26.2233295  51.3792801  14.0792170  26.7881947
  52.8744049  13.8456793  26.8205376  82.6766205  35.8161545  74.8651428
  81.9724121  35.3561745  75.3220139  82.2316589  36.5038452  74.3698502
  74.4337463  64.3936157  82.8395004  74.9198074  65.0947723  82.4054871
  73.5805740  64.3894806  82.4055557  83.4881668  38.3932762  22.3941135
  83.1831436  37.5766296  22.7894363  83.5290527  38.2048759  21.4565296
  72.7770996  65.5605392  25.3451385  73.2165909  66.1221695  25.9836178
  73.4860611  65.0689468  24.9304829  62.9888496  56.3462982  51.6450157
  63.6679535  56.8734512  52.0659142  62.1658134  56.7294502  51.9483910
  28.6101761  50.8333130   8.1795206  27.8822727  50.2318802   8.0224590
  28.8205605  51.1857033   7.3147717  84.2226486  63.4061470  68.1259155
  83.4701920  62.9574242  67.7403183  84.6791611  63.7933769  67.3789978
  22.5329189  51.8579674  21.0393982  22.9113827  51.1426926  20.5281467
  22.9234676  52.6496429  20.6693306  22.0518608  50.5690308  39.5243950
  21.8916683  49.8676376  38.8930359  21.2802486  50.5622902  40.0907860
  48.6383820  32.6684761  86.0419998  48.6258392  33.0202522  86.9321289
  47.8824005  32.0824890  86.0053711  50.6294289  46.4601364  52.0330734
  50.0134811  45.9558868  51.5014954  51.1085587  45.8006325  52.5347862
  37.0522499  21.2314835  88.6873245  36.7653008  22.1431408  88.6346664
  36.8678551  20.9741440  89.5906525  59.6434784  40.8482361  87.8749084
  59.0904808  41.6002731  88.0867233  60.0411682  40.6007042  88.7096558
  38.0808067  53.1881142  37.2611160  37.4332123  52.5890656  37.6325951
  38.2545166  52.8405647  36.3863220  81.9987717  42.9474487  39.4565506
  81.1702728  42.6858482  39.0548096  82.3228836  43.6543732  38.8984871
  69.1829224  40.1961098  48.2123489  68.5552139  40.6618652  47.6598282
  68.6407471  39.6640129  48.7947121  60.5974159  29.2769299  35.8366432
  61.2246780  28.7434235  36.3246422  60.9984665  30.1453171  35.8007088
  60.0148926  67.5503159  30.8001518  60.3851395  68.4297485  30.8759384
  59.7649841  67.4741898  29.8792915  65.3579865  55.7644119  81.0693893
  64.5668488  55.9341393  80.5579987  65.7905884  55.0448799  80.6096420
  41.5682793  28.7784882  45.7789383  42.3861656  28.2831135  45.8224983
  41.7846107  29.6315670  46.1553574  78.0490036   6.7697372  59.9004593
  77.7749939   7.2832341  60.6603699  78.8974609   7.1388564  59.6552811
  60.4734230  13.4590244  20.5555229  60.0624313  14.1187925  19.9969330
  60.2779846  12.6261959  20.1260681  17.5788250  35.2213478  18.0009518
  17.7818489  36.1320953  17.7875252  17.8171463  35.1327477  18.9237652
  59.4111061  26.7074947  82.1522675  59.1306000  27.3240643  82.8285675
  60.1228027  27.1581039  81.6976471  71.3844604  52.9553528  65.1000824
  71.8370285  53.5027618  65.7417679  71.6065979  53.3444366  64.2542114
  70.7424545   7.8561053  68.6609573  71.4845886   7.2811689  68.4741135
  70.3290787   7.4702764  69.4332809  84.4883881  70.7174225  27.0847969
  84.6841431  70.6749725  28.0208035  83.7724228  70.0942154  26.9613342
  84.6715469  42.1433258  20.4412918  84.3677368  43.0297127  20.6368713
  84.6176147  41.6815720  21.2780151  84.4441833   9.1964378  88.6141815
  84.9070892   8.4305420  88.9538116  85.1239014   9.8632641  88.5164490
  41.2542419  51.1324921  22.3257046  41.9626083  51.0514641  21.6870499
  41.3597984  52.0112305  22.6902733  55.1011772   9.7768612  32.0537224
  54.1989784   9.6147146  31.7780857  55.0745277   9.7158241  33.0086021
  13.4687824  20.1831131   9.4936028  12.6637602  20.5734024   9.8339634
  14.1091957  20.8940506   9.5195026  76.4375839  51.0274162  37.5840034
  77.1052322  51.1610069  36.9112206  75.8290024  51.7566948  37.4656410
  67.8960800  55.9542542  82.6469498  67.4149475  56.0156975  81.8217392
  67.8150101  55.0356865  82.9036484  77.3927612  26.3822403  25.1257648
  77.6415253  25.4697361  25.2730274  76.4495316  26.3505459  24.9659023
  31.3961811  70.1961670  78.2856369  32.2338028  70.5428314  78.5929489
  31.5931435  69.8190613  77.4281769  16.8940525  52.9677086  30.3494339
  16.2128220  52.3786354  30.0251598  17.4882355  53.0783539  29.6071835
  86.2019501  60.0673981  84.3019791  85.7862015  60.5240517  83.5706406
  86.7303772  59.3846016  83.8887177  10.6760445  33.9257774   3.4412274
  10.2007208  33.8909302   4.2713389  10.3573942  34.7219467   3.0160100
  10.4690742   0.5286050  43.6927109  11.3760881   0.2250488  43.7302818
  10.1127119   0.1213433  42.9031715  27.2704849  55.0934906  73.1047134
  26.4073505  55.4404259  72.8791733  27.4746761  54.4811707  72.3978882
  58.0773582   0.9698936  44.1269646  57.2013397   1.0831530  43.7581940
  58.4348907   1.8566868  44.1716881  59.9514198  64.0295181  86.9518890
  60.3008804  63.6496391  86.1457825  59.4101753  63.3357162  87.3286133
  84.5667877  64.5530853  54.4353371  85.2215729  63.8916626  54.6589622
  84.3863220  65.0005493  55.2620392  25.5681190  37.1889687  62.1770134
  25.2992496  37.3913765  63.0731010  25.6246777  38.0415382  61.7455559
  56.2252922  36.6604233  41.8553848  57.0168915  36.1458206  41.6979332
  56.2276649  37.3214111  41.1630554  82.0100174   6.0467277   1.5255175
  82.2964706   5.9805455   2.4364483  82.5978928   5.4625974   1.0465345
   6.1134343  44.5376587  50.7246742   5.9819160  43.6404114  50.4182739
   6.7874207  44.8923721  50.1448860  44.5924263  42.1406822  69.3903580
  44.7499619  42.9493561  68.9030609  45.0250969  41.4612732  68.8732300
  83.1381912  38.7412224  45.1063957  82.2100830  38.5090523  45.1370926
  83.2527466  39.1578064  44.2522469  33.1945419   0.4752353  64.8485260
  33.7137604   0.5393891  65.6501007  32.3541489   0.1179708  65.1354675
  14.9244890  64.7169418  54.9579086  14.4724236  64.4543381  55.7597237
  15.3120537  65.5664062  55.1687012  47.5470810  42.4729118  82.3677979
  46.9015388  43.0460854  82.7812958  48.1547890  43.0710869  81.9329376
  57.4973068  24.8466129   6.3084474  56.6396141  24.7077312   6.7100754
  57.6411095  24.0652790   5.7745275  43.9690590   3.5322535  10.7893295
  44.4975815   3.7184772  11.5653553  43.2438011   4.1550131  10.8383999
  60.2631111  64.4928665  11.0047722  59.5801086  65.1522369  10.8824234
  60.2094002  63.9443207  10.2221832  70.8744736  46.0738258  48.1957359
  71.1561356  46.2851143  47.3056526  71.6824646  45.8433800  48.6542969
  83.9780502   0.2389284  51.2015724  83.8460312  -0.6495942  50.8709221
  84.5228043   0.6628051  50.5383911  14.5918589  68.3807831  29.3636951
  15.3336611  68.5604401  29.9413490  14.9568377  67.8335342  28.6683216
  40.8882599  63.8602829  53.6310539  40.4338837  63.1288719  53.2129478
  41.6393433  64.0318527  53.0630150  48.7514458  23.6509609  69.6677475
  48.2907906  22.8153343  69.5918808  48.4126472  24.1778011  68.9439468
  64.5463486  10.4611950  14.3014908  64.7933273  11.3471966  14.0364704
  64.5981369   9.9469986  13.4957924  39.5232468  16.2304211  86.0311661
  39.1473083  17.0791779  85.7976837  38.8372154  15.7958288  86.5378494
  31.1413860  44.8650970  28.0755615  30.6472492  44.0908012  28.3448715
  31.5829868  45.1567764  28.8731461  79.9252167  10.0644436  53.6808090
  79.5287933   9.4474707  53.0656509  79.9112549  10.9037170  53.2207489
   1.6391664   5.2751422  57.7210197   2.0602288   4.4272690  57.8626175
   2.1550057   5.8890147  58.2438011  33.8434753   2.3067732  24.9773312
  34.4544334   2.9140878  25.3946190  33.5462532   2.7674251  24.1926727
  59.1815071  27.4404545  62.5563087  58.7772713  27.6238499  63.4043617
  60.1148453  27.6001644  62.6963158  21.1165447  53.5721207  30.0757236
  21.4201012  52.6724548  30.1969242  21.7410221  53.9546127  29.4593163
  83.9270630   7.7097597  18.6686764  84.7030640   7.3520565  19.1000729
  83.4855347   8.2155952  19.3508911  52.9183159  20.0357761  53.6047058
  52.5311356  19.1635628  53.6793404  53.8625870  19.8821373  53.6360092
  76.0268936  15.5616245  82.5450211  75.3263626  16.1144218  82.8913040
  75.8837814  14.7086506  82.9551315  44.0806503  63.1266479  64.2209854
  44.0318947  63.0232735  65.1713333  45.0163727  63.2082939  64.0366287
   9.3845997  33.6687279  13.0747919   8.5038300  33.7784500  12.7164087
   9.2812071  33.8186684  14.0145044  81.7964859  15.5368319  31.7768955
  82.6805344  15.3749809  32.1062775  81.2967834  14.7649031  32.0427208
  30.2505836  18.2605457  88.5695648  30.1598473  18.7232494  87.7365494
  31.1203403  17.8628979  88.5291672   4.2726254  44.2697716  26.4164295
   3.4815774  44.7740021  26.6067600   4.6850820  44.7365150  25.6896133
  39.9824371  32.8879356  29.3865128  39.9960899  31.9344673  29.4698448
  40.0157547  33.0464096  28.4431095  36.0577850  46.7574730  35.0419731
  36.3810349  47.3367157  35.7320595  36.7849884  46.6934547  34.4228516
   1.3027381  36.3358727  33.8436050   1.8968946  36.1559525  33.1150169
   1.1524333  35.4808617  34.2468376   7.7482815  55.1136093  54.9901123
   7.9688158  54.7205086  54.1456795   7.3038673  54.4151878  55.4706726
   2.0105870   9.2089205  52.0476151   2.0576515   9.4684353  51.1274719
   2.3123965   9.9790030  52.5293999   8.0624619   3.3667583  53.1783104
   8.0810757   2.5951931  52.6121178   8.2423801   4.1000099  52.5899200
  25.0107632  52.2872963  16.8045654  25.6312408  52.0628014  17.4979935
  24.2407875  52.6152802  17.2691040  36.2043915  12.7203064  77.1257629
  36.7840042  12.0457535  76.7718506  36.2329483  12.5875816  78.0732880
  65.3482513   5.3484311   4.0649962  65.2189560   4.4734006   4.4308333
  64.6167221   5.4650779   3.4587891  10.4310341  53.1780205  24.9442635
  11.2228909  53.5835419  25.2974586  10.4661055  52.2733994  25.2551708
  24.7496700  52.7574768  52.9108276  24.9974003  52.0436020  53.4984016
  23.9850368  52.4258347  52.4401016  49.2455559  66.1945038  34.0272026
  48.4523544  66.5274963  34.4469452  49.4826736  66.8707581  33.3926239
   5.3242717  69.9968796  16.3170929   5.5877509  69.0824203  16.4199238
   4.4326830  70.0296860  16.6638279   2.6226609  10.1960049  81.7486420
   1.9032782  10.8273821  81.7577896   2.1933916   9.3450747  81.6598892
  61.2452049  48.7311935  46.0711784  60.7173805  48.7061501  45.2730484
  60.9073143  48.0116959  46.6044540  67.1871719   2.9267054  24.9350758
  66.4133835   2.6406560  25.4205151  66.8471222   3.5359087  24.2797356
  57.7264252  45.3762474  32.5341263  58.0718956  44.7738152  31.8753700
  57.4772301  46.1561432  32.0382462  68.0478058  47.1170692  58.5006485
  68.1920776  47.8242722  57.8719368  68.9019394  46.6931992  58.5845108
   8.5837717  27.7533970  69.8000336   8.4441586  27.5915546  68.8670044
   8.8101807  26.8960896  70.1605759   0.6931822  54.3988647  31.6497993
   0.1633353  53.6599464  31.3506451   0.9922967  54.8207436  30.8443298
  40.2727814  48.0710297  10.1949100  40.9872551  47.9715652  10.8240900
  39.6387939  47.3985977  10.4441605  73.5221329  64.2863617  72.2764587
  73.0945358  65.0460892  72.6716995  73.5113144  64.4674454  71.3366089
  51.2359161  38.8309059   0.5822117  51.4809685  39.7275505   0.8106994
  52.0634995  38.4069099   0.3551216  80.7083054  60.1427383  22.8282127
  79.7608948  60.0146790  22.7808037  80.8889923  60.8326302  22.1897545
   3.4708483  18.2991199  82.1206665   3.8131182  17.4912052  82.5032349
   2.8234222  18.6085796  82.7541580   6.9381189  43.0165482   6.2914591
   6.4142108  43.1222801   7.0855451   7.6047392  43.7008362   6.3514471
  70.3319168  22.8963795   0.8867624  70.5584717  22.9404125  -0.0421957
  70.8782883  23.5658150   1.2985409  18.6848373  45.2201118  54.8730469
  18.5120087  45.8694649  54.1913528  19.2074280  45.6890793  55.5235825
  86.7727814   1.9652011  58.8937187  86.1127319   2.0981624  58.2133636
  86.6120529   1.0772866  59.2131004  71.8367691   5.7509232  25.7116966
  71.5942078   6.6571755  25.5216827  71.0789642   5.3919010  26.1732845
  70.0700836   6.3454967  59.0980835  70.6577530   5.6278009  59.3342857
  69.4567795   5.9573622  58.4740334  53.4347343  18.0624046  85.0543900
  54.0095749  17.6650105  85.7085037  52.7822800  17.3874874  84.8672485
  73.4954224  34.8250771  59.5910301  74.3703613  34.6769142  59.2322121
  72.9687500  35.0892181  58.8366547  38.8476982  45.1420898  16.4412518
  39.5964546  44.8966827  16.9847298  38.9539948  44.6280212  15.6408358
  32.0071030  44.9734459  33.3545456  31.8120232  44.0378990  33.3004494
  31.4679146  45.2889938  34.0797653  60.0594902  38.2116203  45.6459732
  59.7858353  38.6363029  44.8329620  59.4953918  38.5945206  46.3178444
  60.6874657  42.1728706  47.2618752  60.0341606  41.5071640  47.4769516
  61.4819260  41.8823128  47.7098083   8.7438087  51.2968140  48.3327599
   8.6605434  52.0372009  47.7318192   8.8732157  50.5389328  47.7625847
  68.2628784  40.1794815  23.4635754  68.3049622  41.1077995  23.2340469
  67.4280319  40.0836945  23.9219379   3.1504972  55.1956635  10.2782898
   2.5986776  55.9020386   9.9424953   3.7369764  54.9840050   9.5520144
  78.5045242  59.6364212  77.8645706  78.3523712  58.9592476  78.5237503
  79.1646729  60.2081337  78.2564697  15.3480291  47.2162781   4.3784781
  14.5590601  46.7011452   4.5469947  15.0291147  48.1109543   4.2598214
  35.9363518  15.7476435  14.4160624  36.7786064  15.2945623  14.3765850
  35.3326454  15.1723280  13.9461889   7.7083206  65.7925034  75.9130478
   8.6221199  65.5591125  75.7495651   7.3935385  66.1298141  75.0743790
  62.8337402  54.6731911  88.5863953  62.9903069  55.5032616  88.1361694
  63.1910095  54.8058624  89.4644547  67.4816208  47.5547066  53.5650406
  68.2818985  47.0297203  53.5521278  66.9918365  47.2637100  52.7958412
  60.6449013  27.1592884  74.8249817  60.5394440  27.8031387  75.5253906
  60.3005600  27.5949478  74.0453262  18.8524380  51.6707954  87.8966217
  18.3501415  51.8075333  88.6998901  19.7556973  51.5627708  88.1944275
  55.9184570  35.1669121  81.7064667  56.5678673  35.2652321  82.4027634
  55.3711967  34.4349365  81.9909744  70.8533096  15.4680433  72.1869888
  70.8586578  15.0490618  73.0475998  71.3264389  14.8582830  71.6207962
  70.8417053  60.6374359   2.3382061  71.6578827  60.9073334   2.7592049
  70.2639618  61.3953400   2.4278185  59.1867409  11.3498592  84.1717224
  58.7976265  12.1754484  84.4602127  58.5338898  10.9699078  83.5838013
  67.9282837   5.3672962  67.4882126  68.4841766   4.9251900  68.1298981
  67.3914642   4.6684499  67.1144943  81.4330750  14.9678469  25.1161098
  81.8858871  14.5263491  24.3975868  81.4928436  14.3553076  25.8492222
  68.1459122  15.7038918  75.9493484  67.8301849  15.5913649  75.0527496
  67.4658279  16.2222614  76.3794708  82.1609421  42.3613853  46.0920296
  83.0591736  42.2782097  46.4121704  81.9545135  43.2902145  46.1964226
  59.3904381  24.7193871   8.4681654  58.5323067  25.0714951   8.2318115
  59.9861298  25.4639683   8.3846054  30.5792904  65.9124146  83.7979507
  31.2200832  66.4557419  84.2566528  29.7495861  66.3771591  83.9067230
  78.2244492  10.9489355  47.6061363  78.7423096  10.2912397  47.1419334
  78.6647720  11.0484848  48.4501953  67.4016647  28.1914253  18.7331734
  67.8953705  27.5287247  18.2501431  66.4889069  27.9137096  18.6558933
   4.7699537  20.0539150  11.7803802   4.3397474  20.8427429  11.4503717
   4.1020660  19.3714180  11.7143755  13.9331989  63.9439354  69.2536087
  13.0054445  63.8239021  69.4563217  14.1336975  64.8271942  69.5632706
  55.2827759  65.5843964  37.9478607  55.4481888  64.9901810  37.2158928
  54.5168495  65.2153168  38.3875999  75.9631577  35.9032707  71.2042389
  76.1636124  35.0352669  70.8540726  76.6682358  36.4620781  70.8773880
  68.7790756  17.2606544  14.1070166  69.2703705  16.4614105  13.9170818
  69.1729431  17.5984554  14.9113760  43.5932617  42.9397812  82.8302536
  44.0623093  43.0200233  81.9997177  42.8201103  42.4164467  82.6190872
   6.5257607  49.5664177  81.7000961   6.1310086  50.4371834  81.7466354
   7.0991392  49.6039772  80.9345551  51.5160103  69.8960648  53.5197144
  51.7658272  69.6671066  52.6245041  51.8598938  69.1807098  54.0547333
   7.8430805  53.9255180  22.0454311   8.6562071  54.0619202  21.5591679
   8.1226940  53.8194160  22.9547119  18.8640289  54.2141228  54.4300804
  19.0879421  55.0808678  54.7689743  19.0929108  53.6132393  55.1391525
  72.2167587  42.9633675  39.2238274  72.8325424  42.6634216  39.8924637
  71.4106827  42.4806595  39.4067650  24.2184982  30.7598476   7.7896223
  24.6541882  30.4089489   8.5663300  24.0785007  29.9971657   7.2284203
  34.0944824  59.1496468  19.3328571  33.1528702  59.1828728  19.1640587
  34.4365997  59.9530449  18.9407520  22.4448757  20.3227272  77.2691345
  21.5547657  20.0132122  77.4368668  23.0011005  19.7499676  77.7971420
  67.0701065  59.3531380  57.1721802  66.3541260  59.9873390  57.1349030
  67.0923767  59.0705223  58.0864372  60.2822838  37.7880707  71.3693695
  61.1564980  37.9969025  71.0401764  60.4347038  37.1478386  72.0644226
  68.8429794  29.4526901  34.1979446  69.0711594  29.7617455  33.3212204
  68.0184402  28.9813690  34.0786896  57.2257576  38.9987793  32.4756203
  56.4940453  38.4119377  32.6665268  56.8581810  39.6552658  31.8838902
   0.5483472  25.6940422  59.7835007   0.2585348  24.9825745  60.3545113
  -0.0441268  25.6550484  59.0327072  41.5832329  39.5637169  53.2411575
  40.6699181  39.2892914  53.3235054  42.0775490  38.7446251  53.2099190
  47.3757820  34.0040817  88.2292862  47.7827263  34.1210632  89.0877457
  47.0208549  34.8663292  88.0129776  34.8453674  67.8671341   1.3679377
  34.0179405  67.4191589   1.5437459  35.0508156  68.3203430   2.1856351
  50.0281410  43.2552567  53.6826324  49.6087570  43.2258034  52.8227043
  50.3222618  42.3574638  53.8365479  73.0550156  34.1955872  81.4862976
  72.8045120  34.7677345  80.7609482  72.9560318  34.7409248  82.2667084
  63.5350456  49.9181824  69.0640182  62.8612022  49.2684860  68.8638763
  63.1876259  50.7389412  68.7148972  80.2712250  41.5522079  79.0997620
  80.9179306  42.0732498  79.5756989  80.5004730  40.6447067  79.3000641
  25.6145706  58.6537094  35.5909996  26.0155468  58.5499153  34.7280540
  25.5021935  59.5990410  35.6907539  65.3287430  16.9712276   5.4853363
  65.9532242  17.5392723   5.9365363  64.6629181  17.5692692   5.1458468
  32.5767746  39.2691154  11.5578213  32.7225342  39.4357681  12.4890642
  33.1367188  39.9035797  11.1104469  43.7919235   7.0943604   6.0119457
  43.7048531   7.9487376   6.4346633  43.9876289   7.2984271   5.0974579
  62.1582718   8.2666864   6.0939550  62.2880707   8.4814272   5.1702285
  61.6232605   8.9840088   6.4337263  39.5326385  21.6448174  80.0441055
  40.3358955  22.0542412  80.3656387  39.4508209  21.9539242  79.1418915
  32.7969437  37.4319954   5.0821886  33.6435394  37.8674660   5.1815486
  32.7988892  36.7487831   5.7525964  54.8253059  60.3714447  59.6342964
  54.7563667  61.1747398  60.1502457  54.3159752  59.7268333  60.1255112
  42.8362999  61.7094154  56.7144623  42.8571167  61.4989281  57.6480026
  43.6999931  61.4523811  56.3916664  54.3013802  70.4155579  12.7207222
  53.5254555  70.1636047  13.2214117  54.9473495  69.7388916  12.9233932
  28.9296455  62.9061470  58.2547340  28.2402306  63.5690956  58.2168579
  28.7818737  62.4541168  59.0854378  40.0617332  27.6500053  74.6755829
  40.0306358  28.5214233  75.0704193  40.9189301  27.6096401  74.2515335
  40.8601074   2.3236651  11.3806715  40.5147896   2.4047601  10.4916210
  41.2075615   3.1923652  11.5828257  51.1029091  31.9745045  29.1710148
  51.0276260  31.7385712  30.0956230  51.4459839  32.8680763  29.1790085
  41.5295868  51.9206619  31.6652164  41.8017769  51.8556938  32.5805969
  40.6194839  51.6241074  31.6643333  41.3776474  48.2101555  82.8640976
  40.5072937  48.5932541  82.7547684  41.2308922  47.2653618  82.8187027
  82.4063644   5.4259696  82.5751877  82.7804031   4.5973649  82.2756119
  81.4767151   5.3621354  82.3563232  45.1996307  58.7828865  34.9405670
  45.4440308  59.4947166  35.5320053  46.0335350  58.3953972  34.6746979
  56.4594879   9.8371267  22.7604599  56.6129532  10.2521067  23.6092644
  56.8012886  10.4634209  22.1223698   9.3930044  20.8481236  12.6296349
   9.0578299  21.5720100  12.1005993   9.3656092  20.0910950  12.0444946
  53.2539062  32.1962318  54.0784340  53.3707504  33.1462631  54.0826073
  52.9267654  31.9990025  53.2007599  11.7331619  62.4372063  30.7756195
  10.8005543  62.2351532  30.8507862  11.8427172  62.7295685  29.8707676
  54.5442238  54.4189148  30.7513809  54.3715858  55.3396988  30.5549526
  55.4871635  54.3808823  30.9115238  78.7017822  39.0981598  70.3012619
  78.7362213  38.1665802  70.5185165  78.9794312  39.1411209  69.3862228
  43.1506958  34.5186119   2.0118513  43.2166290  34.8576584   1.1191404
  43.7715187  35.0457916   2.5147369  36.3142815  51.8112488  70.5730133
  35.6666985  51.4819832  71.1962662  35.8677406  52.5256424  70.1186142
  65.2297058  66.0820007  70.9443207  64.7627869  66.7810211  70.4865036
  65.9223175  66.5329285  71.4272156   6.9223914  42.4587784   9.2506332
   6.7947321  41.5490074   9.5194225   6.0506744  42.8500137   9.3078890
   5.4669237  41.8008614  52.7080307   5.5363460  41.0242462  53.2632637
   6.3149047  42.2357941  52.7974434  25.0338726  62.5412827   5.9701672
  24.7041893  61.8315659   6.5213885  24.2641850  63.0803833   5.7880177
  50.5276413  21.4304199   4.6309891  49.8340416  20.7707787   4.6359987
  50.8148499  21.4690495   3.7187114   4.0471606  28.9428921  78.7454681
   4.3679605  29.5789223  79.3848343   4.8349681  28.4952316  78.4369354
  75.2122269  70.0869827  28.8602543  75.1004715  69.2187958  29.2475491
  75.4953079  70.6395950  29.5887585  86.4110794  66.8435822  69.3290939
  86.7037125  66.4575577  68.5035172  85.9537430  67.6437225  69.0705566
  20.2040672  66.9896088  16.2840157  19.5823784  67.0637360  15.5599728
  19.9153957  66.2167435  16.7693901  63.0272713   7.5352659  75.8090591
  63.4270439   7.4800572  76.6770248  63.4420242   6.8321834  75.3091660
  39.0004921  58.4425354  66.2223892  38.2482262  58.0424004  65.7862396
  39.6663933  58.5095139  65.5380478   1.9151626  66.9565964  42.9271507
   2.8409815  66.9185638  42.6870575   1.4630525  67.1553040  42.1071854
  76.5760803  57.0003128  66.6434021  76.6275558  56.0791283  66.8983612
  75.9337921  57.3793640  67.2434158  43.8631630   5.6645012  33.7437172
  43.4365959   5.6496549  34.6004829  44.2831116   6.5235543  33.7000999
  28.0183430   3.6186235  41.8734093  27.7521248   4.5315561  41.9825630
  28.9674644   3.6583247  41.7558479  15.9937468  10.2059193  62.8094635
  16.4713554   9.3826036  62.7081070  16.5176563  10.7118368  63.4305916
  28.5855637  51.5664825  13.9913635  27.9009304  50.9224281  13.8105316
  29.2776299  51.0655670  14.4230604  46.9112015  63.6099205  83.7201309
  47.8273849  63.8765869  83.6444702  46.9361305  62.8161469  84.2544785
  86.6327820  38.3551064  85.5568466  86.2211761  37.8927765  86.2869568
  87.3782120  38.8087044  85.9503098  36.6224556  10.2823391  18.0917835
  36.1738052  11.0507345  17.7389221  37.5533524  10.4867716  18.0030708
  84.0595169  64.7305679  43.8499222  84.1567383  63.8298340  43.5409546
  83.7262955  64.6428070  44.7429466  46.4383202  29.2374535   4.7050338
  46.1988754  29.4306545   3.7986276  46.8664818  28.3824043   4.6626067
  41.0959244   8.6227293  88.5587921  41.5010719   9.3850317  88.1452866
  41.8175049   8.0063858  88.6839828  51.4601784  66.1616364   0.4482392
  51.9572334  66.2949982   1.2553225  51.0043182  66.9915161   0.3078052
  29.7425804   3.7331636  79.3366318  29.7147083   2.9622722  78.7699051
  28.8514557   4.0816846  79.3109131  19.5740604  60.9790039  15.0323324
  20.3802662  60.5851517  14.6989450  19.5446148  61.8450356  14.6256971
  52.3039780  41.3401222  13.7186146  51.8213539  42.1307297  13.9599543
  51.6721878  40.8141403  13.2282944  72.6732407  68.9226608  43.3134575
  73.5436554  69.0208054  43.6994286  72.4884949  67.9854355  43.3744240
  13.5941401   7.6491599  69.4811096  12.7278996   7.2898517  69.2893906
  14.0030622   6.9974914  70.0506210  85.9060669  17.3833351   6.0081663
  86.2151947  18.0352936   5.3791819  85.3113556  17.8668461   6.5815487
  12.2853594  41.8803406  76.9869690  11.9694033  42.5676537  76.4004517
  12.4772329  42.3349228  77.8071976  62.2488632  52.1409073  36.7620773
  62.1788368  53.0947533  36.7233315  62.7087631  51.9676857  37.5834923
  75.6654129  29.3313732  85.7937927  76.4044495  29.2663651  86.3986359
  75.9708633  29.9216709  85.1049728  50.4420319  43.6192856  14.7959576
  49.4930191  43.4946899  14.8046970  50.5740852  44.4176521  14.2846756
  61.2857399  14.1465902  23.0909004  60.7435188  13.4416933  23.4449482
  61.1023750  14.1410179  22.1514435  75.5245285  10.1911793  15.5050249
  75.6497803   9.5436563  14.8112984  74.8758850  10.7993994  15.1506748
  57.1394806  47.0388832  20.2683926  57.2234459  46.0855789  20.2486305
  56.2493820  47.2073860  19.9592648   6.2710342   7.8886819  85.8061218
   6.7201052   8.3385630  85.0904541   6.7609024   8.1371393  86.5900345
  16.3966637  45.5072441  51.4357376  15.8509378  45.3360367  50.6682053
  16.1840611  44.7990303  52.0435753  68.6358261  32.8623047  37.5309639
  67.9623718  32.4314003  38.0572777  69.3760605  32.9674797  38.1286507
  73.5196381   2.2727463  58.5740051  73.6372375   3.2055595  58.3943863
  74.0874023   2.1000109  59.3250313  51.6606941  14.1026144  51.5514259
  52.1969681  14.8868332  51.4346161  52.2506752  13.4672298  51.9569435
  63.5948753  25.2480125  66.2319031  62.8777695  24.6472588  66.4346008
  64.1477203  24.7630005  65.6192398  50.8670692   0.7127399  21.6574516
  51.4722214   1.1116579  22.2826614  51.4335289   0.2812214  21.0178051
  72.1007462  21.3529854  86.8879700  72.4293671  21.0321636  86.0481415
  72.5435333  20.8112278  87.5411682  23.4354782  69.8204269  73.7736130
  23.3802547  70.4423523  74.4991379  24.3695984  69.6270523  73.6944809
  82.3698730  34.6011887  61.2589836  82.1372528  35.2296906  60.5755348
  82.2608566  35.0858192  62.0772018  13.1845169  49.8493805  39.0274734
  13.2518969  48.9643517  39.3858261  12.4663076  49.7983627  38.3967552
  39.5133629  19.5648136  85.2216568  39.1988487  19.2537003  84.3728180
  39.5454674  20.5171509  85.1307983  53.4255905  33.0310822  79.7250900
  52.5163803  32.9393692  79.4402008  53.4288788  32.7039680  80.6246490
  24.2859154  39.7462807  63.9944344  25.2430058  39.7435875  63.9802132
  24.0327225  39.7680931  63.0715866  23.7651348  43.0496407  76.8151245
  23.8996296  42.5307579  77.6081619  24.6048450  43.4851074  76.6685410
  55.8387108   1.3357654   8.1289053  55.1993904   1.7462071   8.7111788
  56.2459869   2.0680442   7.6661692  47.4945641   6.7432923  33.0936165
  46.6136246   7.0844789  33.2477989  47.4932404   6.4843516  32.1721077
  15.4349785  51.1721115  37.7194443  14.7861834  50.7905006  38.3107758
  15.8815384  51.8332291  38.2483482  18.8693562  20.3069363  75.5483093
  19.1463223  19.7814922  76.2989273  18.7625179  21.1904449  75.9007645
  24.1512165  13.0568724  52.4181137  23.5256538  12.4939022  52.8741493
  23.6171570  13.7633505  52.0549355  23.9870701  42.1074409  15.3860312
  24.3386974  42.9969826  15.3499460  24.6225872  41.6197510  15.9099684
  60.0472946  21.0258751  47.7082405  60.3912506  21.7944927  48.1633797
  60.2534180  20.2923050  48.2875671  22.9727993  68.0266418  14.6696815
  22.1999092  67.5053482  14.4525909  22.9721031  68.0692444  15.6259327
  17.7010727  69.3377914  39.8734207  17.5810261  68.3938370  39.9771957
  18.6505394  69.4587860  39.8631821  61.9024773  59.4899750  80.3515549
  61.1142273  59.3936958  80.8859863  62.5572090  58.9468727  80.7904129
  49.8044624  46.0228310  32.9635963  49.4689178  46.6126518  32.2884979
  49.4463272  46.3669586  33.7818527  53.1056595  70.5717850   2.3629951
  53.8084335  69.9957275   2.0621533  52.6277466  70.0500412   3.0076785
  79.9152527  57.0688095  56.2480927  79.0979462  57.3936386  55.8703041
  80.4979782  57.8281937  56.2471962  31.5987225  53.4658890  60.1068993
  31.0338955  54.0437241  60.6200371  31.0058575  53.0385704  59.4887238
  47.0613556  44.7233200  30.1555653  47.3129272  45.1127625  29.3181419
  46.2868385  44.1987228  29.9526978  79.9368896  54.3890762  19.9989300
  80.1366425  54.9793510  19.2723579  80.2039566  53.5248680  19.6857929
   0.4053243  54.4618568  72.7147675   0.8349083  55.1389084  73.2375412
  -0.0354634  54.9434280  72.0147476  58.6887398  51.0897903  86.1467819
  58.4354553  51.0173721  85.2265472  59.1918678  50.2941322  86.3200455
  70.1150284  61.9778976  77.6376114  69.8833466  62.9007378  77.5330963
  71.0337524  61.9301796  77.3732300  38.3226967  47.4037056  82.4609375
  37.8359718  46.9192924  83.1277771  37.8846359  47.1849136  81.6384583
  79.0465851  52.7984085  59.9891853  78.8175507  52.4832649  59.1148491
  79.4069977  53.6728325  59.8418083  84.6907349  17.9902668  58.7874870
  84.4588547  17.0853424  58.9962349  85.1581650  17.9316235  57.9542351
  68.7228394  69.1994858  80.2671204  68.5289688  69.1956329  81.2044678
  68.0724716  68.6098328  79.8855972  58.4426041  48.7693405   3.5299282
  58.8670120  47.9157257   3.6162302  57.5230446  48.6015625   3.7360477
  29.0775890  44.0184135  32.1767387  29.6704330  43.2669067  32.1739311
  28.8253841  44.1279488  31.2598801  40.4380455  68.3906021  35.1489601
  40.5147018  67.9474792  35.9939461  40.3466301  69.3170166  35.3717613
  31.3181725  66.7374954  21.9107437  31.4398994  67.4509583  21.2843342
  31.8573685  66.9839706  22.6622429  17.1436653  51.9372406  80.1428909
  16.4585075  51.6297340  80.7363815  16.8627167  52.8159256  79.8875275
  71.8637009  32.4096794  71.6303864  72.7410049  32.2020302  71.9520187
  71.9750824  33.2237396  71.1393356  56.5963554   3.4805396  82.9758224
  57.5096092   3.5722036  82.7041702  56.0975609   3.5327842  82.1605225
  68.6315079  17.1278839  24.1025028  67.9076233  17.4235649  23.5504189
  68.7241440  16.1973915  23.8979664  33.9293022  33.8660011   0.6677195
  33.9578896  34.5632515   0.0125418  33.0101013  33.8224373   0.9311716
  71.9264145   7.1872110  50.8615379  70.9791489   7.3246956  50.8572960
  72.2520447   7.7413187  50.1521988  73.3904114  44.3641205   1.1852940
  73.0685120  45.2527161   1.3369987  72.7313385  43.7986374   1.5878876
   2.1772854  15.4902458  69.8005829   1.7610154  15.8774738  70.5706482
   2.3863215  16.2375088  69.2401047  38.6380501  33.7455368  13.1490526
  38.2087059  33.5411110  12.3183250  38.2696877  34.5903664  13.4075117
  40.7800407  70.0499954  56.8948364  39.9765205  69.6174164  56.6059456
  41.4846115  69.5225830  56.5184784   1.2052873  60.7617760  54.2378731
   1.9859241  60.2567291  54.4653931   1.0323100  60.5365448  53.3237686
  72.1169281  24.7216797  75.9478836  72.8739700  24.4213448  75.4449692
  71.9100342  23.9899635  76.5292740  65.2083969   2.5274279  17.7768764
  64.9469376   2.0229146  18.5471611  64.6647110   2.1823366  17.0686741
  51.3699303  48.2903519   3.2058086  50.6411629  48.6809464   2.7235551
  51.8663483  47.8107948   2.5426173  80.2511978  19.9751892  76.3420868
  80.0665665  19.9967041  75.4031067  79.8766556  19.1465397  76.6408997
  47.3516922  36.3630066  67.0065002  47.0780563  37.1297455  67.5099640
  46.6800728  36.2677574  66.3311615   6.8188767  54.8858757  19.1801205
   6.0651760  55.0130653  19.7563057   7.0197563  53.9526787  19.2509899
  78.3280182   6.2326846  74.8768158  78.0033875   5.8090544  75.6714096
  78.2277832   5.5695896  74.1938171   8.1741362  56.8064804  43.6271019
   8.4312019  56.7947350  42.7051430   7.3168964  56.3808670  43.6421700
  13.8698101  35.3875160  34.0449753  14.4306707  35.6204643  33.3051109
  13.6728916  36.2229691  34.4686127  36.7241402  17.2883110  11.7122049
  36.7431946  17.1268940  10.7689056  37.0480385  16.4757309  12.1008377
  43.7552872  67.8422165  60.9039574  43.7961311  67.2457733  60.1564140
  42.8435936  68.1327667  60.9290085   2.2633023  61.2692375  35.8210335
   2.4361036  60.8192520  34.9940605   2.0519335  60.5670128  36.4362030
   1.6946883   3.8184609  67.5446472   0.8258915   3.5774856  67.8661346
   2.2807496   3.1640451  67.9247818  47.9489784   9.2642221  74.0476456
  47.8921013   9.9685040  74.6933823  47.0903244   9.2571478  73.6246872
  63.2444191  44.6891479   3.8854802  63.1094971  45.5417252   4.2991738
  62.8888664  44.7922935   3.0027709  85.8514328  34.4996147  69.0978165
  84.9241257  34.6603317  68.9231644  86.3118362  35.1394463  68.5547943
  66.9251938  20.3717747  25.3444881  67.7104568  20.9181309  25.3114681
  66.7157745  20.3094711  26.2764187  50.2836380  11.9664841  72.9010086
  50.1632118  11.9503174  73.8504639  49.9265518  12.8117895  72.6286469
  76.1654816  43.4130554  34.7087517  76.2865295  44.3562279  34.8183212
  76.8208847  43.1614571  34.0580788  11.7946196  50.3328209   3.5915570
  10.9743862  50.5967407   4.0084457  11.5483789  49.6094322   3.0150955
  84.1359863  40.8063126  63.3262062  84.3782883  39.8802872  63.3243103
  84.5208969  41.1529541  64.1311417  29.6435547   2.3494449  30.4792938
  29.1465034   2.8853126  31.0973701  30.1653309   1.7678462  31.0322170
  13.4296017  13.3451509  73.8542480  13.2730837  12.4604492  74.1844559
  13.2239962  13.9167652  74.5939865  84.8273697  57.2320404  68.8403091
  85.0774155  56.8405991  68.0033646  84.0275879  57.7209778  68.6466064
  41.9885406  23.0456181  78.7043915  41.1826439  22.7731724  78.2656097
  42.5539284  23.3546906  77.9965515  81.0129547   4.5287104  87.6302338
  81.0481873   5.2431722  86.9942093  81.1816711   4.9498386  88.4730988
  65.4579010  67.8928375  89.3458786  66.3808975  68.0577011  89.1531906
  64.9832077  68.3436356  88.6475372  63.5074005  57.7899666   8.9770899
  63.0310707  57.8555984   8.1494207  62.8559036  58.0012512   9.6457787
  43.7311440   0.1170399  34.0239029  44.4165764  -0.1754181  34.6246338
  43.2647324   0.7994244  34.5066490  22.5621262   9.7693567  85.6238937
  21.8065929  10.0780182  85.1237717  22.2438889   9.7068462  86.5244827
   0.7230216  32.9964523  27.9861641   0.3807219  32.1706161  28.3283024
   1.0358362  33.4650040  28.7600098   9.4774227  20.7063484  20.3754845
   8.8138132  21.3881798  20.2707920   9.6354685  20.3874893  19.4869003
  57.5193481  36.8356094  20.3336964  57.9571800  36.3555679  19.6307774
  56.5863152  36.7470627  20.1391563  61.3771400  52.0052071  21.5337887
  62.2235909  51.6675606  21.8266277  61.0078125  51.2987671  21.0039139
  61.5687981  -0.0474841  46.1430626  61.1319618  -0.3010733  46.9561424
  61.5755157   0.9094810  46.1631699   2.0424750  58.0590210  67.0938492
   1.5420282  58.0362701  67.9094925   2.9560614  58.1108170  67.3747559
  36.2945671  35.5691795  71.4255600  37.0082855  35.0548096  71.8027420
  36.7329865  36.2315674  70.8914642  61.1846962  61.9421616  47.3120766
  60.9115105  62.8561630  47.3908386  60.4516640  61.5100060  46.8737373
   7.2748785  48.4872551  84.0084000   7.1167269  48.8217125  83.1255875
   8.1750336  48.1626778  83.9838715  67.9216232  15.1263094  19.8778114
  67.3863754  14.7042303  20.5498123  68.5097961  15.7019062  20.3666611
  40.5257492  34.0074615   7.0487199  39.8846397  34.1305885   6.3486862
  40.1759949  34.5094910   7.7848377  25.3931866   6.3197937  68.2388992
  26.1727314   6.8024263  67.9639282  24.7360382   6.5277915  67.5747299
  16.4255371  41.4963303  25.2716904  16.6547260  40.7774010  25.8606243
  16.9082642  41.3095245  24.4665127  22.4026432  51.8419456  86.8891754
  22.2625694  51.4395943  87.7463379  23.2661095  52.2498856  86.9542999
  55.8008995   6.7420487  17.0055351  55.4831390   5.9298663  17.4000206
  55.2305641   6.8801656  16.2493134  45.3820114   3.4964955  83.2728729
  45.5347290   3.3133435  82.3458557  46.2188644   3.8350215  83.5911636
   0.1808920  52.4980545  79.9234543   0.7403026  53.2697792  79.8355179
   0.6058391  51.8314438  79.3837509  84.3719711  45.1009560   5.7130966
  84.3923340  45.9798393   6.0917606  83.7601929  44.6157417   6.2667389
  43.7846489   7.1573710  10.9716787  43.5903053   7.7898068  11.6634054
  42.9708786   6.6656332  10.8612013  40.7295609  12.1993551  20.0519009
  41.4969940  11.9148035  20.5481987  39.9958611  11.7412310  20.4618263
  13.6756411   5.6239820  75.8183746  13.4160633   6.1555314  76.5709076
  14.5015240   5.2196484  76.0841980  83.0698166  24.6153984  38.9512749
  82.3998947  25.2885838  39.0706902  82.5999298  23.7883148  39.0579338
  64.4241943   6.8212709  26.9852962  64.3803940   5.9997320  27.4745674
  64.4827805   7.4985394  27.6591702  75.8875351   6.1741071  46.6276512
  76.4310226   5.7826285  47.3114624  75.0057068   5.8474226  46.8062286
  55.5849724  23.6714897   2.5383813  55.7416115  22.7470169   2.3459117
  55.3373756  24.0528908   1.6960852  52.4984016  49.3753166  85.5185471
  52.8549194  50.0411263  84.9304810  52.1946793  49.8673553  86.2813568
  48.3008728   5.3842516  10.6809683  49.1129799   5.0406580  10.3085995
  48.5778809   5.8531098  11.4681587  66.6277161  15.8301640  58.6894112
  66.0091095  16.2875252  58.1198730  66.2008820  15.8183775  59.5460930
  22.5601501   9.4561968  10.9073811  21.9445019   9.9680052  10.3827286
  23.2924385   9.2827454  10.3158569  15.1403790  53.2803650   6.7226219
  14.3132257  53.1087341   6.2725191  14.8906479  53.7783241   7.5010214
   3.9232979  52.2977409  56.2761078   3.4939704  52.5917091  57.0795326
   3.3704531  51.5848274  55.9561768  23.1372375  57.4843750  13.0057955
  22.4341106  57.0183334  12.5534115  23.9264793  56.9820137  12.8034048
  75.7955551  16.1269474   5.9081392  76.2238541  15.2797613   6.0308752
  76.3634338  16.7502861   6.3611188  33.8842354  57.2486916   3.4914942
  34.1781883  57.3352394   2.5846689  32.9312134  57.1846008   3.4292648
  45.9679031  19.0873337  38.3384399  45.6952477  19.1122150  37.4212303
  46.9178848  18.9754982  38.3029633  75.6358948  63.7793617  46.5057182
  75.6383743  63.5401459  47.4325409  75.0232849  63.1649666  46.1014175
  83.0971909  41.0273972  71.7729111  83.7407913  41.5212440  71.2648468
  82.9819641  40.2117615  71.2853699  75.2184067  34.3016586  45.7957001
  74.9295502  33.4014359  45.6460533  75.9436874  34.4253922  45.1834183
  68.0089111  45.7174797  85.8978958  68.8564758  45.4927826  85.5139923
  67.4089966  45.7481651  85.1526489  66.7461624   5.6191640  35.6439285
  66.8946381   6.3734689  35.0736542  66.4142761   5.9964781  36.4586143
  45.3691483  64.5246658  53.8180504  45.0043068  65.4096069  53.8151550
  44.7376022  64.0068588  54.3173065  70.3890533  66.1194763  57.8861504
  70.9810333  66.7230148  58.3350792  69.5681381  66.1815720  58.3744888
  27.3160076   1.6314197  88.4735489  27.2809219   1.7353268  87.5226517
  27.9915371   0.9686775  88.6173019   7.7085681  59.8407707  72.5500412
   8.1398315  59.3874359  73.2744217   7.0701528  60.4150162  72.9730072
  23.1977024  19.9462967  71.4997940  23.1344318  20.0853577  72.4447250
  22.2932167  19.9920368  71.1898804  80.5442047  29.9391975  78.6173019
  81.1774292  30.5828781  78.2996063  80.6709442  29.9265862  79.5659866
  21.1745434  44.0460052  70.1641769  21.4407806  43.8374290  69.2687149
  21.6062069  43.3829918  70.7029800  14.4360762  51.5297966  88.3591385
  14.4505186  51.6494942  87.4095612  13.7415504  52.1138725  88.6636353
  77.1496048  38.6523857  12.5220671  76.8238754  39.4815483  12.8722391
  77.6248932  38.8978310  11.7282820  73.3751068  21.6581593  65.1115799
  73.7674866  21.7274590  65.9819107  73.8054657  22.3429260  64.5996094
  71.0792236  66.2508545  44.6285439  71.2458725  65.8166885  45.4651794
  71.9304657  66.2623825  44.1909409  73.5559845  20.8020515  45.6837082
  73.1358032  20.0106068  46.0203018  73.3218155  20.8214073  44.7557945
  59.0199051  20.3364029  28.8763924  58.4685860  20.8467331  29.4695568
  59.9085083  20.4587860  29.2105122  47.2379150  24.0916424  29.7574158
  47.5591049  24.2588253  30.6434860  47.9924469  24.2608337  29.1932468
   6.6613736  18.7294502   3.2471535   6.8865609  19.5044689   3.7618060
   6.7742209  19.0049515   2.3374302  59.2296295  31.3564091  27.4135170
  58.7498817  32.1466370  27.6617451  60.0744476  31.4402943  27.8556461
  19.8251476  34.2899513  14.0983896  19.0298862  34.6853828  13.7414227
  19.5148296  33.5286293  14.5886183  43.6883087   2.7781575  67.0190811
  44.5380249   2.5860369  67.4156952  43.1091003   2.0913165  67.3492355
  12.4669380  39.8217621  80.1999283  12.6377745  38.9045601  80.4139099
  13.0543280  40.0103798  79.4680634  67.1032486  70.7738495  86.4168167
  67.2511673  69.9440002  86.8703690  66.9916916  70.5282745  85.4984055
  29.4641285   3.6130385  66.9285278  28.6118164   3.9965568  66.7218704
  29.2625408   2.7231619  67.2178650  33.4688568  24.9650459  10.6778831
  33.8273735  25.8175068  10.9248753  32.9777222  25.1355286   9.8741703
  59.5933189  46.8038864  78.7793274  59.9671097  47.6057358  78.4138794
  60.0521278  46.6829681  79.6106491  47.4833412  32.8975449  37.5528450
  48.1067657  33.3913956  38.0854683  46.7095375  33.4591484  37.5074081
  16.7296696   2.8905509  71.8402481  16.9884357   2.4170094  71.0496597
  17.4032478   3.5619645  71.9485397  16.0993595  56.9344635  87.9381866
  15.9319105  56.1570587  88.4709549  17.0525818  56.9692917  87.8582840
  27.0876522  62.6055183  50.7890587  27.1116409  62.1919022  49.9261703
  27.1612988  61.8772697  51.4058723  43.7813911  46.9664955  87.7208633
  43.7223587  47.9099884  87.5706558  42.9346771  46.6247864  87.4335632
  13.6489468  29.6994209  74.1543655  13.9037790  29.2881813  73.3284302
  12.7026167  29.8219242  74.0789719   9.7293978  63.9017181  43.4403992
  10.0083027  63.0125999  43.6592827  10.3632450  64.4670715  43.8818130
  69.1854172  52.1432838  12.8970394  68.2453918  52.3036957  12.8142109
  69.2565231  51.1975098  13.0262079  62.5241432   8.2027378  57.9782181
  62.8184662   8.3112831  58.8825531  62.2302589   7.2930717  57.9295387
  76.8902283  68.1692352  67.0710754  76.0045166  67.8227768  66.9628143
  76.8166351  68.7935333  67.7929306  18.0637646  39.3188553  82.4472656
  17.7641411  40.1137009  82.8884888  17.7110577  38.6035995  82.9766464
  29.2359047   8.5177994   9.5249348  29.8438835   7.9650998  10.0159702
  28.8184624   9.0646696  10.1904478  18.8848782  40.9939613  70.9720993
  17.9994907  41.3495560  71.0487366  19.1543713  41.2125092  70.0799942
  54.1789284  48.2647018  63.8250618  53.7070007  48.4944458  63.0246048
  54.8729477  48.9206581  63.8905678   1.9991410  20.3317757   9.5706282
   2.4033101  20.5115585   8.7217712   1.7778895  21.1957073   9.9183397
  70.3133774  33.4234085  57.2648659  69.4660950  33.8599091  57.3533058
  70.5635681  33.5686951  56.3524361  81.4006958  59.7569618  62.4232368
  80.9982147  60.1877747  63.1773224  81.1143951  58.8458061  62.4869499
  56.0903587  30.9575844  62.3061180  56.5813599  31.5257721  62.8996773
  55.2024689  31.3151455  62.3120651  53.9964867  55.6591148  40.8743591
  53.5737228  56.4684715  40.5872269  53.2888489  55.1434021  41.2610435
  52.3915291  48.6941833  66.5270767  52.8926010  47.8788986  66.5054932
  51.8732986  48.6781807  65.7224579  46.7531242  55.9739113  38.2451134
  46.3296738  55.6308556  37.4581985  46.1074600  55.8453064  38.9399567
  82.9762802  60.8604279   3.7554111  82.0247726  60.9551010   3.7990084
  83.2531662  61.5162811   3.1155477  47.7525520  52.6815796  64.7803497
  48.1935921  53.2040367  64.1104507  48.4101906  52.0440292  65.0583267
  57.4334450  66.3122559  60.7377090  57.2539291  67.1908875  61.0723877
  56.9035072  66.2456207  59.9433784  74.1688538  13.1097383  87.6556549
  74.9010391  13.6942234  87.4594040  74.4511108  12.6241655  88.4307556
   0.3131069   0.7329962   8.3664169  -0.0026855   0.0519688   8.9603100
   1.1247176   0.3774942   8.0042868  86.3521729  67.5153503  27.6317444
  85.9632721  66.8213043  28.1639881  86.0022964  67.3678894  26.7530651
  80.9982224  55.1276855   3.4367929  81.0542984  55.9543839   2.9575682
  80.8865738  54.4636002   2.7565293  61.3421021  40.8959503  61.7703552
  61.2628517  40.1281128  61.2043381  62.2027893  40.8043976  62.1790886
   1.5266398  56.4151535   4.0808983   2.3041484  56.3720474   3.5242524
   1.8496909  56.2152023   4.9594712  69.6454010  39.2715836  67.3148422
  69.0113907  39.7545204  67.8449707  69.1097641  38.7443008  66.7221298
  56.3781319  68.6557083  13.2840853  56.3247795  68.3324585  12.3846989
  57.0216293  69.3633270  13.2464952  84.4742508  35.8281250  64.8135376
  85.3697510  35.4982300  64.7394714  84.5770645  36.7446327  65.0698013
  12.7361069  45.6474571  37.1546593  13.1732359  45.2067833  37.8833275
  13.3404799  46.3442612  36.8988647  31.8017960  33.5246658  70.5196304
  32.4637375  34.1695442  70.2702332  31.8576260  33.4810181  71.4742050
  61.6711464   0.8840628  19.6620941  60.7383080   1.0748000  19.5637836
  62.1026726   1.4739879  19.0440292  51.3350258  28.5048046   9.1434908
  50.4119682  28.7326584   9.2542944  51.5274010  28.7215900   8.2312250
  49.1813850  38.1200256  86.0897064  49.3289146  39.0436668  86.2930679
  49.1616554  38.0855370  85.1333313  22.1103477  54.5959549  63.3487930
  22.1719246  55.5474739  63.4327850  22.8156567  54.2605171  63.9021912
  10.9232979   5.3724709  12.9298487  11.5397682   5.1267471  12.2400551
  11.4584017   5.4248362  13.7217789  20.2766380  42.3374214  10.9276476
  21.0815964  41.8504715  10.7511368  20.5702324  43.2330627  11.0945463
  53.4617157  30.2489758  31.1794682  54.0166206  31.0285244  31.2043152
  52.6584206  30.5123806  31.6284256  20.7041054  65.8456268  60.0745163
  20.9501591  64.9957657  59.7092323  21.5367050  66.2975464  60.2115479
  74.6299896  58.4817390  71.2532425  73.7142944  58.2441101  71.1074371
  74.6714249  59.4149666  71.0444412  64.8973846  67.5683441  86.3174820
  64.7805786  68.1617126  85.5755234  64.2322464  66.8918686  86.1901855
  69.1703796   6.5875201  22.9104652  68.4502716   6.9709644  23.4111137
  69.7632523   7.3203468  22.7440186  19.2449245  44.7134476  75.6615524
  19.7484894  43.9588242  75.9668350  19.0825748  44.5342369  74.7353973
  15.8245401  14.6718311  78.8646469  16.6336632  14.2914953  79.2065506
  16.0085258  15.6090412  78.8012543  77.9052734  32.8594017  44.2196426
  76.9636765  33.0315323  44.2184296  78.2215424  33.2518501  43.4058914
   7.2904992  55.1432991  88.4633636   7.9410219  54.7972145  87.8523941
   6.6087050  54.4720917  88.4928741  55.9393196  18.4317036  43.5910530
  55.1115913  18.2133369  43.1627846  56.1136055  19.3355865  43.3286514
  81.7895737  61.8062401  81.8420944  82.2654114  61.0232162  81.5651779
  82.3086014  62.1587906  82.5649719  54.2346268  34.8688660   4.5305519
  53.5724564  35.5597534   4.5096955  54.7979355  35.0542412   3.7791831
  22.6795330  49.6715393  16.1752777  22.2844505  49.7598686  15.3079033
  22.1463585  50.2315636  16.7394829  66.3225479  13.1451406  14.7138767
  66.8538666  13.4097462  13.9629364  66.8714371  12.5199366  15.1872387
  20.5767479  18.0991306  66.8994064  20.1201820  17.6113071  66.2139816
  21.4064102  17.6350956  67.0114975  11.7869139   9.6048012   4.5461135
  11.1179476  10.0135498   3.9968963  11.3612995   9.4887562   5.3955946
  25.3497410  61.7278137  25.6011143  24.6799088  62.4033775  25.7068100
  24.9943619  60.9647827  26.0568790  78.3443298  32.9862671  82.1755753
  77.6754913  32.9594650  81.4913483  78.6248627  32.0762024  82.2720642
  39.2815399  18.2534389   3.2044239  38.3857193  17.9190903   3.2485707
  39.3623734  18.8235245   3.9690807  33.4120293   1.9654443  50.7168312
  32.6768494   1.4799989  50.3425484  33.0174904   2.7627389  51.0702362
  57.6340523  38.2462234  70.9327698  58.5443573  38.3499756  71.2099152
  57.6462708  37.4873352  70.3495255  35.5182190  45.6511688  42.0204659
  35.3153839  45.2465706  41.1770287  36.2767220  46.2074280  41.8430328
  12.8658438  65.8087311  20.3625183  11.9347773  65.8765717  20.1509914
  12.9855852  66.3970795  21.1079979  49.5861626  37.4205856  32.6872025
  48.7891960  37.0105553  33.0232811  49.3512764  37.7149773  31.8072071
  30.9921741  54.3857803   6.2483191  31.3027363  54.1468239   5.3750019
  31.7539997  54.2643394   6.8149800  77.5214767  17.2187099  10.5778875
  78.1349564  16.5608654  10.2505980  76.7642822  17.1504250   9.9963179
   8.9253979  51.4669304  43.4874611   8.4515371  52.1430283  43.0031242
   9.6514721  51.9333763  43.9015617   4.0449848   8.6291494  31.6143055
   4.4896903   9.0815382  32.3311119   3.2214599   9.1046982  31.5052567
  27.0199642  57.3964767   8.8576174  26.6505070  57.8511314   9.6145992
  26.9639606  56.4683342   9.0848808  30.8445835  25.7127647  85.4185562
  30.5600243  24.8122101  85.5743027  31.2947807  25.6791115  84.5745087
   4.2614365  71.0369492  57.3753281   5.1531134  70.7263184  57.5323524
   3.7151446  70.2573166  57.4752045   0.9852878  48.9626083  82.7743301
   0.3665557  49.6120262  82.4401779   1.8453573  49.3006363  82.5248337
  61.6216049  51.9581413  25.7713127  61.9658546  52.3551750  26.5713692
  61.3698921  51.0723763  26.0326328  81.4244614   7.2131510  30.4433231
  82.0970612   7.1182899  31.1177464  81.2624207   6.3200722  30.1393757
  79.3336487  16.8567543  59.4737053  78.6513596  16.2445850  59.7493095
  80.1299286  16.5335693  59.8952866  53.7986031  40.8714676  20.1017799
  54.2204132  40.3855057  20.8104038  54.3422546  40.6953850  19.3338833
  21.5416851  64.6215973   9.7912960  21.8793869  65.4127655   9.3714819
  21.0664444  64.1659775   9.0964651  66.5689240  20.3410397  57.1776085
  67.1382828  19.7660389  57.6889153  67.1588287  20.7770844  56.5627060
  21.8309364  36.6266556  83.5858078  21.5574780  37.5275154  83.7587357
  21.5583591  36.4627190  82.6830063  23.4244480  51.9768639  59.8983002
  22.6175442  51.6884384  59.4717445  23.6594772  51.2539406  60.4799957
  76.9824371  15.8872528  51.2713852  77.4390335  16.4223061  51.9205933
  77.6273575  15.2321873  51.0045509  47.2511635  49.7661247  45.2632103
  46.5349464  50.0639076  45.8240929  47.1060028  50.2154121  44.4305611
  70.0548859  17.9053078  16.2379284  70.7791138  18.2067356  16.7864456
  69.5383453  17.3402386  16.8124886  75.9828415  59.0913086  74.2362518
  75.8868866  59.5169563  73.3842850  76.3437042  58.2282295  74.0335083
   6.2310629  26.3765240   3.1734128   6.5745311  25.9402428   3.9531052
   6.7719812  26.0460567   2.4561744  76.6897202  23.1928959  36.9937172
  77.2563171  22.4375954  36.8364868  76.0776215  23.1904507  36.2578087
  48.6858673   6.1611743  76.9012375  48.5278969   6.1428065  77.8451309
  49.6080399   6.4036570  76.8173981  57.0301247  24.2258263  38.0050735
  57.7019730  23.6942196  38.4319763  56.2815399  23.6365452  37.9123306
  72.7699127  27.3701744  48.4693184  73.3890610  27.6936073  47.8148956
  72.4525223  28.1588707  48.9091568  63.2657433  45.9350243  85.5569382
  63.6877327  45.7970009  86.4049377  63.8383789  46.5526772  85.1021576
  45.4247704  58.0645905  87.9966431  45.1501808  58.9143829  88.3411407
  44.7711487  57.8539238  87.3298340  69.4329147   9.3827200  67.1027527
  68.7418518   8.9107904  66.6380539  70.0805588   8.7107372  67.3154221
  62.5185661  42.6186028  75.8709106  62.3602371  41.8542328  76.4249039
  63.4665527  42.6262932  75.7386246  43.0538979  14.7763166  29.0012989
  42.8626213  14.1879396  28.2709179  43.4581375  14.2141447  29.6621952
  66.3663406  25.5451641  16.3707390  65.8807449  25.0411530  15.7177486
  65.7653275  26.2437458  16.6295795  38.7691689  41.7723351  42.2984428
  37.8862495  41.6431732  42.6448631  38.7546501  42.6551590  41.9287910
   0.4808340  33.8441658  46.7255173   0.6090261  34.0391464  45.7971954
   0.3694154  32.8940086  46.7575264  84.9772568  65.4690781  23.0705833
  84.3125839  66.1576767  23.0540295  85.4088440  65.5731201  23.9186058
  18.1849747  55.7197266   4.8059959  18.1883106  54.8907204   5.2845068
  18.8498173  56.2514992   5.2435260  12.7717896  30.1986275  63.4637985
  13.7110329  30.3822422  63.4822464  12.5953789  29.7683754  64.3004532
  50.5546265  43.7941170  24.4502983  51.1953278  44.3899727  24.8384876
  49.9033775  44.3703079  24.0501595  18.5771618  64.6344452  61.4722443
  19.2420616  65.1758652  61.0467949  17.9676380  64.4076385  60.7699089
  83.6133347  70.9093018  31.1402206  83.4728394  71.7959061  30.8079128
  84.0184097  70.4412537  30.4101009  10.6641884  55.8395767  82.6366425
  10.9662676  55.5509987  81.7754211  10.7983589  56.7873192  82.6323395
  32.3143883  65.3794098  58.9722099  32.4420853  65.2580490  59.9130592
  32.8431892  64.6914902  58.5680275  62.7748642  61.2460747  37.5649147
  62.7676163  62.1980782  37.4655838  61.8815117  60.9762383  37.3519783
  14.2818794  60.6079865  68.0370636  14.6359110  60.7157135  67.1542892
  14.9124842  61.0521660  68.6038742  41.4904404  26.3834324  67.9528122
  41.0152092  26.5799198  68.7601471  40.8057823  26.1831245  67.3145752
  11.8108540  66.5229111  62.0726471  12.3141985  66.9916840  61.4069672
  11.2557831  67.1939697  62.4698982  55.1415024  38.4590530   8.0614166
  55.8628311  37.8308983   8.0979643  54.7026253  38.2717743   7.2316294
  56.5643730   8.5133657  75.0353851  57.0275841   7.8038383  75.4806213
  56.3471527   8.1547127  74.1749115  14.7466717  70.0898895  71.8081970
  14.7019205  69.2067642  72.1747055  15.3846846  70.5451813  72.3576355
   3.3965461  23.0694809   7.6619239   3.3895736  23.8085346   7.0536618
   2.7487910  22.4608154   7.3067169  35.0397644  62.4608879  43.3676567
  35.7057228  62.7687988  42.7529030  34.2997513  62.2115784  42.8140717
  47.2180290  26.7586899   4.6113124  46.7306633  26.4380436   5.3701873
  47.6371727  25.9782887   4.2486477  83.4662323  48.9351578  63.8274117
  82.9133987  48.1573029  63.9018974  84.3343353  48.6391373  64.1012573
  28.9582539  56.2865715  40.7299004  29.8097897  56.6575203  40.9612350
  28.9656429  56.2480011  39.7735062  22.0779514  50.3130684  79.7542801
  21.2528477  50.7272530  80.0070419  22.4661312  50.0280266  80.5815048
  51.2504120  58.3749237  77.6967926  50.8715744  59.2513580  77.6291733
  50.5352859  57.7857018  77.4567108  59.9522095  36.3841972  11.2926044
  60.0733986  35.4531517  11.1063347  59.8506966  36.7895164  10.4314165
  23.2444668  24.8617268   4.2526517  23.9104843  24.9789257   4.9300871
  22.4202003  25.0822735   4.6864452  83.4625778  28.4926567  38.5539436
  84.3178787  28.1111107  38.7516937  82.8714828  27.7415619  38.5019951
  55.0526848  16.6913338  82.1943893  55.7833290  16.2751102  82.6517181
  55.2151718  17.6300049  82.2877884  35.3282585  57.9315453  28.8877201
  36.0179443  57.7185974  29.5163879  34.7262688  58.4947128  29.3742199
  48.8949242  52.9222527  31.4944553  49.2221718  53.7716751  31.7904682
  48.9078712  52.3739700  32.2789612   3.2305062  37.1329651  67.9510422
   3.5821466  37.9565773  67.6130447   3.0690343  37.3042984  68.8788376
  53.8106651  30.5310287  45.1360092  54.7275200  30.7261276  44.9422417
  53.8083992  30.2854042  46.0611534  61.8468819  40.6261749  72.5841904
  61.0790787  40.2444038  72.1587982  61.8324661  41.5468941  72.3228378
  16.3476334  56.2453957  73.7094955  16.0581589  55.4322166  74.1232300
  15.5773973  56.8132324  73.7325211  15.0660782  46.5666542  40.8534126
  14.1221142  46.6900558  40.7537346  15.3069696  45.9754257  40.1402168
  73.5868378  50.0675507  56.8227501  73.1851044  50.6785088  57.4404678
  74.4874954  49.9715309  57.1323166  35.1897888  49.7170029   3.5272548
  35.1792488  49.9285736   2.5937891  34.8892441  48.8092384   3.5705032
  36.2280655  62.1064339   2.5794218  36.6389580  62.9708633   2.5919323
  35.8235397  62.0460281   1.7140067  36.7726707  69.4400101  36.4656448
  36.1916237  69.8368530  35.8167000  37.1660843  70.1840057  36.9216461
   1.0658913  22.2511883  69.8268280   1.0960327  21.5305710  70.4561386
   0.2268503  22.1431351  69.3789825  57.7225838  71.3340302  24.8609467
  57.9242020  71.7482910  25.6999760  58.5674934  71.2717056  24.4154434
  27.5002766  52.5007782  10.2685413  27.8588943  52.4350166  11.1535845
  28.0771313  51.9540138   9.7351370  49.5868797  70.1782379  56.2447815
  49.6712914  71.0779724  56.5603523  50.0703506  69.6540985  56.8833504
  84.4898071  44.3284988  75.1934128  85.1882095  44.5592041  74.5808411
  84.9461746  43.9543762  75.9470673   5.3288069   2.8109896  18.8338509
   5.4509850   2.0917628  19.4535427   5.3271561   2.3891485  17.9746189
  10.7339449  69.8868790   2.8244390  10.1936636  69.4976425   3.5120602
  11.5882874  69.4670029   2.9246316  29.8521347  51.9199448   2.4970477
  29.4845581  52.4664230   1.8024371  30.5006943  51.3731117   2.0536811
  65.3687210   9.4563341  82.5063782  65.1160812   8.5545349  82.3084793
  65.2264328   9.9302387  81.6869888  20.6293106   0.3743654  60.2721863
  21.5264359   0.0737823  60.1270981  20.7213516   1.1345663  60.8465157
   2.1046965  39.6460915  82.7949142   2.7415094  39.2898827  82.1753845
   1.7665988  38.8796844  83.2581024  51.5426712  26.3655472  28.3578815
  51.3002090  26.3678093  27.4319019  50.8514824  26.8692932  28.7876816
  40.7409859   2.8124390  80.9322281  40.4943199   2.2822039  81.6900177
  40.3978996   3.6843152  81.1280823  73.4613037  30.4489174   5.5352006
  73.8856506  30.7036591   4.7158923  74.1831589  30.3344688   6.1533113
  64.1156998  68.1477585  30.8781738  63.5608253  67.9556808  30.1222267
  64.6307068  68.9087601  30.6100655  25.5438805  47.9367714  45.8282433
  25.7653580  48.7466698  45.3686295  25.0296440  47.4352760  45.1955605
  42.9268494  29.9935722   4.6904898  43.3473206  30.2601643   5.5080247
  42.3508949  30.7249508   4.4677877  47.5189400  13.5438433  74.4541473
  47.2875862  12.9266653  73.7600327  47.4896545  13.0233955  75.2569656
  48.1190414  39.8401756  88.7323608  47.6735725  39.8377686  87.8851395
  48.5300941  38.9776039  88.7892761  53.0601730   6.6817198  22.9927101
  53.5178528   7.4641600  22.6852245  53.3445549   6.5792809  23.9009304
   0.8457830  64.5211258  30.8868408   1.3298218  63.7027893  30.9976139
   1.4857401  65.1298676  30.5179005  86.0352325  59.4726372  66.9976730
  86.7002563  58.7941208  66.8811188  86.3600616  60.0040321  67.7245407
  34.8638382  42.6720123  40.7123795  35.1837006  42.3815269  41.5665131
  35.2519264  42.0573845  40.0896034  78.5926514  20.4256973   4.6789970
  77.8054123  20.9598541   4.5733147  78.3606567  19.7881851   5.3542666
  76.1805954  12.6496305  18.6139393  75.3921432  13.0621986  18.2612858
  76.1536255  12.8433256  19.5509472  24.5191708  14.5096130  86.8509521
  24.5091667  14.9616117  86.0072479  25.2195969  13.8625374  86.7677155
  86.2677917  63.6457367   4.1197538  86.5408478  64.5567703   4.0116315
  85.6385880  63.6682396   4.8407431  54.8514252  11.2097473  69.0465164
  55.6045341  11.5329599  68.5519485  54.9510155  11.5982685  69.9156342
   6.7034135  40.7414246  84.4842377   7.1288881  40.1748734  83.8406372
   6.7252417  41.6125221  84.0880737  60.0192757  12.6550388  80.8072891
  59.6989174  12.2626801  81.6194763  60.6626892  12.0284777  80.4761200
  81.1164246  48.5385056  41.7390175  80.1903992  48.7797165  41.7621078
  81.3335419  48.5107956  40.8071823  81.9303818  29.4273338   3.8637707
  81.1310349  29.1038837   3.4482472  82.5421829  29.5554447   3.1388493
  62.3438911  64.5568924  77.8263245  62.5947342  65.1437073  78.5397415
  61.4977913  64.8905792  77.5279922  54.0084724  68.8669586  39.6270218
  53.5689011  69.6199112  40.0220680  54.8746300  68.8544693  40.0342636
  32.6601334  50.9541054   4.4457345  32.4119987  50.0339966   4.3559680
  33.5738487  50.9291420   4.7298727  42.0340080  11.4393530  66.4422989
  41.1584549  11.2793951  66.0900879  42.5075798  10.6221104  66.2871323
   1.5608987  52.0715065  19.2009125   1.3646190  51.7460251  20.0794163
   1.1813343  52.9500008  19.1806183  26.2139587  12.8056889  77.9468918
  25.3938313  12.3578367  78.1543808  26.5803947  12.3079453  77.2160034
  23.7657070  56.1993370  44.6268005  24.6902161  56.3359032  44.4197655
  23.7189922  55.2915459  44.9267349  47.3519249  20.5133247  71.0827026
  47.2322464  21.0655060  70.3100433  46.6581879  20.7872581  71.6826401
  31.4629784  58.0510063  72.5607300  32.2009239  57.8320312  71.9917679
  30.6925888  57.9578896  72.0003204  14.7823172  62.2719002  31.9980125
  15.1936121  62.8651161  31.3693924  13.9786205  62.7207260  32.2604179
  74.6885071  54.8992310  31.2948074  75.0210419  55.3007736  30.4920540
  74.2990189  55.6251755  31.7821846  32.4912567  64.9029083  20.4405003
  33.3352432  65.3449631  20.3482990  32.0046616  65.4431458  21.0630722
  57.9185333   9.8491249   1.0054322  58.3642006  10.6958809   0.9806111
  58.3828773   9.3150854   0.3609003   6.4344816  16.2816486   1.3660618
   6.0697250  15.6587811   1.9947269   5.6734819  16.6169453   0.8920493
  28.5957928  15.8740530   2.7330093  29.2565289  16.1394501   3.3727155
  27.9765472  16.6036472   2.7115366  52.4779015  21.0006466   6.4959674
  53.1895409  21.4582729   6.0483303  51.7004166  21.1976871   5.9735432
  20.2770710  54.9881363  32.5248909  20.6285877  54.6011086  33.3266869
  20.8662872  54.6847878  31.8342113   8.9687586   5.1832132  51.4070587
   9.7082539   5.5663519  51.8788452   8.8783255   5.7248225  50.6230240
  57.9171600  29.0714798   2.3683836  57.3812675  28.2802258   2.4228873
  58.7078285  28.8599148   2.8646889  53.6522560  61.2433662  66.2319107
  54.1078720  61.2149048  67.0732422  54.0027809  60.4979286  65.7443695
  60.2113686   4.5188012  70.2536621  59.7165756   3.9782560  69.6378479
  61.0807571   4.1190696  70.2782974  29.8969383   8.5202169  84.3983612
  30.5483570   8.9257498  83.8261490  30.3028812   7.7004461  84.6801758
  43.4925423  61.5185699  71.8139420  43.5678902  60.6601105  71.3972778
  44.0226440  61.4468918  72.6077194  42.2778778  65.0063629  19.7041817
  42.8705444  64.2626724  19.5950794  42.4221497  65.5438614  18.9253941
  26.4820843  58.8914261  38.1329269  26.5180454  58.3467674  37.3466148
  25.8422050  59.5719261  37.9238625  64.8113098   3.9043901  23.6695309
  64.3991318   4.5996413  23.1567249  64.2955399   3.8628321  24.4748173
  29.1157837  33.9785080  76.8632965  28.3767548  33.8928642  77.4655685
  28.8426552  33.5014992  76.0796509  80.1161194  41.0058517  48.9554482
  79.8369675  41.1405487  49.8610764  80.8947906  41.5544243  48.8607216
   5.8289547  16.4150028  68.5819702   5.8573837  17.3716850  68.5954666
   5.7332611  16.1652374  69.5010376   5.2743306   9.5790977  66.4404144
   5.7010365  10.4179087  66.2656250   4.3692565   9.7069950  66.1563110
  15.4622984   7.9268198  82.6584930  16.0541763   7.4032245  83.1986465
  14.5861845   7.6791129  82.9539566  72.8587570  21.0783634  20.1936874
  73.2844849  20.6502209  19.4509335  73.5434875  21.1391430  20.8597813
  48.6910248   2.9832897  49.8048019  48.9600983   2.5371437  50.6077881
  49.4003220   2.8106232  49.1856766  50.5058746  41.9476967  82.9836273
  50.0610390  42.2322350  83.7819977  50.4387779  42.6971474  82.3919754
  19.5176849  65.0802002  46.6527252  20.2810764  64.5052109  46.7061920
  19.8739357  65.9268799  46.3835487  59.8993454  28.3636208  77.3808823
  59.1455612  27.7739887  77.3615723  60.5690384  27.8804569  77.8649216
  72.6414108  67.7575455  50.3266182  72.6094437  68.0936966  49.4309540
  71.7452011  67.8508987  50.6496086  48.9021721  70.9850082  53.6575241
  48.6938095  70.6530151  54.5307922  49.8020554  70.6988068  53.5009003
  17.3135300  60.2467728  49.9233170  17.4734001  60.5364151  49.0251083
  16.5192661  59.7156601  49.8659248  26.1289062  30.4404678  83.9182892
  25.6745834  31.1298218  84.4026566  26.5760059  30.9013481  83.2084122
  60.1508675  40.5828323  57.5564041  59.5648880  41.0569229  56.9664040
  59.8098412  39.6884842  57.5650406  -0.0335605   6.9882331  88.4773712
   0.7279066   7.0222058  89.0563736   0.0883776   6.1870055  87.9680634
  67.5543137  69.0103455  30.4125290  68.0296402  68.1857605  30.5142975
  67.8226318  69.3370590  29.5537567  62.2132034  65.4413834  60.3549500
  63.0777931  65.4504395  60.7656059  61.9171333  64.5351028  60.4399910
   5.0198722  16.9496136   4.4519649   5.6544733  17.6272888   4.2190070
   4.1679196  17.3734932   4.3483577  50.2945404  23.0230789  74.8009109
  49.5083847  22.8923855  74.2707138  50.1237488  23.8292847  75.2878342
  39.5173187  26.8496876  15.7286291  39.1013565  27.5522499  15.2290173
  39.8831177  27.2867985  16.4976254  29.9182873  70.1581116  51.5065422
  29.1331806  69.6109924  51.4841728  29.6951485  70.8729630  52.1027184
  36.9357948  18.9792061  74.5929794  37.7397614  18.7591667  74.1223907
  36.2325058  18.7537518  73.9840622  11.5771341  48.7753296  54.9630318
  11.2291784  49.3179016  54.2553749  10.8008509  48.4358673  55.4084320
  33.6884079  54.1006508  87.0128784  33.8435860  55.0428391  87.0794601
  32.7407646  54.0065689  87.1095657  69.7499008  49.4005890  31.8153858
  70.6444931  49.0601387  31.8105412  69.8106079  50.2266808  32.2950897
  67.2533951  38.2915993  60.2819405  67.3387604  39.2243690  60.4791412
  66.7863693  38.2651100  59.4468231  22.1294060  38.4198456   0.5967629
  21.9141846  38.2223892   1.5083129  22.5235691  39.2915916   0.6271532
   8.2855940  58.1397972  74.9161835   7.6438823  57.4719009  75.1577454
   9.0437403  57.6432304  74.6081772  69.3403320  51.0396690  60.4602585
  69.8533554  50.4575768  59.8997192  69.9506683  51.3113327  61.1457596
  61.3249435  17.5421848  83.7721024  60.8313217  18.2744274  84.1414108
  61.8265610  17.1951771  84.5097961  44.6989746  35.0703201  13.9065256
  45.1725197  35.6531219  14.5000973  44.0997543  34.5856552  14.4742107
   1.6806620  11.3083687  19.5184193   1.6269703  12.2150221  19.8206234
   2.5660889  11.2260046  19.1642056  36.1666756   9.8997984  21.4560318
  35.5591125   9.3708200  20.9390354  35.9185410  10.8044271  21.2654800
  30.2152958   3.4355755  12.3566694  30.0603733   2.5144565  12.5658836
  30.5575829   3.4238837  11.4628382  45.3444176   8.5182848  30.7302399
  44.6812592   7.8753862  30.4789715  45.3380432   8.5073891  31.6873550
   8.9816036  22.8722382  10.9275475   8.1226521  23.2046833  10.6669445
   9.5669394  23.6242123  10.8372784  48.9261246  56.3682671  40.0004425
  48.8207741  55.9386902  39.1515617  49.1442375  55.6573830  40.6031914
   4.0046773  39.5630646  35.1111565   3.2276435  40.0434723  34.8253975
   3.6829760  38.6837196  35.3098907   7.3240776  63.6130028   9.3480244
   6.5013556  64.0950546   9.4315977   7.2734284  62.9342766  10.0210781
  44.0844078  68.6865463  35.3223305  43.8376045  67.7769318  35.1552086
  43.3463097  69.1993637  34.9929924  15.8074551  55.1935539  49.4462776
  15.6670628  54.3984985  48.9320717  15.9349279  55.8817291  48.7932854
  48.6807709  59.2678185  39.7759590  49.5718002  59.5837021  39.6258926
  48.7898827  58.3468590  40.0129433   3.1560013  52.7655220  70.7317810
   3.0423460  53.5966415  70.2707443   2.6229892  52.1426697  70.2376251
  44.2177010  67.1593018  43.8981361  44.2966805  68.0542831  44.2282829
  43.4582138  67.1848679  43.3161049  18.9864807  64.2981110  74.4333878
  19.0307407  65.2210464  74.1834793  18.1219826  64.0114365  74.1389542
  53.7983551  41.1861076  25.5538368  54.2729607  41.7574310  24.9500389
  52.8840485  41.4571609  25.4713345  18.5281048   0.4789295  50.6310768
  18.4963875   1.4167991  50.4423256  19.3597469   0.3546476  51.0884132
  43.2057152  71.2130966  63.2080231  43.4147491  71.9764404  63.7463989
  44.0428391  70.7627029  63.0957603   7.1617751  40.8427162  55.9454193
   6.9234519  40.3475914  55.1616554   6.4208860  41.4308701  56.0916634
  18.2556934   5.5760059   0.5426084  17.9297752   6.4635525   0.6918410
  17.5629578   5.1479015   0.0395430  61.7943344  61.5705490  68.5070953
  62.6258621  61.4387360  68.9625320  61.1277428  61.4221230  69.1778107
  33.7386398  50.8645630  35.7318039  33.5315933  49.9318581  35.6732674
  34.1701736  50.9612961  36.5807152  19.0536995  16.3557663   3.7853768
  18.7171268  17.0266895   4.3793559  18.3034077  16.1211643   3.2392473
  48.7844887  32.6145363   9.0617943  48.9982948  33.4003525   9.5647964
  47.9437752  32.3247871   9.4160299   6.4838047  59.1385422   7.7739744
   6.4093313  59.2603760   8.7204638   5.5790596  59.0668297   7.4697943
  18.1731987   3.3352654  76.8497620  17.7221470   4.1514087  77.0658493
  18.0110912   3.2124140  75.9144211  79.1321945  48.8996353  19.8133564
  79.6162720  48.6132431  20.5878773  79.4876404  48.3702621  19.0994568
  83.2995071  37.9490128  17.4108467  83.4388351  37.2421837  16.7805958
  82.5059967  38.3889313  17.1058159  62.0405426  36.3651390  86.4359283
  61.3832664  35.8804283  86.9352036  62.0155716  37.2491722  86.8021164
  46.8256645  45.6406517  47.4399376  46.8379440  46.1287270  46.6166115
  47.7107925  45.7400322  47.7905121  62.5887413   7.9781342  10.9041805
  63.2942276   8.2890778  11.4714880  63.0181961   7.7883072  10.0700531
  70.2863541  10.2766123  39.6592598  70.4574966  10.9475050  38.9983139
  71.0270691  10.3399591  40.2622223  53.7940941  54.1016884  38.6705742
  53.9170876  54.6243744  39.4629784  54.4827385  54.4009972  38.0769310
  65.9874268  27.7081928  46.0066681  66.5606689  28.1025047  45.3492889
  65.1479797  27.6013298  45.5593109  15.3308887  22.1035995  10.2419434
  15.0870953  23.0273018  10.3017044  16.1000443  22.0952644   9.6722393
  14.7029419  44.4856567  59.4917870  14.4061041  44.8526192  58.6590462
  14.9391899  45.2487450  60.0191536  36.4761086  36.8410492  10.6923532
  37.2458344  37.0095177  11.2358360  36.3742409  37.6356621  10.1684761
  66.2561493  14.5496836  34.6739273  65.5714645  14.3144588  34.0477448
  66.9516296  13.9103279  34.5197639  62.9691811  42.6936989   8.6714468
  63.0833054  43.4040527   8.0400953  62.4855385  43.0918884   9.3951645
  86.1609116   0.3564699  35.8159828  85.3999100   0.8903680  35.5878067
  86.2079010  -0.3021401  35.1229744  41.8376617  65.3400650  10.3933182
  42.7792854  65.1800613  10.4563255  41.5791931  65.6000214  11.2775393
  48.8569794   4.7505808  17.6539421  49.1742210   4.7601576  16.7508926
  47.9918213   4.3446498  17.5995808  18.9372578  55.3584366  18.1483707
  18.3882446  56.0453339  18.5265102  18.3754482  54.9318085  17.5013866
  54.9460793   3.2353978  56.2004051  54.5147552   3.0682354  57.0384064
  55.0646019   2.3674092  55.8146820  51.4949646  36.5946960  86.3865585
  50.8107376  37.1827660  86.0668106  51.5093689  36.7362595  87.3331223
  59.1133080  23.8837681  28.9905872  59.1399612  23.5809669  28.0829334
  58.2877808  23.5412159  29.3332100  31.2727585  28.0512657  79.7875290
  32.0211830  27.8962193  80.3637695  31.3093662  27.3380165  79.1502151
  56.2704506  22.3152370  76.9624252  57.1345711  22.4632931  76.5782318
  56.0416946  21.4233150  76.7009277  51.5903053  45.3573151  66.7185745
  51.2099190  45.8367958  65.9826202  52.4382515  45.0539970  66.3942108
  20.9356670  46.3372688  40.2715378  20.3442307  46.2702560  39.5219078
  20.4424515  46.8374100  40.9217911  55.0662041  13.3693266  58.4155617
  55.7839813  13.1579523  59.0125122  54.3880005  13.7419796  58.9789391
  68.0089951   8.4659081  24.8715363  67.5181351   9.1941423  24.4907875
  68.4855270   8.8555450  25.6045628   6.5305247  33.5132408  36.8467178
   6.4309897  33.8860626  35.9707451   7.4654150  33.5928917  37.0361099
  14.7203665  54.2097435  62.0150032  14.1309633  54.5678215  62.6787910
  15.5938597  54.4769478  62.3010902  71.8735962  51.6352196  20.4299335
  70.9338074  51.8120613  20.3880730  72.2384949  52.0996857  19.6767044
   8.2529001  62.8410797  77.2946472   8.1601171  61.9193954  77.5357208
   8.5391579  62.8221436  76.3814468  62.1763039  47.1955299  42.7454185
  61.6660576  47.0081367  43.5333023  61.5242424  47.4511032  42.0929375
  35.7672234  55.0249519  72.5343552  35.6642914  54.7534485  73.4464493
  36.1343193  55.9073868  72.5870972  66.1297302  30.5164661   0.7459666
  65.2447586  30.8153286   0.9550837  66.4715729  31.1805019   0.1472714
   9.2850876  64.5197601  79.4360580   8.9808607  64.2325974  78.5751190
   8.6096516  65.1268234  79.7385483  72.1432800  28.8695812  22.6887169
  71.5529099  28.9898033  21.9449120  71.7374725  28.1744022  23.2066746
  63.5848579  38.8087463  30.3694897  63.1364326  38.0667152  30.7751198
  64.1004105  39.1935959  31.0782433  30.9630451  26.6983852  87.9087601
  30.5596714  26.4098244  87.0900726  31.2936420  25.8943329  88.3093033
  75.1275024  58.9753799  23.3383465  74.7810059  58.6488075  24.1687241
  75.4148331  58.1897125  22.8731632  80.7544861  50.9017143  38.8635979
  79.8667755  51.0947380  39.1651649  80.8099442  49.9462318  38.8781929
  50.5480232   1.8747153  56.6556206  49.6101379   1.6901858  56.6051331
  50.9209290   1.4300742  55.8943939   9.8894968  38.8410034  85.0064621
  10.6219063  39.3105659  85.4056091   9.4846163  38.3668900  85.7327652
  56.2031136  49.4923363  34.3141556  56.3017197  49.1788483  35.2131729
  55.7498970  48.7813988  33.8609505  79.1473083  57.9478722  46.5319633
  78.8561630  57.0373726  46.5815697  78.5628128  58.4189224  47.1258545
   1.9206315   7.2223859  15.4843836   2.1692975   6.4754629  16.0289040
   1.5032395   7.8331804  16.0917931  66.7264328  14.6174326  10.8423252
  66.6246643  14.7401972   9.8985004  65.8560104  14.7895126  11.2014666
  29.7458782   2.1183345  39.6940460  30.2167530   2.4211469  40.4704590
  30.0034237   2.7297840  39.0040932  77.8255234  35.8850517  22.9979210
  76.8794632  35.8137093  23.1248722  78.1606445  36.1683464  23.8486080
  33.5317802   2.9193289  67.7307434  34.0658302   3.6961520  67.5647049
  32.6301460   3.2195466  67.6160583  84.2347565   1.9282544  34.2419701
  83.7022400   2.3871989  34.8916054  84.0645294   2.3918531  33.4220123
  13.9216881  46.6878815  34.7449036  13.1914940  46.7115326  34.1264458
  14.3013277  47.5654755  34.7009315  48.2786484  17.4614334   9.3583097
  47.8272552  17.1438637  10.1403742  47.6341629  18.0157013   8.9182444
  18.2259426  51.8581314  19.1182766  17.4952812  52.4294662  18.8817539
  18.8017273  52.4116249  19.6458645   7.1080136  11.0428343  14.3043365
   7.6854548  11.0435658  13.5409279   7.4930191  10.3956642  14.8952456
  11.8404150  63.2396622  16.9933376  11.3675795  64.0474930  17.1934929
  12.6888771  63.3458939  17.4235229  80.0214462  55.7310600  45.0039482
  80.5608978  55.8479004  44.2219162  79.1235199  55.7030258  44.6735268
  44.4844360  57.1435814  82.7113419  44.8323174  57.7438354  83.3708115
  45.0064011  56.3476601  82.8128052  42.3646507  39.0452995   1.0358578
  43.1257172  38.4950981   0.8506935  41.8628731  39.0422249   0.2207240
  76.8019791  38.4526253  84.7163467  77.1261597  37.6243782  85.0701141
  75.9589539  38.5847054  85.1500473   9.3054695   9.1761389  80.6780777
   8.6902094   9.4678631  80.0053329   9.6113119   9.9844103  81.0896454
  24.2192020  63.9040718  48.9864006  23.6416092  64.0997696  49.7241821
  24.9851913  64.4604034  49.1277695  43.8957558  41.5629463  11.2455931
  44.2446365  41.1024055  12.0087557  43.5869026  42.4002495  11.5916595
   3.2362375  47.7974892   1.8358918   2.9164021  48.2250023   1.0414304
   2.6464994  47.0541382   1.9618735   0.6568722   5.7066288  76.9722366
   0.2456953   5.3548951  76.1826553   0.0116475   5.5599942  77.6639175
  44.9711609  23.1839542  82.6890564  44.2326508  22.9045124  83.2301102
  45.3867302  23.8831615  83.1936798  72.3216934  48.5968323  10.9241753
  71.3845139  48.4182625  11.0018377  72.5632477  48.9797478  11.7675371
  62.6021042   6.4597783  23.6299400  62.5060272   5.8141255  24.3300343
  61.7041626   6.6936293  23.3949051  45.3937607  57.3624420  21.8025475
  46.3204880  57.5853691  21.7147503  44.9788971  57.7564278  21.0351524
  66.8600769  33.6730499  62.8087082  67.6842041  33.1964836  62.7091103
  66.3134384  33.0971031  63.3432198  77.2050095  20.8130493  86.7003784
  77.7469177  21.4948254  86.3031998  76.6831741  21.2741528  87.3571167
  82.3577271   8.7760220  33.4796562  83.0604706   8.9450378  32.8521042
  82.4959869   9.4208097  34.1734619  80.7190323  30.1530590  47.8710670
  80.2457962  30.6930752  48.5040436  80.1909409  30.1998825  47.0741005
  20.4783955  33.4683723  73.5278702  21.0266819  33.1927757  72.7932510
  20.2492733  34.3760910  73.3284073  57.4349480  45.7943649  17.0506554
  56.5985260  45.8038826  17.5159893  57.3260117  46.4363098  16.3490334
  64.7329559   8.1500626  24.3520279  64.0627365   7.4908442  24.1718330
  65.2608795   7.7692723  25.0538311  81.5233917   6.2018270  62.6792336
  80.8334808   6.8579359  62.7780838  82.1823425   6.6278901  62.1310616
  86.9403152  16.5968876   1.8425660  86.6480103  16.9904957   2.6646736
  86.5899963  15.7063913   1.8654890  32.1182938  63.4425583   7.5831709
  31.4671841  62.8488503   7.9570661  31.8345203  64.3139572   7.8595266
  46.9572105  22.8361397  13.1956654  46.7830963  23.7307720  12.9031782
  46.2832565  22.3085842  12.7670546  55.4654922  39.9792976  76.5134201
  56.3338127  40.3792572  76.5611572  55.3538361  39.7588615  75.5886612
  38.0822220  63.1874771  86.4719696  37.7209511  64.0659332  86.5904312
  37.3198624  62.6092911  86.4992752  10.8215380   1.9188726  65.9267120
  11.1231766   1.6004896  66.7775192  11.1757307   2.8058889  65.8636093
  84.5910645  56.6777649  35.3000984  85.1796875  56.6992950  34.5455818
  84.4277878  57.5988808  35.5028534  45.0414505  61.5522957  10.7107515
  45.6764336  60.8620071  10.9018888  44.5818939  61.2452850   9.9292259
  28.5509300  21.9965305  87.7165527  28.9251595  21.4523239  88.4093933
  28.2694283  22.7943211  88.1643524   8.3997593   8.1299314  64.7461395
   9.2104263   7.7517724  65.0867920   7.7143035   7.5280690  65.0362167
  23.0830612  42.4918022  51.4012108  22.1892834  42.1742096  51.2726479
  22.9966164  43.4446030  51.4316940  11.6881933  60.8981476  57.8451843
  11.7292986  60.0248947  58.2350197  11.9859486  61.4850082  58.5402908
   4.7153978  16.1588345  83.7045975   4.4463692  15.3162289  84.0704803
   4.9273081  16.6950436  84.4686661  26.4745865  49.7766724  13.1991749
  26.0482635  48.9738503  13.4991016  25.7537270  50.3868942  13.0435381
  34.1601562  39.1234818   7.7226639  33.7089577  38.4571991   7.2042832
  35.0571747  38.7988510   7.8014202  58.7717133  59.6011200  44.1752090
  58.7009010  59.0605621  43.3884315  58.4337082  60.4563141  43.9094543
  63.4707565  21.5403347  17.1227608  62.5450592  21.7142105  16.9522095
  63.6600723  20.7436008  16.6271782  28.6618881  24.8959160   8.8786621
  27.7176704  24.7484436   8.9328613  28.8364105  25.5732613   9.5320969
   0.5300529  70.1909866  25.6222305   0.8916528  70.0298386  26.4937286
  -0.3875820  70.4123840  25.7808456  54.2918282  45.0673599  13.3285894
  55.0564766  45.6430588  13.3393860  54.4380302  44.4613152  14.0549278
  40.2507477  54.6630173  26.0031090  40.8720856  54.1910896  25.4486179
  39.8011436  53.9770432  26.4965935  65.5451584  58.8175659  51.4753990
  65.2457962  58.3246498  52.2393646  66.2235107  58.2662277  51.0853920
  81.2929077  47.3246193  79.2955322  81.1561356  46.5604095  78.7356110
  81.2189636  48.0723457  78.7025070   2.7912705  26.6024437  76.2409668
   3.1804924  27.0300484  77.0037842   3.0826201  25.6926899  76.3017349
  41.7352257  56.5287056   6.1388512  41.3498878  56.9680901   6.8969331
  41.0302963  56.5051842   5.4917407   9.7579956  61.4854927  55.7724380
   9.0648251  60.8583527  55.9784584  10.3720942  61.4123039  56.5030251
  80.3050919  53.2305145   8.1896439  80.9468842  53.3948936   7.4987612
  79.6520004  53.9215317   8.0792065  86.6660767  11.7730064  88.7047882
  85.8261566  12.0535803  89.0681686  87.2837372  11.8654127  89.4301758
  15.7056866  58.3142891  53.3919334  14.7708092  58.3855057  53.5847130
  15.7883587  57.4932098  52.9069328  21.0363827  61.0540123  79.6879501
  21.6796474  61.5892220  80.1526947  20.4984951  61.6861420  79.2111664
  21.5362434  68.4372940  38.3864746  21.1289196  69.1308517  38.9054031
  21.8915939  68.8884125  37.6206741  77.2231598  46.1253815  77.3210983
  76.8274841  45.8982925  78.1625900  77.0732269  47.0665703  77.2321472
  18.6582355   8.8360071  85.0438843  18.8972855   8.9058084  85.9681244
  19.4023380   9.2135725  84.5748596  74.8734741  41.8473015  20.1314144
  75.7088623  42.2542610  20.3610840  74.9983673  41.5329208  19.2359829
  78.5117111  51.2623558   9.4608965  77.6907654  51.3777122   8.9823818
  79.1783752  51.6403389   8.8873844  63.7696228  49.4095306  23.3929024
  63.0822029  49.1647568  22.7734108  63.6796036  50.3577080  23.4882278
  72.8701248  58.6053581  85.3145218  72.4803619  59.0251198  86.0814133
  73.1311569  57.7376976  85.6231613  56.9882545  12.4743900   9.3363199
  57.0659676  13.1264858   8.6399260  56.1054192  12.5997076   9.6843576
   6.2477841  26.5322456  85.2315521   6.7149501  26.8980141  85.9826889
   5.3220100  26.6390934  85.4500885  79.6488800  30.2384872  22.2638035
  79.4842072  29.5297432  22.8857307  80.4814224  30.0071545  21.8519936
   4.8472028  40.5448761  37.6709976   4.6818590  39.7755089  38.2159424
   4.4297609  40.3399734  36.8343430  32.1701279  52.9701385  28.8593388
  31.8497181  53.8711052  28.8165493  32.4016991  52.8417168  29.7791843
  55.8616714  44.9204407  44.5080910  55.6335640  45.7759285  44.1443062
  55.2249107  44.3186989  44.1225090  58.9303589  55.8952141  29.8390388
  58.6133232  56.7933655  29.7439556  59.8761749  55.9598122  29.7067833
  56.6198692  68.8179626  61.1781311  55.8269958  68.4108963  60.8290215
  56.3248558  69.6613770  61.5214233  19.0505142  40.0432129   2.5932782
  19.1333046  39.7816315   3.5103128  19.6115017  40.8145943   2.5126634
  81.8966293  21.6377316  28.1435814  82.5297928  20.9409065  28.3161354
  82.1972733  22.0378723  27.3276577  60.6082764   7.6924577  54.8167038
  59.9516106   7.8414650  54.1363983  61.3028679   7.2029810  54.3760376
  50.6491966  30.7626247   7.7495542  50.4105835  30.9976139   8.6462574
  49.8115654  30.6284771   7.3061461   2.8406081  31.0253601  26.1966476
   2.3142374  31.8068314  26.0279236   3.5125358  31.0374107  25.5150318
  78.6994171  17.5507202  42.7437286  78.9844055  18.3737144  42.3466225
  79.1908875  17.4974594  43.5633888  74.8577499  30.7937565  19.5477085
  74.8806305  31.6337967  19.0894070  75.7506790  30.6726627  19.8705807
  45.5987434  43.0818939  66.3134918  45.6186409  42.2600327  65.8232040
  46.4980087  43.4072342  66.2722244  15.3028984  62.8523788  34.6608124
  14.3984423  63.0897598  34.8653679  15.2269020  62.0810432  34.0991211
  79.1785507   5.3086405  18.6740494  79.1899033   6.2528443  18.8308372
  78.4075394   5.1662784  18.1249542  61.8667908  37.1032104  51.1625366
  62.0536957  36.1936417  51.3948784  61.5585060  37.5000229  51.9772339
  49.6391525  23.4431477  42.2708549  48.7860146  23.0318699  42.4095726
  50.2325935  22.9648800  42.8499222  34.4774170  52.1416054  74.4708252
  34.9010887  52.5464516  75.2276764  33.8025551  52.7684708  74.2103729
  73.9287186  36.7452164  65.3825378  74.7023163  37.2293396  65.0937347
  73.3735657  37.4058609  65.7967682   7.5568433  71.4388123   9.9243593
   8.1545639  70.8358994  10.3664722   7.4445257  71.0663757   9.0497675
  58.8643341   7.3061543  13.0131140  58.9205360   7.1766038  13.9598398
  59.2040291   8.1898088  12.8717060  33.7444458  59.7393570  14.0643616
  34.0066872  58.8192520  14.0349140  33.0928764  59.8250923  13.3684149
  15.7497044  47.2325249  48.6080170  15.2744417  47.5828819  47.8546219
  15.7175541  46.2830429  48.4910583  84.6308289  10.1174784  82.3681107
  83.9976959   9.4058475  82.2734985  84.3400421  10.7814617  81.7429657
  58.0894432  34.8776436  39.2486649  58.7897034  35.3213463  38.7701302
  58.0222893  34.0182152  38.8326111  67.6016998  26.2174301  53.5887794
  67.4855423  25.2905903  53.7978401  67.9628448  26.5999107  54.3884773
  87.0244141  64.9050827   9.0069246  86.3138199  64.4320602   9.4399853
  86.5858307  65.6026154   8.5197659  33.4780426  45.7493057  70.8966675
  33.8395309  44.9228897  71.2169724  32.6590118  45.5020752  70.4673691
  60.2667389   9.9657335  22.1596947  61.1660919  10.2161627  22.3710766
  60.3287506   9.5557795  21.2969532   7.1790013  44.7346230  77.8619308
   7.6358261  43.9662018  78.2040863   7.6885772  44.9941254  77.0943222
  78.6142731   5.5603786  26.5896721  78.8031693   4.8624120  27.2168808
  77.6585388   5.6060600  26.5628281  18.3415451  29.5771084  72.5333023
  18.0265236  29.8814201  73.3844147  17.5940952  29.6914806  71.9463882
  20.5880013  47.8194618  14.2282419  19.6393299  47.7229271  14.3115187
  20.7110615  48.7160606  13.9164724  53.1433678   6.5711308  60.2354813
  53.5349770   6.0836787  60.9602356  53.6265450   7.3971415  60.2136307
  82.0104523   9.1074476  44.3146973  82.6799011   8.4782047  44.5832596
  81.8036041   9.5926380  45.1134682   0.7694383  12.1263390  52.7841797
   0.7710938  11.6485176  53.6135864   1.6878356  12.3515663  52.6356850
  48.8210831  68.8311462  69.8437576  48.1029243  68.2338028  69.6347961
  48.3937378  69.6723862  70.0048065  26.6683693  51.1629333  88.4113083
  26.6136990  51.0294685  89.3575821  27.1453571  50.3983002  88.0887451
  82.0796356  63.7926369  78.0116730  82.4620819  64.5111771  78.5153275
  82.8218079  63.4017563  77.5505600  42.9453773  64.3122787  32.2028847
  43.6135712  64.3304062  31.5177422  42.2837448  63.7026138  31.8761101
  16.4292278  56.6755257  23.4690285  16.1830215  56.5909615  24.3901501
  16.8156624  57.5488052  23.4035969  78.9145966  55.6698723   5.3173790
  79.6139297  55.5345268   4.6779747  78.5938492  54.7891617   5.5115442
  73.9165878   8.8558044  27.1556454  73.4166489   8.1756420  26.7043476
  74.6866913   8.4007444  27.4963703   1.2481251  61.0661125  32.1351128
   0.7712963  61.4673958  31.4085884   2.1012704  60.8389626  31.7652779
  74.6566849  31.5388203  34.5761604  75.5289917  31.7567635  34.9045143
  74.6290359  30.5820732  34.5864449   0.4535413  22.6145477   0.7547671
  -0.4549813  22.4173260   0.9826322   0.9325928  21.8129196   0.9648523
  53.2428284  13.8372421  79.3890457  53.8834763  14.5424261  79.2967682
  53.4709435  13.2145700  78.6987686   7.9713063  60.1854477  14.3982639
   7.1930227  60.7399139  14.4537220   7.7340093  59.3910370  14.8766251
  49.5919685   7.8942757  79.1255569  49.0035934   8.5370817  78.7295227
  49.0099792   7.2835264  79.5777817  62.8890572  57.8999405   4.2975168
  62.1715355  57.6762772   3.7047508  63.5362091  58.3301163   3.7386134
  17.3132114  35.4814796  13.5842419  16.5577030  35.0465012  13.1889801
  17.4156017  36.2887383  13.0801773   2.7876022  58.7453346  11.8135138
   2.5829086  57.8851738  12.1801987   3.7310264  58.7192802  11.6538143
  54.6621170  61.5354576  34.1482658  54.1674271  61.9630165  33.4491882
  55.0285187  60.7521591  33.7378693  71.4327621   2.4096601  77.3368759
  70.6637650   1.9234920  77.6343842  72.1658096   2.0061986  77.8017349
  24.3238792  20.6639481  84.6799240  24.9830818  20.7142239  85.3721390
  23.9068756  19.8118896  84.8077240  63.2861176  32.6749954  62.4862137
  63.1707802  32.0296288  61.7887688  62.4928894  32.5988922  63.0165253
   2.1741159  55.2747955  61.7813225   1.8662505  55.8997841  61.1249428
   2.0067277  54.4165535  61.3919144  44.6002846  67.7049713  22.7394180
  44.0102425  66.9552994  22.6614990  44.3986855  68.2486115  21.9778156
  36.5589256   5.3324642  19.6570854  37.4291687   5.1274233  19.3152275
  36.2134399   5.9903140  19.0536747  51.3456116  65.6856537  30.1649895
  51.1335831  65.3189316  29.3066254  52.1321030  66.2098846  30.0138340
  15.0809040  44.5160103  48.6790237  15.2826624  44.2561684  47.7801323
  14.1248312  44.5023651  48.7234268  83.8909683  60.9966164  62.7368965
  83.1980209  60.3577232  62.9038391  84.3311691  60.6726723  61.9510765
   7.1901555  51.4447479   2.0841806   7.0678902  50.6966019   1.4997473
   7.9966187  51.8591003   1.7773244  55.1779900   3.5924418  80.7379990
  55.5168648   4.0825658  79.9888840  54.4108200   3.1330683  80.3964462
  21.8631153  15.0207148  64.4439850  21.4648018  15.6940527  63.8924484
  21.9805965  14.2714176  63.8600464  26.7518692  56.0762291  56.5142288
  27.6377373  55.8291550  56.7796097  26.6115150  55.6135712  55.6881065
   3.6208344   0.1701059  47.3916588   3.2741518   0.7040129  48.1064911
   4.4397554  -0.1872549  47.7350121  77.3782730   6.9374480  40.1625748
  78.1222610   6.6218457  40.6755066  76.6090469   6.6309795  40.6427841
  34.5784569  55.5347176  34.3972359  35.1855011  55.3172417  35.1046486
  34.2560425  54.6876488  34.0894127  31.3802204  37.1759796  16.7725735
  31.8799000  37.8926544  17.1636372  30.4649334  37.4112892  16.9245930
  24.0436325  23.6391544  18.5514946  23.7134686  24.4925003  18.2703838
  23.4039192  23.0119495  18.2144260   5.1783757  18.3033390  57.0150490
   6.0491405  18.1823311  56.6364212   4.6692214  17.5624027  56.6864014
  19.4374485  60.5411453  57.9520302  18.9907322  61.3215828  57.6240158
  18.8041763  59.8337631  57.8303490  66.8651199   0.2507780  11.4764891
  67.5913010   0.8187959  11.2190943  66.6954727   0.4782912  12.3906507
  54.5825310   5.1254611  39.4533882  54.3080673   5.5136604  40.2841721
  53.7839928   5.0983639  38.9262848  72.0230179  67.3236542  72.8801804
  72.0289764  68.0982819  72.3179016  71.8518982  67.6658859  73.7575760
  49.9601250  44.1188736  78.7563248  50.4041901  43.2711182  78.7376633
  50.5908508  44.7106590  79.1664581  27.0975494  62.8383713  40.7645874
  26.1447754  62.8376770  40.6726379  27.3580208  61.9390182  40.5657043
  50.1268501  40.8666534   9.2837610  50.7743416  41.2315140   9.8869724
  49.3763580  41.4568176   9.3523130  57.2542267  52.4956894   4.6086478
  56.9587746  53.2093277   5.1740284  56.4558754  52.0122375   4.3961782
  55.3484001  60.3705368  71.1929932  54.8967972  59.5695763  71.4589767
  55.0146294  61.0423889  71.7875061  86.3747940   1.6728771  42.7046585
  86.2213516   2.6026855  42.5368996  86.6648102   1.3222277  41.8625374
  22.8441143  61.7430992   1.4007461  23.0788364  61.6728668   0.4754323
  22.0694065  61.1887093   1.4940736  59.9344139  26.8177071  57.1550369
  59.0400658  26.5255108  56.9789963  60.4184074  26.6010284  56.3581467
  43.5279236  34.4709778  63.8692398  42.6035919  34.3545151  64.0889816
  43.5619240  35.3129349  63.4151649  81.5696640  53.9515495  29.0268440
  81.2848358  53.5313873  28.2153187  81.2405396  53.3801613  29.7206936
  57.7406769  51.9986267  40.3255806  57.2358932  51.4869690  40.9577446
  57.1100006  52.2239265  39.6416779   0.6874840  25.0802383   8.4583292
   0.4206191  24.4677792   7.7728310  -0.0837850  25.6282654   8.6033936
  62.9644547  30.2507324  46.2066650  62.1801262  30.1524029  46.7464676
  63.6801910  29.9515305  46.7674103  14.3159676  55.1085167  75.2316513
  14.9688978  54.6532822  75.7633286  13.6930704  55.4610291  75.8672409
  57.9066010  23.7094421  43.4446220  56.9690819  23.8196487  43.2860680
  58.2443466  24.6023731  43.5141487  76.6322556  51.4414711  43.4688148
  75.8218994  51.5163689  42.9648819  76.3575211  51.0811958  44.3119965
  79.3429337  63.8468361  53.2152252  79.5552979  63.3439980  52.4289131
  79.9473267  64.5888290  53.1955261  55.5961571  35.4354477   2.2436793
  55.9206886  36.2634735   1.8897210  55.2690849  34.9602432   1.4798485
  34.5386581  63.0459824  84.1737518  34.7557869  63.4953651  84.9905396
  33.5899162  62.9248924  84.2118912  71.1215668  69.6313324  31.4989052
  70.1726837  69.5560989  31.3979568  71.2436142  69.9302673  32.4000015
  20.9985714  56.2372475  81.6758423  21.6106167  56.9729309  81.6958313
  20.2223835  56.5833244  81.2353973  28.8659420  56.3129768  67.6890488
  28.1550484  56.4119110  67.0557480  28.4652805  56.5205154  68.5332260
  52.0362663  54.6795692  78.3182907  51.1123123  54.8782883  78.4701233
  52.1479912  54.7685127  77.3718033  59.3463593  26.7957573  68.9893112
  58.9033165  25.9543591  68.8797836  58.9384117  27.1821613  69.7642288
  12.8185015  34.6206512  29.9034634  12.1767702  34.4851303  30.6006336
  13.3019180  35.4021225  30.1715031  63.3862190   9.4784985  53.1338692
  63.1930962   8.6450777  52.7045135  63.2511787   9.3049421  54.0654640
  14.6927977  56.9324570  18.5670452  13.9215527  57.3018875  18.9970837
  14.4387188  56.8515854  17.6477318  68.8596039  25.1041279  78.3091812
  68.8225861  24.1780930  78.5485916  68.8803406  25.1034603  77.3522110
  51.9325638  17.0590420   6.4970508  52.6728630  17.2327633   5.9156647
  51.1729774  17.0294628   5.9153409   5.7314858  34.9585838  75.2678070
   5.0520024  34.9748039  74.5938110   5.3549089  34.4348373  75.9749908
  10.9589090  64.8673401  46.4505959  10.7732754  63.9818420  46.7631226
  11.9139481  64.9304123  46.4630165  65.7759933   9.2820768   4.8858523
  64.8615189   9.4085798   4.6329417  66.1188431   8.6618471   4.2424240
  27.7969608  47.1239166  57.1121712  28.2910709  46.3053856  57.0664101
  28.0180759  47.5827866  56.3017502  12.2176971   5.1008282   9.6521149
  12.1009102   5.9802461  10.0115833  12.7682877   4.6512208  10.2931566
  83.4300842  12.3513947  52.8571854  84.2006149  12.5807590  52.3376617
  83.7379379  12.3701210  53.7633362  80.6085892  31.5574913  84.1460114
  81.5520401  31.6711502  84.0310211  80.2455750  32.4354362  84.0291214
  50.4895821  65.3021927   9.8244553  49.7609138  65.7419205  10.2625389
  50.3963661  65.5442963   8.9030800  68.5221176  66.1888504  50.7426872
  68.6479263  65.7578278  51.5880394  68.4293289  65.4692230  50.1183777
  19.8968658  47.0229454  84.7154465  19.9141026  47.5250626  85.5301895
  19.0448914  46.5866623  84.7209549  56.3727150   1.8884730  36.7448692
  56.3835945   1.5032243  37.6210556  57.1794128   1.5754986  36.3355827
  80.3361816   1.2065457  45.7100716  79.4057159   1.3879820  45.5776024
  80.6421509   0.8911592  44.8596916  20.0400257  47.2690353  74.3869400
  19.7849483  46.4487572  74.8092117  20.9038372  47.4663315  74.7490692
  55.1320992  37.2695847  44.2162819  54.6822014  38.0738144  43.9573631
  55.4560661  36.9011383  43.3943787  55.7076530  27.7926655  25.3954411
  55.9378166  26.8692570  25.2926121  56.3947334  28.1495190  25.9582996
  54.5032158  52.8089371  22.3269444  55.4372444  52.8002930  22.1177845
  54.4521790  52.4436493  23.2102299  17.7016068  24.5727730  86.5312576
  18.1933365  23.8146725  86.8470383  18.3134422  25.0325909  85.9563980
  68.5790482  36.9212570  81.9166718  69.2763977  36.7929955  82.5597000
  68.0886536  37.6759644  82.2425003  74.0215149  24.1554852  64.4552460
  73.3865051  24.7985325  64.1398468  74.8589935  24.6187878  64.4405975
  67.3183365  63.7673264  54.5917397  68.2399063  63.5117416  54.6321144
  67.3222427  64.7071152  54.7734413  71.5481033  25.7161198  27.1900940
  71.5688934  26.3614902  26.4834843  72.0018921  24.9534817  26.8313522
  26.8204155  41.8744698   9.8025742  26.9405479  42.4284363   9.0312605
  27.2035561  41.0329323   9.5550833  40.4316177  61.0387154  48.6804466
  40.6602402  60.9265594  47.7577400  40.9505615  61.7905998  48.9660988
  68.3105469  67.2238083  22.3966770  67.7080841  66.5945129  22.0001163
  67.7428894  67.9080048  22.7514591   0.7800405  59.5233879   7.6387405
   0.8076864  60.4341850   7.3456311   0.5363817  59.0275230   6.8570886
   0.5720557  17.9643726  72.9997787   1.3316294  18.5190659  73.1775284
   0.9406716  17.1703644  72.6126022  67.3811111  12.4576111  65.5910873
  67.6603088  12.6034193  66.4949799  66.7648773  11.7271881  65.6456223
  56.1919899  26.6807384  69.1272659  55.8702965  27.4488869  68.6553650
  56.6355019  27.0400658  69.8956528  85.9824142  54.0381355  38.3444939
  85.7422028  53.1122894  38.3811264  86.9395905  54.0376549  38.3504829
  41.7978325  38.0579720  15.4662609  42.3501892  38.2881126  16.2133675
  41.8864784  38.7981567  14.8658476  79.6951218   7.0579662   0.8098368
  79.1360092   6.4034653   0.3912027  80.5348206   6.6143451   0.9295716
  57.4486313  58.4806252   1.7605258  57.0213737  58.7755241   0.9563389
  58.1517487  57.9044342   1.4607565  31.8528118  61.9171600  57.0841217
  31.1771030  61.5625267  56.5062943  31.5057297  61.7870140  57.9666367
   4.2062635  60.4888344  22.6196880   4.0021262  60.4148750  21.6874390
   5.0675001  60.9058647  22.6439381  33.6078796  26.2960854  72.1547241
  33.4306908  27.2357101  72.1987839  32.9473839  25.9008579  72.7237320
  46.7763977  39.4294853  46.6927261  46.1855431  39.3050766  45.9499969
  47.5723877  39.7952423  46.3069077  31.0091591  45.2146416  69.6554184
  31.6300640  45.1800385  68.9277496  30.2886009  45.7542000  69.3299942
  30.2109852  69.5178986  57.4423599  31.0128288  69.0518341  57.6791306
  29.5704861  68.8253555  57.2799568  65.1359863  27.6725636  37.0446548
  65.9280472  27.9613056  36.5913467  64.6460648  28.4785480  37.2077522
   4.2935858  54.3122253  39.6940422   5.0817399  54.5581551  39.2097244
   4.1087270  55.0686646  40.2506905  48.1445923  63.1263313  15.8029461
  48.8062134  63.4830360  15.2102814  48.4671326  63.3400383  16.6784630
  39.2481880  38.9699707  57.0897713  39.7940025  39.7345276  56.9060097
  39.7699280  38.2255783  56.7899475  50.1993904  71.4511795  33.9375801
  50.8475494  71.6011581  33.2493706  49.6604767  70.7326736  33.6065788
  44.3462715  64.5585327  11.1245527  45.2047424  64.6759109  11.5313492
  44.0145149  63.7414856  11.4968405  32.4180794  42.4614105  21.5669575
  31.7466183  42.6313324  20.9062805  32.9963226  43.2228928  21.5221367
  70.0141907  53.2976799  68.8149643  69.2939453  53.7186852  68.3456726
  69.5946808  52.6063538  69.3271332   3.8028431  39.9350929  17.1910477
   4.3200364  40.6786118  16.8813381   4.0316534  39.2201805  16.5970974
  35.7551346   3.3838787  49.7806015  34.9519310   2.9958818  50.1278114
  35.9341087   2.8888354  48.9811440  75.4392548  47.4826698  60.2111320
  75.8054504  46.8704147  59.5729523  76.1405029  47.6106796  60.8499527
  31.7388039   6.9108295   1.2856146  32.0752296   6.9677000   0.3912903
  32.0133324   7.7301879   1.6973404  10.4265490  38.2378807  27.7027950
  10.0848217  37.6367264  28.3646622  11.2961016  37.8960152  27.4948597
  56.7236099  51.1859055  10.3888092  57.0467911  52.0864334  10.4176502
  56.3242950  51.0471230  11.2475986  20.9104977  28.2452888  82.5753326
  20.6366329  28.6616058  81.7580719  21.3222084  28.9492493  83.0764923
  64.9450684  58.0361633  84.1649628  65.3379517  57.4895973  84.8455048
  65.6715775  58.5626869  83.8315277  84.1481018  62.0763474  76.8108597
  84.4093628  62.8418655  76.2990417  84.0731354  61.3719978  76.1670380
  36.0270042  66.9384155  43.6611023  36.8855247  66.9380417  44.0843964
  35.5579376  66.2111969  44.0701904  64.7581253  53.6948090  75.0498276
  64.1425781  54.4270096  75.0148773  65.2075043  53.7191544  74.2050247
  77.8725510  42.6199265  32.8492813  78.8126221  42.6008415  32.6700020
  77.4629822  42.5731583  31.9853973  24.3094196  28.7841835   5.8903704
  24.8063755  28.1027794   6.3430901  24.8762589  29.0539474   5.1677690
  18.1096649  37.8541527  53.6813622  17.6954174  37.9880638  52.8288956
  17.4104290  37.5076675  54.2356606  25.8218269  57.5507050  54.1313744
  25.3832836  57.3442955  54.9567871  25.7139931  56.7624168  53.5992050
  64.5488815  29.4031906   6.3797736  64.7703323  30.3339615   6.3504872
  65.3689346  28.9552364   6.1722250  60.1011963  14.4305162  71.1850204
  60.5371513  14.7717800  70.4041748  59.5249557  15.1407862  71.4673233
  21.9327717  61.0616417   6.1232138  22.6808052  60.5515785   6.4338779
  22.0848503  61.1617928   5.1834941  51.5073738  40.7022476  36.6203423
  50.9352951  40.2831955  35.9774170  51.1075668  40.4980965  37.4657478
   3.3167682  47.8511543  18.1594353   2.5845730  47.4794197  18.6513042
   3.4073951  48.7408676  18.5006542   1.6467991  43.3297653  18.2872868
   1.2169982  42.5857086  18.7090511   1.2567847  43.3681526  17.4139900
  72.6648865  21.4079971  33.9717979  72.5187988  22.3519535  33.9098358
  71.7879410  21.0266457  33.9296303  79.2636566  36.2343597  59.0617104
  79.0162125  36.1740456  59.9844055  78.4606628  36.5032806  58.6154785
  77.6380234  66.8591461  58.1268616  77.9272156  66.4593201  57.3066559
  76.8432083  67.3383102  57.8925591  23.2759285  54.9797249  23.4462509
  23.7661152  55.7934647  23.3288898  23.4779911  54.4637070  22.6657810
   0.3060853  19.1666164   3.6556566   0.0515781  19.2591171   2.7375600
   0.0599368  19.9997597   4.0575461  77.1017227  20.6734467  21.4693050
  77.0413361  21.1833935  20.6615067  78.0147781  20.3883171  21.5048618
   6.2847629  61.3067398  29.6975327   6.5576072  61.8897324  30.4059887
   7.0274625  60.7155952  29.5743504  39.7134056  57.2589264  23.0175667
  40.1063728  56.5415192  22.5204411  38.7705193  57.1439362  22.8993549
  45.7929802  66.0166779  32.7345467  45.5610809  65.0971222  32.6046371
  46.3453331  66.2328339  31.9832745  20.1596184   1.2920874  12.2679234
  20.0909977   0.9181855  13.1463995  21.0530014   1.0893434  11.9904413
  71.7342606  71.1522369  57.4143867  72.2245712  71.5880737  56.7173347
  71.1354218  71.8234177  57.7417145  65.7205124  14.8796301  81.0720291
  64.9866409  15.4936218  81.0981216  65.8066177  14.5708351  81.9739532
   1.9190928  11.7109756   5.7888856   2.6289573  11.2561026   5.3356581
   2.2341616  11.8116932   6.6871166  27.1299801  63.1893539  46.3695717
  26.4947853  63.9052773  46.3547859  27.9773521  63.6230240  46.4701920
  35.2926636  67.7494583  57.1605453  35.7229004  67.7957687  58.0143509
  35.7019424  68.4466019  56.6479836  85.1565399  62.7395515  32.4465179
  85.3089142  61.9120255  32.9028168  84.2314758  62.9312363  32.6006126
  55.4399071  10.5088577  72.1827927  55.4934349   9.5992336  72.4759598
  54.5021095  10.6997080  72.1641693  40.0991020  17.1389523  10.6544838
  40.1794815  17.9819202  11.1007748  39.3427658  16.7210865  11.0662785
  50.1509285  68.8807144  46.0149078  50.3686714  68.3817520  45.2276001
  49.2600517  68.6069946  46.2331886  63.1355286  15.7912970  23.8435402
  62.5299759  15.1302652  23.5080185  62.9729614  15.8083305  24.7866802
  61.8172722  11.6751318  31.6930180  60.9204750  12.0075293  31.6543236
  62.3294220  12.3086777  31.1904697  26.4616985  52.9765472  65.7745972
  26.9543972  53.0528870  66.5916977  26.0979023  53.8503189  65.6317520
   1.6466483  56.4084969  28.6820869   0.9198771  56.1337776  28.1230125
   2.4151580  55.9824295  28.3024940  58.5068092  28.2654266  11.1453438
  59.2541618  28.8573570  11.0598145  57.7407608  28.8328648  11.0592451
  32.6546097  42.7033730  70.8457031  32.2029762  43.3083344  70.2572479
  32.2600250  42.8636665  71.7029266   3.5908768  26.0178471   3.9421022
   4.3883009  26.0765343   3.4158871   3.8417997  26.3676357   4.7970395
  84.5512924  36.5062370  57.8884468  83.8764954  36.9987450  58.3556938
  84.0629807  35.9215622  57.3088493   3.2186687  30.5727348  70.3228989
   3.5480309  30.3929043  71.2034760   2.2781823  30.4039955  70.3798599
  79.7722321   0.8282557  62.1475945  79.7930679   1.7268155  62.4768181
  80.4324799   0.3679706  62.6657143  71.1366272  28.2638092  44.7209091
  72.0398712  28.0385132  44.4981270  71.1851730  29.1673889  45.0330276
  44.2701988  36.3516960  21.4532871  44.8698196  35.6668053  21.7492771
  44.8186684  37.1320992  21.3734093  34.8985863  34.3268776  85.5143127
  35.2013702  33.4422569  85.7192612  34.9937973  34.3985939  84.5645676
  81.7263260  65.1308060  47.0295792  81.3080063  64.9738541  46.1830521
  81.9802628  64.2603683  47.3363075  49.3569870  39.4191284  34.8806229
  48.8468971  40.1891441  34.6293945  49.3036575  38.8384171  34.1215706
  29.2730827  49.9760475  63.9509735  28.5236206  49.6189880  63.4744797
  29.7161007  50.5373764  63.3146744  59.3341141  15.7858238  13.1865273
  58.7455788  15.0612383  12.9747858  58.8119125  16.5724125  13.0289984
  13.6092424  63.7608528  78.4876251  13.6090136  64.7169266  78.5340042
  14.2984114  63.5518112  77.8570862  13.9586964   1.4525194  34.5202522
  14.2255039   1.1745418  35.3964806  13.0022345   1.4676354  34.5546417
  22.2718277  30.3684349  83.2977219  22.7184563  30.7238350  84.0661240
  22.7064705  30.7854958  82.5538254  72.8656769  64.0788879  39.7129402
  72.1009216  63.7544975  40.1884956  72.5708008  64.1498642  38.8050652
  70.3047256   0.5446140   5.3474054  69.9429703  -0.3415903   5.3489246
  70.0344315   0.9122113   4.5059528  20.0833416  53.3631439  59.9588928
  19.1934719  53.0371094  60.0932922  20.4804459  52.7341499  59.3564758
  81.1694794  52.4199677  31.2147560  81.2727280  51.5524902  31.6059780
  80.4654312  52.8278351  31.7189255  29.4767914  10.7446299  86.2558212
  29.2308884  10.0309801  85.6672058  28.8056622  10.7342672  86.9382553
  31.8841839  48.4230766  11.7623005  30.9782066  48.7175331  11.6688604
  32.0120621  48.3377495  12.7070751   9.9486341   5.5894465  71.3505249
  10.5357838   5.0047255  70.8713760   9.4899025   5.0170064  71.9654312
  47.0316544  68.8777466  28.4409561  47.5192413  68.9107437  27.6179104
  47.3693161  69.6152954  28.9491196  29.8735371  59.8295135  51.7826233
  30.5081806  59.4864883  52.4117432  29.2046051  59.1476097  51.7212067
  32.0469093  63.2312927  53.4739761  31.5418262  63.1866379  52.6621094
  31.9997406  64.1509781  53.7351189  14.6660719  65.4041367  18.5721416
  15.3240194  64.8758774  19.0241222  14.1151524  65.7519455  19.2733879
  51.3279839  55.8728371  83.5552063  52.1814537  55.4435806  83.6148529
  50.9371490  55.5188446  82.7563553  78.7149200  17.5893612  75.6394806
  79.5355682  17.1467419  75.8559494  78.1535492  17.4384212  76.3999405
  54.5049133  18.4900532   1.6156178  55.4247017  18.2493076   1.7263578
  54.4889297  19.0123997   0.8136646   8.0159359  26.1966267  81.2937088
   8.6734142  26.5178986  80.6766739   8.5223961  25.8950195  82.0478745
  77.2410278  33.8000450  63.2490425  78.0094070  33.4868011  62.7718697
  76.7756424  34.3501778  62.6189613  19.8219318   1.5880905  68.8814240
  18.9353504   1.4128990  69.1968842  20.0098019   0.8660946  68.2817078
  66.6451874  15.1170969  86.8259048  67.0527420  15.2368927  85.9681320
  65.9869003  15.8101015  86.8771896   0.2753552  40.7528229  87.3769836
  -0.4726806  40.7234306  87.9734879   1.0286722  40.9135017  87.9452515
  84.0157852  11.4965105  64.8545227  84.6373978  12.2071180  65.0122299
  83.8294601  11.5449657  63.9168816  86.1538696  28.9775963  73.9493484
  86.2815323  28.4503860  73.1606903  85.7117615  29.7682018  73.6399689
   2.0218573   9.6521082  46.8799171   1.8642966   8.9528494  47.5143013
   2.5960779   9.2559690  46.2244987  40.9874191  59.2728348  20.6747417
  40.6773415  59.9672546  20.0934772  40.4286995  58.5227661  20.4711246
  75.1282578  38.6865387  68.3257828  75.2290802  39.3488464  69.0094604
  74.8082657  39.1732063  67.5661774  18.9924088  54.3951187  20.7437229
  19.4382343  54.7298088  19.9656143  19.5040894  54.7351036  21.4777718
  52.8796921  56.6891060  47.8006363  52.2115097  57.2437515  48.2032928
  53.5639763  56.6170387  48.4660606  13.3079309  38.7276344  29.4863300
  13.1894798  38.2910156  28.6427879  12.8572788  38.1625481  30.1138840
  81.1638565  34.3674316   7.0734997  81.3588104  33.4555626   7.2896562
  82.0029526  34.8193474   7.1625137  53.2976265  21.4457912  71.9368744
  53.1200676  21.9455242  71.1400223  52.9931297  22.0109615  72.6468658
  67.6254272  47.9493866  15.8828945  68.2515869  48.3871536  16.4595394
  68.0776291  47.1557274  15.5968018  60.7507553  16.7107925  64.0114212
  61.2031021  17.3920345  63.5138969  60.8232651  16.9921799  64.9234467
  52.2214127  68.6606445   7.6900682  51.4897270  68.1635590   7.3243246
  51.8078842  69.3849869   8.1597090  49.2353020  34.8401566  68.4621201
  49.3802986  34.0090294  68.0099716  48.6268158  35.3169365  67.8976212
  51.6917229  53.9356499   7.6313710  50.7882881  53.6379738   7.5244632
  52.0163803  54.0416412   6.7371702  73.7535324  44.5171738  78.5685883
  74.4521408  43.9203072  78.3003769  74.2090607  45.2421379  78.9965515
  14.3295069  68.4557877  43.2111855  14.5659742  68.3952408  44.1367378
  14.8134508  69.2164536  42.8896027  55.4445915  62.8605728  61.1609192
  54.5024567  62.7029419  61.2222824  55.6698837  63.2897682  61.9863052
  53.1262398  56.1641808  56.8714294  52.4889565  56.5466270  57.4746132
  53.7624893  55.7294083  57.4392281  85.6516113  52.7414742  46.4356384
  86.0937881  51.9311523  46.1824837  84.8631821  52.7635956  45.8933182
  28.3942528  15.1663303  74.5927277  27.9432869  15.3952322  73.7800369
  28.1181850  15.8373566  75.2170258  69.0952911  34.5427322  41.4947243
  69.5097656  34.4048538  40.6430054  68.5718765  33.7540207  41.6368675
  13.7417116  15.9147682  87.9153976  14.0491066  16.2774220  87.0846024
  14.2089005  16.4166508  88.5832901  28.6641693  58.0914955  88.9169006
  29.1125793  58.2890892  88.0946350  28.8853493  58.8237648  89.4923019
  29.9422207  61.6759720  22.4675198  29.8505211  60.7378578  22.3008862
  29.6854763  61.7827606  23.3834400  68.8028259  66.1650543  87.0062790
  69.6539764  66.2379074  87.4381027  68.6178360  65.2259369  86.9984283
  41.5862961  55.2921066  11.1147203  42.1870270  56.0140915  10.9300728
  40.7508812  55.7185249  11.3057232  63.7459373  24.4452629  18.6519794
  62.9246902  24.5626049  19.1294880  63.5222282  23.8554401  17.9320526
  63.0259209  48.2585144  78.0050583  63.2113380  47.4265976  78.4406738
  63.5527000  48.2332230  77.2062454  48.9661903  53.2364159  34.3145065
  48.1593399  53.7438469  34.2265358  48.6881409  52.3256531  34.2173996
  24.1015568  49.3006516  71.8321533  23.4704628  48.6414566  72.1209717
  24.9450855  48.8485641  71.8497162  10.3654089  70.4188614  11.7963915
  11.1348734  70.7383499  11.3251352  10.2672424  71.0231094  12.5322447
  54.6131668  42.1177826  43.2373962  55.5131073  41.8043098  43.1475487
  54.0749359  41.3325615  43.1375618  53.1267319  58.2381935  83.0666656
  52.4311600  57.5831413  83.0090332  53.7651024  57.8572655  83.6696625
  78.6489792  44.6567459  66.0394821  78.3757629  43.8922005  66.5464859
  78.8799973  44.3041573  65.1800995  31.3036766  20.8421230   6.0835290
  30.6259193  21.1979046   6.6582427  32.1272774  21.1262417   6.4800000
  51.0976639  44.6572113   8.4428682  51.0893021  45.3967361   9.0505381
  51.4792290  43.9379539   8.9461670   7.3057070  56.9781570   6.1499567
   7.1418934  57.7132759   6.7407165   7.8171511  57.3554535   5.4342036
  31.2750931  64.7922134  67.1860809  32.0369072  65.2038651  66.7781448
  31.5821514  64.5258179  68.0526733  25.3768673  32.5073853  14.8519402
  26.0507698  32.7117348  15.5002670  24.5810432  32.3753204  15.3671656
  25.9397278  36.0105019   0.7839841  25.0086613  36.0569763   1.0012161
  25.9642334  36.0391273  -0.1724739  79.3760605  45.8318863  26.9850750
  79.9639053  45.1784897  27.3642082  79.9005737  46.2632332  26.3104954
  33.4121017  40.9579582  61.8185081  32.6625328  41.5498886  61.8816719
  33.0422325  40.1369019  61.4940186  36.3947220  40.0048409  26.3202572
  36.7755852  40.2128067  27.1734447  37.1407814  39.9961281  25.7206306
   3.3915477  68.2339783  47.8936920   2.5168054  68.4199829  47.5524292
   3.5016632  68.8492889  48.6186104  73.3921127  45.2381363  72.9003830
  74.1211624  45.5807991  73.4173965  73.5142899  44.2888603  72.9138336
  18.1034145  39.6790886  88.4527435  18.4271622  38.8581886  88.0818710
  18.8945122  40.1729660  88.6683273  40.7290421  42.9618759  31.8770351
  41.2671776  42.2254448  31.5866776  41.0509567  43.7079201  31.3710480
  34.0129929  65.2093506  73.5642242  34.1249313  65.5997009  74.4310150
  33.4245377  64.4684830  73.7093735  71.7439651   5.0450039  33.6812859
  71.6329803   5.4194436  32.8073845  71.5343933   5.7634459  34.2780724
  19.9521313  41.6105309  38.3089333  19.5830784  42.4122925  38.6793518
  19.1968250  41.0371780  38.1784973  54.5409660  65.5934601  68.1835403
  54.4886017  64.9700089  67.4591064  55.4791603  65.7333603  68.3117905
  83.8585663  55.5005760  50.2883797  84.7312012  55.8532181  50.4626732
  84.0196457  54.6930733  49.8002968  40.0647545  56.6530724  52.7635536
  39.8393250  55.7267914  52.6774101  41.0193253  56.6745453  52.6960182
  13.4929676  10.7329102  75.0218964  12.8692999  10.4989901  75.7093201
  13.1341276  10.3365326  74.2279510  42.5048447  61.5772629  41.3181190
  41.9243240  62.2518158  40.9656944  42.9877052  61.2552528  40.5569420
  21.5485306  51.5757256  57.8742256  20.7076302  51.7367783  57.4462280
  22.2002697  51.8906708  57.2479057   9.3781214  30.1436405  15.7122631
  10.1603537  30.6598949  15.5177746   8.9071236  30.6597023  16.3665371
   7.3291640  17.4945316  30.3725052   8.0166006  17.0703964  30.8860912
   6.5253010  17.0424500  30.6287441  38.5156174  10.1247320   7.4961815
  38.2588234   9.2203646   7.3161602  37.7264137  10.5310240   7.8543968
  24.7094250  66.8735809  79.7785416  24.1290951  67.5354614  80.1545258
  25.5471439  67.3236542  79.6694946  65.9663925  65.3962631  29.8226223
  66.3272171  65.3189468  30.7058334  65.0204697  65.4590378  29.9549828
  51.1334229  10.8304272  11.3418579  51.2531891  10.8558216  10.3925190
  51.1919479  11.7458925  11.6152248  19.0201473  25.7531662  58.6929359
  19.8143520  25.9007339  58.1794205  18.4983616  25.1532192  58.1599846
  80.2319489  15.7831802  85.4708786  80.2579117  16.4914379  86.1142502
  79.8758240  16.1900368  84.6810226  53.6947823  18.0021915  42.1317635
  52.8412971  17.5959930  42.2827492  53.5013885  18.9336796  42.0261269
   7.9692612  47.1297760  40.1102409   8.8017998  47.4010277  39.7235451
   7.3857913  47.8755226  39.9700394  80.3279648  16.8911991  45.0850677
  79.5580368  16.3637199  45.2976837  80.6806946  17.1536999  45.9353065
  32.3589821  65.9694595  49.3968010  31.9364700  66.2243042  48.5765724
  31.6595135  66.0093689  50.0490150  77.4127350  26.2725582  54.8323021
  77.9244614  26.8722591  55.3751945  77.8856506  25.4418201  54.8819160
  53.5297470  42.1441422  74.9081268  53.8042336  42.1127510  73.9916611
  53.8654404  42.9806976  75.2301712  86.2136993   7.9592514  40.1900787
  86.1050186   7.8784990  39.2425041  86.5487289   8.8467369  40.3179665
  76.6074524   0.4595523  50.8500519  76.6519928  -0.4882373  50.7237892
  75.7441177   0.6095522  51.2352562  84.3558502  58.5531883  20.4145432
  84.1444702  58.7575417  19.5036144  85.1497955  58.0210381  20.3626080
  63.6218338  61.2628517  70.7864075  64.4621887  60.8285751  70.9328232
  63.5090523  61.8297653  71.5493774  50.4581299  12.4007883  75.4823227
  50.4558525  13.1896801  76.0244293  50.4490929  11.6785402  76.1104202
  10.2198372  52.6534386  73.8701248   9.5112667  52.7939758  74.4981384
  10.9516745  52.3392334  74.4010849  53.0017281  31.6669636  77.1869812
  53.9467087  31.6582603  77.3391876  52.8992043  32.1055222  76.3423615
  58.0471268  48.5066566  56.8859291  58.8183784  49.0723495  56.9232483
  57.6323204  48.7220230  56.0505943  14.9269867   6.2293458  25.1973572
  14.4686766   5.6477799  25.8039570  15.8503447   5.9960680  25.2933960
  16.5795174  49.0993347  84.0535889  17.1934032  49.0689316  83.3198013
  15.7175207  49.1625862  83.6422577  50.4132576  40.5044975  87.1770935
  50.2916031  40.2723656  88.0977173  49.7788391  41.2039642  87.0205994
  79.0599289  15.1462727  48.1525497  78.2446976  14.7289076  48.4308319
  78.7906113  16.0059948  47.8291626  25.3640518  45.0547028  52.6580696
  25.4460697  45.4352798  51.7836189  26.2619514  44.8403473  52.9111710
  54.2172623  48.8916092  78.2164612  54.1512947  49.3213501  79.0692215
  54.9387665  49.3414116  77.7767563  61.8588867  10.1690283  65.0999527
  60.9137039  10.2913303  65.0110550  62.2406616  10.9401245  64.6805573
  82.1746521  22.8230381  80.8598785  81.6368484  22.8428745  80.0682983
  82.1208191  23.7129154  81.2083817  61.3942642   2.8217854  41.2338791
  60.5007820   2.9579566  40.9186401  61.3668404   1.9708135  41.6712875
  57.5062065  44.3774033  65.8963089  56.8434830  43.7367134  66.1542740
  57.0452118  44.9750671  65.3076477   7.9804316  14.6913433   6.5003724
   8.1984663  15.1077251   7.3342299   8.2629890  15.3210211   5.8371239
  11.0844240  64.9752045   2.3514941  11.6578894  65.7064209   2.1219563
  11.6499205  64.2041855   2.3069415   2.4478776  71.2569046  54.8075142
   2.9004581  72.0606613  55.0632019   1.8497374  71.0776825  55.5330048
   9.8042746  48.7417717  51.0032196  10.2903509  48.1285515  50.4519272
   9.1357241  48.2040939  51.4276886  75.0997009  59.4206543  39.6490288
  74.5676956  58.8749924  40.2282181  75.0085297  60.3053398  40.0029335
  78.2543640  49.3471909  41.3485374  77.7030869  49.7712250  42.0061989
  78.1879272  49.9130707  40.5793839  53.8093033  16.8888569  36.4723930
  54.0210419  17.6062622  37.0696602  54.4070778  16.1844292  36.7227402
  81.3841095   9.4582090  28.9818726  81.2145538   8.5901232  29.3478107
  81.9748001   9.8721886  29.6111069  25.3968182  50.2957802  54.2396622
  25.4237270  49.4019432  54.5810776  24.4657478  50.4731827  54.1059952
  79.9751663  36.2709122  30.7998543  80.4115219  35.4502831  30.5709572
  80.2237091  36.8770943  30.1019993  57.6931572  10.9114923  54.7826614
  56.9160233  10.5986118  54.3196259  58.3356247  11.0714960  54.0913849
   6.7493720  70.6276779  78.9057236   7.3572807  70.2214584  78.2879333
   5.8963032  70.2555237  78.6820984  82.5571747  20.4391117  68.1331711
  82.8537521  19.9324665  67.3771362  83.3470078  20.5716877  68.6574020
  68.3863678  17.3052540  42.3774223  67.7943573  17.8090477  41.8188972
  67.9380722  17.2596302  43.2219200  16.9387913  58.3650322  78.3878479
  16.8300133  59.2306557  78.7816696  17.6888866  57.9859962  78.8460159
  51.2774086  21.3337078   1.5717459  50.9993362  22.2426281   1.4587364
  50.9416351  20.8824520   0.7972430  64.8550568  36.2564125  10.4972143
  64.4884796  35.6526718  11.1432352  64.3511658  37.0624390  10.6096764
  24.7363815  54.5941963  70.2806091  23.9972744  55.0212746  69.8475266
  24.8286743  53.7566338  69.8265152  45.5494003  25.4461021  54.0996857
  46.1501350  26.1059895  54.4459496  46.0309448  25.0378418  53.3801918
  31.4070110  33.8827744  85.1915817  31.8814125  33.4492188  85.9009476
  31.3250141  34.7921143  85.4790039   5.0664129  38.4464226  14.5337524
   5.5424156  38.1943207  15.3250160   4.5863805  37.6576500  14.2814789
  65.8748398  23.2569599  45.4168129  66.6685562  23.7803059  45.5279541
  66.0767441  22.6668968  44.6906624  38.9659348  57.0229492  38.4044991
  38.0751686  56.7840157  38.6607857  39.2332649  56.3336678  37.7965012
  54.9369659  42.1808357  32.7197609  55.0267220  41.6129723  31.9544468
  54.0142326  42.4353638  32.7222481  61.7822838   4.6022453  75.6896667
  61.1637840   5.2233701  75.3050995  61.9289970   3.9532063  75.0015869
   2.7879860  48.1606064  88.3617249   2.4655015  48.6060753  87.5782776
   2.5905037  47.2363510  88.2101135   2.9174287  46.4586830  30.7804241
   2.8122368  45.5885658  30.3956337   2.6551824  47.0615387  30.0847034
  64.0214539  56.3027802  20.5838032  64.1485519  57.0299873  21.1931000
  63.0741539  56.2633171  20.4522457  51.0472984  12.3419542   1.5568867
  50.9970093  12.6853914   0.6648365  50.1486969  12.0874395   1.7665631
  11.0901346  18.2866783  73.0146484  10.2850161  18.7677212  72.8233032
  11.3984222  18.6553459  73.8424606  81.2992859  52.4160957  72.0978928
  80.7820282  52.0197296  72.7990112  80.9707260  52.0070915  71.2972717
  15.4815178  51.2298889  76.0336761  15.5153770  50.4403419  76.5737686
  15.1980028  50.9197807  75.1736221   2.8862803   0.5305945  77.9940186
   2.8979347   1.3942018  77.5813675   3.5792379   0.0430007  77.5487137
  43.9050217  50.9613037  31.1054268  43.1060295  51.2871628  31.5197430
  43.8087425  51.1953926  30.1822987  38.5494957  63.6358604   5.8027897
  38.3734283  63.0820503   5.0421824  38.6017914  63.0243645   6.5373435
  57.4157715   3.9365802  26.2429848  57.9762344   4.7064271  26.1457844
  56.5289383   4.2660165  26.0972843  13.6824522  35.5667419  73.9180298
  14.5053024  36.0543213  73.8804245  13.1903639  35.9816360  74.6265106
   9.0542307  50.6763878  39.4815445   8.8473930  51.6033974  39.3627853
   8.7390432  50.2562370  38.6813202  37.0239449  10.6053963  14.8647852
  37.9457970  10.3505173  14.9029665  36.5447617   9.7777319  14.9046316
  61.1599464  50.6199951  43.6455154  60.3385773  50.1995239  43.9000587
  61.3315544  50.2949638  42.7616959  41.9862251  63.1991386  49.3091164
  42.0151978  63.4324799  50.2369843  42.1885300  64.0146713  48.8506241
  78.3099823  67.7391510  44.5370369  79.1579361  67.8190765  44.1002121
  78.2345734  66.8078766  44.7450790  39.3889236  53.6411858  59.9771957
  39.5635567  54.4706306  59.5324936  38.6244392  53.8194122  60.5249443
  16.4139366  44.4139977  36.3179741  15.8137646  44.2737770  35.5856056
  17.1900253  44.8079567  35.9195862   1.5657040  24.9495525  18.7303810
   0.8339610  24.6593513  19.2749615   1.2398905  25.7344151  18.2898502
   0.6758112  54.0338783  15.4989042   0.3885232  54.8621254  15.8832226
   0.2950175  54.0324860  14.6207094  55.0276337   4.9106016  51.2860641
  55.0791855   5.5682530  51.9796562  54.8375359   5.4126782  50.4935951
  71.5711136  11.8405294  37.8875618  72.2493286  12.4620228  38.1521416
  70.8510132  12.3895493  37.5773010   1.1487350  26.0705147  86.4943237
   0.8120951  26.9103928  86.1820602   0.3664070  25.5398388  86.6445770
  84.0127411  51.0471725  69.6422195  83.2890930  50.5054893  69.9571075
  84.4567947  50.5004158  68.9940720  82.4713440  18.5015564  16.3176613
  82.4776535  18.8147774  15.4131823  82.2593536  17.5707798  16.2473259
  53.4012299  20.8477077  30.3436852  52.8629303  20.0618134  30.2496872
  52.8013840  21.5090218  30.6887608  59.4259453   4.4532247  30.8021908
  58.8015862   3.7352514  30.6976757  58.9321289   5.1358299  31.2565346
  79.4371948   8.9231853  85.6869659  80.1992569   9.4918156  85.7971954
  78.9441071   9.0229654  86.5013046   7.2773890  43.5450821  59.4891281
   6.9022384  42.8460464  60.0247078   8.1819258  43.2712555  59.3372612
  16.0847015   4.5993762  16.8782940  16.6867275   3.8580940  16.8127422
  15.4802389   4.3557482  17.5793667  81.3856659  43.3987541   7.0817461
  80.6916962  42.8198318   6.7663341  80.9233170  44.1691208   7.4119010
  37.5590210  65.7593079   8.7032652  38.5043640  65.8471832   8.5814838
  37.4664078  65.3135834   9.5452766  70.8222351  43.5250092   2.4049726
  70.9805908  42.7437325   2.9348397  70.5423279  44.1890259   3.0350273
   0.3639632  51.1951408  13.1175976   0.3635856  51.8679810  12.4367743
   1.1694840  50.7009468  12.9654894  28.0313263  32.0107574  74.5171661
  28.6811199  31.3106861  74.5796051  28.0867119  32.3086586  73.6091843
   1.9273595  47.8628120  70.2701797   2.2599561  48.5079346  69.6461334
   1.9215144  48.3225594  71.1097183  77.0980835  57.0033951  54.3048973
  76.9620743  56.0659180  54.4422531  76.8682404  57.1467819  53.3868332
   8.9433775   4.1911335  18.6068230   8.5379448   5.0527430  18.7042141
   8.7527933   3.7422659  19.4304886  22.1297607  45.4232407  88.6185608
  22.1035805  45.3967171  87.6620865  21.2111168  45.4778938  88.8818817
  20.5789680  58.0127525  84.5052185  21.3032608  57.7421684  85.0695038
  20.9766808  58.6166306  83.8780136   8.9340353   4.3180971  58.5141983
   8.3268976   4.6196785  59.1899643   9.7714472   4.7179933  58.7488365
   3.0546112  55.3839149  17.6887035   3.1683624  54.5375443  17.2563286
   3.2098293  55.2021523  18.6155796  54.0793190   6.2999034  65.3635101
  53.9872818   6.5088015  66.2930908  54.7037621   6.9459772  65.0335159
  40.0648117  70.5747604   3.2563610  39.3505249  69.9907761   3.5113051
  39.6631775  71.4428787   3.2203760  79.5522537  24.6453896  33.8294830
  79.4079056  24.8277130  34.7580070  79.2113876  23.7598591  33.7034645
  55.6541786  30.5159378  53.0181656  55.9649277  31.0995274  52.3260040
  54.7021790  30.6147385  53.0052872  56.2049217  62.4313278  44.1282387
  57.0495872  62.3935242  43.6795273  55.8481293  63.2884636  43.8953247
  21.7431068   2.4420404   7.2675157  21.6847839   1.8234810   6.5393577
  21.4952869   1.9298974   8.0372734  75.6725616  54.5909386  80.0850372
  75.5814285  54.8107224  79.1578827  76.1012344  55.3546982  80.4712219
   9.8313932  45.1273804  62.0077095  10.7421999  45.4215202  62.0196991
   9.4576874  45.5369377  61.2274284  80.1177826  64.4311829  44.8029137
  80.0293045  63.4893761  44.6565971  79.2625275  64.7032471  45.1357155
  68.6705399  35.5725174  35.8783875  69.6084595  35.5170403  36.0613060
  68.2517548  35.2338715  36.6696930  73.0800247   6.2734885  53.5752029
  72.6359482   6.8987670  53.0024414  73.2440491   5.5127769  53.0178490
  57.4899635   5.1896591  53.2247467  57.7613335   4.3261762  52.9133186
  56.5872383   5.0657206  53.5179367  27.5035095   3.3241315  18.2088604
  26.9614792   4.0754433  17.9680996  26.8773136   2.6582916  18.4930573
  50.3968773  70.3827744   9.1492176  49.8391876  70.6175766   8.4075432
  50.1860313  71.0303192   9.8218727  82.0985947  41.5204468  55.3204918
  81.2680435  41.1397858  55.0349808  82.4113464  40.9277229  56.0039406
  77.7687378   6.9715900  10.7952948  78.6766052   6.7302761  10.9790974
  77.5007095   6.3786001  10.0933294   7.4608583  44.4746780  40.4512596
   7.5962501  45.3600883  40.1136932   7.4259996  44.5834084  41.4016266
  83.3659134  47.5985870  11.5408707  82.7251129  46.9423180  11.8145761
  82.9425659  48.0591316  10.8163652  34.2963333  41.7529411  88.7638092
  33.6955948  42.2499809  88.2085648  34.0674286  40.8372421  88.6046524
  72.8198624  37.9061432  47.0274506  73.6924438  38.2933655  47.0974464
  72.5529251  38.0788002  46.1245880  68.0463638   8.3773737  18.8015232
  67.3735886   8.7876568  19.3449173  67.6812897   8.3917208  17.9167919
  79.5026474  27.6620293  37.2471657  78.7037048  27.2584763  37.5863724
  79.3467712  27.7482090  36.3066826  25.8290138  69.8025360  23.6328907
  26.5495853  69.8282166  23.0033283  26.2579403  69.7198792  24.4846077
  73.9011459  37.9588585  55.1146278  74.7399673  38.4125252  55.1971130
  73.2675552  38.6559219  54.9446259  47.1635666   7.2810717  17.0985947
  46.9349518   6.5445166  16.5316238  47.3844299   6.8776093  17.9380398
  57.4052734  40.9534302  43.4001427  58.1135521  41.5765038  43.5624771
  57.3523140  40.4362793  44.2038727  59.9568520  42.9817581  83.3808975
  59.6227989  43.4472618  82.6141205  59.2200584  42.4467468  83.6760788
   6.8993063  52.2035942  18.6924820   5.9848394  52.1306610  18.4192371
   6.9886909  51.5675049  19.4021530  77.2982025  38.4767303  78.7628326
  76.3501892  38.6062546  78.7359619  77.6048737  38.7735481  77.9060440
  58.3803978  50.6409683  73.0549850  58.2609329  51.4186401  73.6001282
  58.8323669  50.9624672  72.2748566  86.2974548  42.6404800  10.2165298
  86.0904312  43.2814331  10.8966427  85.7141571  41.9032288  10.3966846
  81.9449692  36.6481094  48.6718102  82.0498886  35.7771149  48.2889404
  82.2641525  36.5552025  49.5694313   6.9790449  41.4000359  17.5855904
   6.6315985  41.6704941  16.7356701   7.0737257  42.2163582  18.0763950
  16.1349831  12.2339602  26.3232594  16.1478519  13.1416349  26.6268921
  15.5988598  11.7731142  26.9685688  32.6865997  51.9399796  31.2833118
  32.6382370  51.1106033  30.8078861  33.6134186  52.0369987  31.5020027
  72.0435638  28.1701221  87.6480026  72.5009995  27.3296280  87.6243362
  71.6937866  28.2274914  88.5371552  52.3351555   5.5686369  28.6277676
  52.8616905   4.8622904  28.2535114  52.8235703   6.3659153  28.4227562
  47.4531250   8.1186819  86.5090790  46.9927025   7.3081245  86.2917328
  48.3807335   7.8873000  86.4617691  18.2797489   8.0207300   5.2833061
  18.0286732   7.8015642   4.3859992  19.2311325   8.1201010   5.2483277
  73.0881577   2.1166277  21.4213715  73.5915527   2.7078311  21.9811020
  72.4536209   2.6838436  20.9833450  11.3663673  61.5501213  66.7725983
  11.4729404  60.8218575  66.1606293  12.1594000  61.5308304  67.3082809
  31.6987877  47.4698944  21.9726791  31.4792767  48.4000130  21.9186211
  31.2133503  47.1531181  22.7344112  61.2781105  60.7323341  53.1887550
  61.7265205  61.4889069  52.8109207  60.3471870  60.9268341  53.0801926
  58.8847313   9.7488194  76.0649338  59.4830551   9.0110664  75.9467773
  58.0531082   9.4431238  75.7027435  70.5287552   5.6263227  42.5762787
  69.6941681   5.2130857  42.7974854  71.1559830   4.9035416  42.5560875
  30.0341415  59.1581535  38.9036064  29.8915291  58.6559715  38.1012917
  30.8606606  59.6174927  38.7549324   2.3895555  55.8334808  88.9827805
   1.4854398  55.6355400  88.7385941   2.9180882  55.2524147  88.4357529
  13.1896133  55.2862358  33.0728683  13.7151680  55.7688332  32.4348068
  13.7658386  55.1853752  33.8305130  85.9167633  38.9523773   8.5498743
  86.0575104  39.4934082   7.7728858  84.9832535  39.0448608   8.7402363
  58.4282722  48.2239952   7.9247146  58.4998169  47.3185654   7.6225495
  57.4886856  48.4064751   7.9141865  70.0917053  26.9759293  23.6918659
  69.5861740  27.1734619  22.9034138  69.5238724  26.3983917  24.2020168
   4.2338514  11.7445335  31.0022163   4.8580303  11.1103735  31.3550243
   3.6646774  11.9573021  31.7418137  62.7085190  30.2814312  52.7607269
  62.1315842  30.7102928  53.3927498  63.2122231  29.6562843  53.2819786
  29.3237171   0.9104601  33.7303391  29.0969105   0.8799927  34.6597786
  28.8900833   1.6988131  33.4036980  74.6975403  30.8282146  80.4276123
  74.7056274  29.8925591  80.2258301  73.8209610  31.1197319  80.1768951
  50.0552216  46.1336594  88.5075378  49.4681969  46.3553543  89.2303772
  50.9129906  46.4513855  88.7895279  45.6814156  69.4925766  85.1205597
  46.3700752  70.1385040  85.2779236  45.4241676  69.1989899  85.9945450
  76.5860367  23.0003166  11.5691757  76.2355881  23.1357632  10.6887922
  76.3652954  22.0925808  11.7777967  26.8843403  53.3163872  59.9680939
  27.1102905  52.7383537  60.6968307  25.9282703  53.2905426  59.9294319
  81.7183609   2.8225834  13.6584263  80.7713928   2.6852589  13.6335115
  82.0191422   2.5766814  12.7836123   7.5481100  24.4494438  66.1432571
   8.0452719  25.1243095  66.6054459   7.7938509  23.6320190  66.5764542
  36.8561478  52.3077087  88.7416840  35.9032402  52.2652473  88.8216553
  37.0071869  52.8136826  87.9432983  11.0594797  52.7057953  62.4424477
  11.4120007  53.5113945  62.8205605  11.0012779  52.8869781  61.5043564
  46.3531876  63.1662407  47.7903366  46.0253868  63.7241440  47.0849838
  46.6321793  62.3631554  47.3505020  12.6082373  55.5987968  72.9017105
  13.1948690  56.3547974  72.8781052  12.9730959  55.0336876  73.5827103
  10.5067253  45.5168686  19.9858379  10.7298374  46.2018929  20.6160698
  10.3571844  44.7379265  20.5216694  52.1380081  25.7410107  78.7883682
  51.9616737  24.8402748  79.0600510  51.5253181  26.2696800  79.2995987
  74.8201447  42.3448105   7.6218667  75.5679550  42.7599068   7.1920896
  74.1955566  42.1851578   6.9143186  41.1499176  55.1962547  80.5645676
  41.8634109  54.7407188  80.1177521  40.5269470  54.5046997  80.7879333
  40.9451370  66.5211639  45.3182487  41.6124802  65.9595032  44.9240150
  41.4070854  66.9907532  46.0127411  45.8526878  17.6074905  40.4663353
  45.9098854  18.0294380  39.6090584  46.7445602  17.3106937  40.6471901
  85.4130402  37.5614166  40.0970268  84.6219482  37.4167290  40.6161232
  85.1145020  37.5189590  39.1885643  22.7186260  71.4624176  18.4866352
  23.4798851  71.2533493  19.0279408  22.1852245  70.6678543  18.5063725
  65.8479385  24.3532276  21.9169865  65.4035568  23.5432358  22.1673088
  66.1923370  24.7014809  22.7393875  64.3295822   8.5925751  60.0109520
  65.1692123   8.5785074  60.4703560  64.5609436   8.7374067  59.0934944
   0.4240455  28.0799675  82.6556091   0.8947707  28.7142029  82.1148682
   0.0453231  27.4644547  82.0279541   4.9417863  13.1206665  69.5376053
   5.8360267  13.3193245  69.8152771   4.3986177  13.7518206  70.0096664
  81.5010834  70.0907669  88.1433716  82.1670761  70.5205917  87.6067734
  81.4767914  69.1904297  87.8192902  46.6703606  34.2141495  64.3926468
  46.2251053  33.4421005  64.0434875  46.5312805  34.8909187  63.7301712
  78.1553650  65.6628494  31.1411896  78.6535339  65.4476471  30.3526802
  77.8021088  66.5359497  30.9704647  48.8843079  55.7750702  82.2339935
  49.1115265  56.5257454  82.7827148  48.2894173  56.1318588  81.5744171
  17.9859734   2.0335634  61.2276459  18.3115635   2.2517207  62.1009331
  17.4532337   1.2493474  61.3596497  73.7626648  10.8985634  67.1311798
  74.5865631  11.3787403  67.0483780  73.4619522  10.7816811  66.2299881
  71.5417862  31.4764843  12.4619102  72.2347183  30.8225517  12.3699913
  70.7318649  30.9907837  12.3058529  28.2387905  35.3126869  84.7460098
  29.1391468  35.4347801  85.0471420  28.2655888  34.5058479  84.2316895
  48.5786057  31.6434708  -0.1300637  48.7974548  31.9216309   0.7592977
  47.9759521  32.3150024  -0.4495764  27.5971527  42.7653809  58.0598259
  27.2832165  43.4254303  57.4417572  28.5076199  42.6136932  57.8063087
  26.5330601  58.8700180  32.8836784  25.9284935  59.4714508  32.4489326
  26.7462482  58.2195091  32.2146339   8.7197580  45.4383736  43.1052933
   9.6035891  45.0871773  42.9969597   8.7258139  46.2586021  42.6119118
  69.5023346   7.8335347  43.7609024  68.8382721   7.7172756  43.0813942
  70.2784348   7.3925824  43.4152794  77.9411697  67.6263733   9.1807613
  78.1738586  68.5405731   9.0185013  77.3997269  67.6534271   9.9696503
  84.5774765   3.2214730  83.3963776  85.3314667   3.8107026  83.3730850
  84.2290039   3.3133562  84.2831497  74.6656036  20.5230579  22.4400787
  74.8402939  20.5093708  23.3811035  75.5316238  20.4766674  22.0350075
  85.0448074  29.6402817  40.9033432  84.1145248  29.7490520  41.1007614
  85.3019028  28.8548508  41.3862801  47.5098534  35.0647736  34.3604050
  47.3945312  34.1209106  34.4701996  47.0972977  35.2602081  33.5190773
   4.5425181  18.0732784  85.8863602   4.0374928  17.9829369  86.6944580
   4.3420029  18.9563084  85.5760651  86.4270172  38.8534355  73.3486404
  85.8835831  38.7325897  74.1272964  87.1749191  39.3658600  73.6557083
  75.8125687  54.9362411  41.0602188  75.7563705  55.8595505  41.3063240
  76.7507324  54.7463722  41.0552139  72.7394409  42.9217491  68.8129654
  71.9109039  42.9334679  69.2921600  73.0222549  43.8361397  68.8011551
  12.2827015  52.5774460  32.4499359  11.3610573  52.6274109  32.7035217
  12.6580505  53.4064674  32.7466927  77.4194031   5.0422487  12.8642254
  77.6822739   5.7119212  12.2328243  77.3032684   5.5198908  13.6855679
  35.6173935  45.3784790  19.3314476  36.5239410  45.3194199  19.6329746
  35.6381683  46.0377388  18.6377811   9.8127718  37.7340050  68.5573883
   9.3126678  37.0239105  68.9597549   9.1530590  38.2769966  68.1259155
  66.4340973   7.7009664  50.0607109  65.9883728   7.4474773  49.2524376
  66.3602142   8.6549788  50.0858994  73.4733505  48.4038353   8.3249025
  73.3165359  48.2389870   9.2546682  73.5622864  47.5324783   7.9388280
   3.3014164   4.2431154  51.4575272   3.9333453   4.8913956  51.1466713
   3.4095445   4.2401137  52.4085960  70.0972061  49.2387428  81.9499207
  70.8497849  48.7028046  81.6996765  69.6854095  48.7542038  82.6653748
  25.9733448  68.7895279  19.0724087  25.3047771  69.2549667  19.5750179
  26.2421703  68.0684433  19.6416149  78.0357056  53.6736565  16.4886284
  77.5425034  53.0171013  15.9967785  78.8656464  53.7518158  16.0181828
   2.0533764  47.4337158  50.8260345   2.6872358  46.8893623  50.3589859
   1.4340130  47.7123909  50.1515274  69.3227310  46.0977440  43.1950340
  68.5759048  46.6443787  42.9507637  70.0868835  46.5839615  42.8853569
  57.7426567  61.2606888  10.2091465  57.0342369  61.2353821  10.8523693
  58.3611183  60.5938759  10.5076342  83.1525116  25.9306011  42.0507584
  83.3868713  25.0630531  41.7211151  83.1984711  25.8454342  43.0030556
  77.6749344  69.4205170  42.6012726  77.5411453  68.8395233  43.3501244
  77.9769592  68.8424911  41.9006271  73.1437225  15.5705032   4.3527722
  73.9564819  15.7683983   4.8180671  73.3384018  14.7741175   3.8587067
  52.8164940  15.6732302   1.7641948  53.6712341  15.9791117   2.0676491
  53.0176430  15.0781670   1.0419277  25.1993313  15.8572922   0.3975799
  25.0122395  15.5117970  -0.4752672  25.0598602  15.1139994   0.9843471
   2.6345000  28.6850319  57.6174316   3.2520959  28.5454388  56.8995705
   2.9675686  28.1389523  58.3295364  26.4625340  65.0886078  54.4133568
  26.4494267  65.1598816  53.4589043  26.1033001  64.2198792  54.5936203
  86.2723541  57.9950600  39.6889725  86.4269485  57.3601379  38.9895401
  87.1182480  58.4255638  39.8129158  46.3597946  18.8910294   5.0615263
  46.6195984  19.5429955   5.7124286  45.6890373  19.3294086   4.5379395
  67.4177017  47.7793007  65.7889328  66.8756332  47.9867134  65.0277710
  67.0208282  46.9901886  66.1577454  55.5132904  49.8429871   1.6310041
  56.1826134  49.8767624   0.9475591  55.0198288  49.0444527   1.4437248
   9.8198023  44.5204544  54.8854294  10.7740574  44.4469757  54.8702927
   9.6427555  45.2092819  55.5260582  57.1172256  48.0181618  50.7268448
  56.4251862  48.2816734  50.1203194  56.7813225  48.2554474  51.5911903
   4.9020128  14.6534214  77.5536194   4.8061786  15.5947990  77.4092026
   4.4206781  14.4851532  78.3637009  62.9416809  34.4117317  67.9458923
  62.0149956  34.5145454  67.7292862  63.1646309  33.5346107  67.6341553
  34.0801048  42.5740204  33.6246758  33.7429047  43.4697838  33.6365204
  33.8826294  42.2322121  34.4966850  79.5528793  29.9417534  11.2272692
  79.5001984  29.0553513  10.8698530  80.4130173  29.9806576  11.6454496
  38.7872467  44.4789276  29.0149498  38.8404198  44.8220673  29.9069462
  39.0523453  43.5626259  29.0946178  47.7565117  48.8886452  52.8123741
  47.6343040  48.0353508  52.3962135  46.8862877  49.2871704  52.8016815
  58.9146919  46.0478058   1.3991290  59.3417206  46.1773529   2.2459443
  58.0839767  45.6227303   1.6123340  27.7309513  40.5963669  31.9030304
  27.0364075  41.1889877  31.6155586  28.2258968  40.4033318  31.1067905
  24.3679028  32.1971512  84.7714615  24.4243107  33.1525955  84.7582321
  23.5900803  32.0103989  85.2971497  56.4112625  28.1086235   7.8469539
  56.1174469  27.2060337   7.7235198  56.2837029  28.2764626   8.7806511
  82.4161987  53.9770088  22.0150776  81.5185471  54.2711601  22.1697350
  82.3429642  53.3544388  21.2917023  57.3401566  67.2018585  18.8884487
  56.4339638  67.0085220  18.6483040  57.7588921  67.4490967  18.0639687
  80.3314056  24.7384396  43.8045349  81.2804489  24.6356812  43.8750725
  79.9848175  23.8551617  43.9307404  57.8032913  35.6394234  58.2141418
  57.3739433  35.7740822  59.0589828  57.1778030  35.1214790  57.7074547
  35.3639145  26.8110104  70.0691833  34.7023621  26.5116425  70.6928558
  35.7083244  26.0067596  69.6808624  78.4004211  14.7280531  76.5837326
  79.2329559  15.1968222  76.5256958  78.4503250  14.2530651  77.4132690
  75.3884735  28.8679028  22.0805168  75.6674957  29.5517025  21.4715843
  74.4661560  29.0598640  22.2499580  82.8794098  36.7257347  34.7713509
  83.5971222  36.0987740  34.8609886  83.2189789  37.3952141  34.1774445
  80.3396225  61.5664368  51.5057793  81.0601883  61.3744087  52.1058960
  80.2337799  60.7643776  50.9941864  64.3098984  64.5334549  61.8515625
  63.9520988  63.7284470  62.2259712  64.5298615  65.0735168  62.6106224
  78.7773743  56.4701767  87.8617859  79.0086060  55.6392136  87.4467392
  78.8459015  57.1162453  87.1588440  19.9113808  27.4747486  72.1895905
  19.3644791  28.2599449  72.2140503  19.2991562  26.7520390  72.3278122
  46.4488449  63.1398315  43.8219414  46.6225739  63.9111633  43.2824097
  46.9982948  62.4537506  43.4429512   3.8735855  31.1613178  47.8486977
   3.9307060  31.2647514  46.8988152   4.6326933  30.6249123  48.0772934
  48.8115425  16.6065331  70.8690109  48.0157280  16.4826107  71.3862686
  49.4586029  16.9260578  71.4978638  42.1093178  70.6361847  20.9872513
  42.6879349  69.8800659  20.8886547  42.0318489  70.9953613  20.1033840
  65.9944763  22.6581898  60.0846519  65.1644821  22.8758335  60.5088959
  66.2134399  23.4370289  59.5730896  44.9926453  63.8527718  30.5437984
  44.5691643  64.3320770  29.8316441  45.9096336  63.7881927  30.2769756
  33.9654541  40.4132004  71.6480789  34.2561455  39.8399620  70.9387589
  33.9482727  41.2871323  71.2579727  49.5707817  13.1416559  66.4913635
  49.6757050  13.0951385  67.4416580  50.2080727  12.5148211  66.1490555
  51.3364334  30.6156235  37.2950172  50.7190895  30.7647552  36.5788612
  51.9735794  31.3253155  37.2136917   4.7438822  27.3077240   6.3379288
   5.5702629  27.1809139   6.8040252   4.0761762  26.9811134   6.9410248
  69.9521637  22.4963799  55.4114189  69.2299042  22.7257862  55.9961815
  70.7171555  22.9237995  55.7965508  78.8682327  15.4699259  71.7752838
  78.2407684  14.8561325  72.1570969  79.7176208  15.1845388  72.1119156
  20.3864422  69.5203323  76.1288071  21.0696182  69.9281693  75.5966721
  19.6643467  70.1484985  76.1140289  67.1990204  23.4795666  53.9480286
  67.2022095  23.6302910  54.8932838  67.5243759  22.5850410  53.8470268
  15.5316877  63.7146301  76.2115555  15.9922218  64.0738220  75.4531937
  16.2225971  63.3313255  76.7518845  50.7930756  48.3688126  11.5826368
  50.4330940  48.6581802  12.4210358  50.4201736  47.4972916  11.4498730
  28.0550251  52.5504913  44.7966423  28.5734787  52.4351463  45.5929642
  28.6062202  53.0878372  44.2277184  45.7294769  14.8121290  87.8354416
  46.1576042  15.6193810  87.5503387  46.4447632  14.1838541  87.9347687
  36.1386604  36.3314514  83.6374283  36.8339844  36.3414154  84.2951965
  36.5937920  36.1743393  82.8101425  47.5365982  36.5020409  44.3973618
  46.7759209  37.0447731  44.6048203  47.9173355  36.9104424  43.6198807
  53.5263786  59.1913071  13.8008995  54.3245697  58.9808311  14.2854881
  53.1187286  58.3421860  13.6304598  64.8716965  43.1276093  15.4189291
  64.0652161  43.4284897  15.8376102  65.1066589  42.3316803  15.8959217
   0.3332543  10.2131786  35.7240906   0.9984379   9.5364819  35.8499603
  -0.4791120   9.8105001  36.0309181  17.0500774  69.0192719  33.6240768
  17.0949669  69.9684525  33.5088615  17.7456207  68.8209457  34.2510681
  45.2717056  41.3223572  80.7335815  45.0493126  42.1566048  80.3202972
  45.8139877  41.5640640  81.4844055  60.3178711  33.0892982  75.0997314
  60.9447746  33.2943649  75.7933960  60.7150307  32.3582230  74.6264191
  45.2898827  68.4555130  49.1293907  44.8543358  69.1082077  49.6775856
  44.9609451  67.6156540  49.4498024  20.3133049  11.1132431  66.2154236
  19.7232513  10.3614626  66.1616211  19.7319527  11.8676462  66.3110275
  12.7746391  26.8434353  83.7607803  13.3157310  27.5538101  84.1054764
  13.2182903  26.0445347  84.0456696  80.8923798  34.9787369  66.0427704
  81.5127563  34.3083687  65.7564621  80.0440903  34.5353012  66.0437164
  66.3806915  29.5630341  43.1437798  66.6079941  29.8728333  42.2670860
  66.9190674  30.0925598  43.7319870  58.7633514  18.1730900  27.2491379
  58.6448021  18.9952393  27.7247944  57.9515915  17.6891975  27.4012146
  81.4515305  69.1356430  20.6535778  82.1394653  68.7798157  20.0911179
  81.9180908  69.6815186  21.2864857  24.6573544  19.5692062   0.3854649
  23.7630062  19.3249512   0.1473186  25.2113571  18.9975319  -0.1460434
  61.4491768  24.3195972  78.2247238  61.9488029  24.4585114  79.0292740
  60.9135971  23.5471821  78.4057236  53.8373909  22.5843201  56.6861343
  53.5585213  23.1994743  57.3644066  53.3632584  22.8612080  55.9020653
  56.3187027  29.7061367  49.3858643  56.3241234  29.7351799  50.3426094
  56.7572823  30.5140858  49.1192245  28.8257313  50.1471443  26.3651714
  28.1179295  49.9521751  26.9793644  29.6033249  50.2360764  26.9162369
  40.2188263  71.1294174  65.7161102  39.5335274  71.2875900  65.0668182
  40.0594749  70.2357254  66.0196762  83.8849487  38.0230675  27.2795048
  83.7935944  37.2226181  27.7963886  82.9860229  38.3176575  27.1332874
  39.7760544  54.6182137  45.9233475  40.0549316  55.0215836  46.7453842
  40.2728996  53.8013878  45.8767090  24.6164970  17.9882641  77.6893616
  24.7482090  18.4456882  76.8589096  24.9702396  17.1116810  77.5386963
  79.7791367  16.9051971  12.2780933  79.6886826  15.9528856  12.2441216
  78.9247971  17.2369366  12.0018826  67.0882187  22.2506161  81.4745331
  66.7015610  22.7124176  80.7305832  66.7035980  21.3748131  81.4389572
  69.7950592  26.3226089  37.0227776  69.8295746  26.4139233  36.0705681
  70.3082352  27.0601215  37.3528709  13.2091913  41.5564423  38.9138298
  13.4864836  42.4680023  39.0054817  13.1153736  41.4283829  37.9698868
  54.2072029   1.8728871  71.7779236  54.1519508   1.5442824  70.8805923
  53.7290993   2.7019241  71.7592545  49.0276489  34.3848953  39.1499329
  48.9286270  35.2127380  38.6797142  48.8775063  34.6113281  40.0677643
  55.7393265  41.7853966  58.0882263  55.5055580  42.6753998  57.8246384
  55.7083092  41.8029480  59.0447617  44.9613991   6.1201162  13.8299742
  44.4993019   6.0434093  12.9952192  45.6742630   6.7340708  13.6535807
  33.3662872  17.9965115   9.2859392  33.7065582  18.8908997   9.2632227
  33.3308525  17.7773094  10.2170277  85.4898300  63.3834419  20.8842850
  84.9731979  63.6741562  21.6358261  86.2389984  62.9292793  21.2699127
  61.7432785  44.5105286  87.7554779  62.1444969  43.6449814  87.6775131
  62.2387772  45.0598068  87.1480179  52.7552261  50.4554596  34.5816307
  53.1370239  51.1435051  34.0366020  52.5041084  49.7706223  33.9618149
  34.1381836  19.0117722  17.9709511  34.5550003  18.3458862  17.4240589
  34.2568474  18.6949406  18.8663654  50.3082047  17.2169418   4.2582140
  49.8903809  16.3586845   4.1871324  50.6682510  17.3809719   3.3866107
  74.9497070  30.9580574  29.4398365  75.2973404  31.1361103  30.3137245
  74.1001282  31.3987865  29.4256535   6.6349759   1.4895127  21.4340668
   5.9643612   1.0834968  21.9833012   6.6635642   0.9438286  20.6481628
  38.8346977  30.8947182  17.2329292  38.2626686  30.9682655  17.9968681
  38.2427292  30.9584274  16.4834328   2.9420521   6.8937197  59.3283195
   2.8141842   7.7315698  59.7731667   3.2128031   6.2928467  60.0224915
  20.8293533  62.7775650  59.2966881  20.3799877  62.2057037  58.6743736
  21.5921345  62.2725410  59.5783730   9.0277605  44.1786804   9.6936703
   8.1576538  43.8457527   9.4738827   8.8787889  45.0898247   9.9463596
  21.6737251  47.0820122  16.6357784  22.0054531  47.9328690  16.3490200
  20.9312325  46.9071617  16.0575352  55.4170036  17.5096359  39.8135910
  56.2288284  17.2533360  40.2511749  54.8131409  17.7116241  40.5282822
  11.1046515  33.1881142  20.5008335  12.0458088  33.1095581  20.6566658
  10.7029924  32.6543846  21.1864243  27.4614620  69.1347275   0.4012707
  27.8611584  69.0836334  -0.4669819  28.0631180  69.6779709   0.9103181
  75.7541046  26.9426289  59.6781845  75.0812302  27.5783768  59.9216843
  75.5779877  26.1829891  60.2333069  63.3354225  38.4846687  10.4152346
  63.8673325  39.1376419   9.9603424  62.4379234  38.6740494  10.1416159
  76.6292801  22.2045002  63.8813705  76.4302063  21.2736988  63.9824181
  76.3014679  22.4263058  63.0098381  14.1570253  31.5936546   1.0947928
  14.0902815  32.1617508   1.8622838  15.0981779  31.4828472   0.9599445
  85.0802841   2.0190051  14.5345812  84.6809616   1.9385917  15.4007864
  84.8026428   2.8800192  14.2218485  64.8717270  45.5026283  28.9998932
  64.3690186  46.2273941  29.3716831  64.2366333  45.0147171  28.4756470
  65.3401260  60.9534302  60.7526627  64.4599380  60.5805397  60.8022804
  65.8930130  60.3249741  61.2169838  65.0695572  52.3101425  49.7721748
  65.0764999  53.2601547  49.8890533  64.7170029  51.9702148  50.5946007
  38.3402710  24.4506969   7.1665311  38.4208412  24.0670052   8.0397549
  39.0448303  25.0971813   7.1230426  42.5126495   9.6505976  85.7219238
  42.0261612  10.2983427  85.2120361  43.1065826  10.1696196  86.2642212
  29.4709034   1.4357983  77.8393402  29.6835499   1.0801281  78.7021866
  30.1769524   1.1261811  77.2720108  82.4374237  61.3020287  54.0323906
  82.3196564  62.1656075  53.6366768  83.1211853  60.8883743  53.5055275
  51.9922333  40.0030365  84.3449249  51.6444435  40.0536957  85.2352676
  51.4744034  40.6372299  83.8490677  16.0206528  66.8679886  22.8441963
  16.2813568  67.7615051  22.6208248  15.0701895  66.9145660  22.9475594
  32.3205528  68.6903839  71.7759781  31.8353062  67.9957581  71.3307037
  31.8924866  69.4992828  71.4954758  56.9083252  44.7784615   2.9236314
  56.6835060  43.9499855   2.5001762  57.4989967  44.5312386   3.6351221
  27.1914787  19.8948689  12.1156645  26.5091820  19.6254902  11.5007353
  26.7699165  19.8541584  12.9740696  15.5484324  -0.0197717  20.0746174
  16.0236492  -0.0811474  20.9032516  14.9373627   0.7058764  20.2021370
   1.5976464  46.2100143  35.6431541   2.5126023  45.9890175  35.8170738
   1.6116809  46.6278725  34.7820892  80.3470306  67.8344879  76.3100128
  80.3387604  67.9008484  77.2648773  81.1405487  68.2993011  76.0444794
  47.8797150  39.9035378  41.3803520  47.8151779  40.8375053  41.5797768
  47.0655670  39.5298042  41.7175713  65.4604034  44.0223351   5.2819839
  64.7646484  44.3972244   4.7419677  65.2434998  44.2932510   6.1740546
  67.8627701  38.1622009  65.7818222  67.1827621  38.7937698  65.5474167
  67.4031525  37.4920921  66.2877197  23.6993885   4.4179821  10.2470694
  24.3517475   3.8594515   9.8243341  24.2127361   5.0216618  10.7839851
  61.8304749  25.8614922  59.8567009  61.3106651  25.0712109  59.7101173
  62.4399223  25.8875504  59.1190529  44.1331062  52.7608833  17.8164673
  45.0533752  52.5078163  17.7436733  44.0309143  53.4758835  17.1883240
  68.0351639  30.8135738  44.7597885  67.9603500  30.4542847  45.6438408
  68.2003326  31.7468510  44.8937302  71.2727966  17.4382038  25.3162498
  71.5593033  17.9635849  24.5691738  70.3288879  17.5888214  25.3670597
   6.8055100  13.3284016  28.2568798   6.0493622  12.8642941  27.8976059
   6.5391240  14.2477188  28.2680855  72.0842514  68.8258438   0.4393524
  72.5074005  69.0456848  -0.3906143  72.6914673  68.2204361   0.8648013
  75.5912399   8.3645411  86.0267105  75.4862900   7.7906485  86.7855682
  74.7447586   8.8026991  85.9388809   2.8747370  34.2840080  54.5915985
   3.1371865  34.1688156  55.5048790   2.2976301  35.0475883  54.6027222
  71.0892410  30.1588783  60.1570320  71.0849075  29.7781830  59.2788048
  70.6322250  30.9941101  60.0582809  10.6628008   9.1559792  26.8549290
  11.0393143   9.8113394  27.4422722  11.3203449   8.4613466  26.8181515
  39.2785187  69.2214355  43.7155380  38.3791656  69.5126266  43.5652008
  39.2097359  68.2716217  43.8122597  38.2094383  35.1677475  87.8383331
  39.0379601  35.3544312  88.2798462  37.7092361  34.6560440  88.4740906
  19.9505615  29.4117699  76.3655930  20.5460720  28.9488087  75.7762985
  19.5690022  30.1037579  75.8254089  62.5656433   5.0794697  81.5834045
  62.4229736   4.5198126  80.8200836  61.7404099   5.0401592  82.0668106
   3.8141019  38.6228943  62.7454185   3.3792214  38.5412483  63.5942078
   3.3306706  38.0295525  62.1705513  79.6861877  48.5211449  35.3805542
  78.9124680  48.5216484  34.8170013  79.6631775  47.6701698  35.8182068
  69.4563980  43.7206078  10.5049267  69.8647385  43.1242981   9.8773050
  69.3663940  44.5455551  10.0278625  44.4165955  41.0075264  84.6046219
  44.0882225  41.6239586  83.9500885  43.8697929  41.1622009  85.3748856
  71.2402420  24.1053448  18.0495834  71.8229065  24.6535568  18.5751228
  71.1111832  23.3177357  18.5780220  27.0697002  20.6982327  76.4934464
  26.6307755  20.5406132  77.3293457  26.4839611  21.2918072  76.0235367
  30.7177963   0.0763944  65.7161407  30.6254253  -0.3124951  66.5858917
  29.9754524   0.6760914  65.6418533  11.5485964   4.3176451  17.6390152
  12.2390270   4.0744185  18.2557640  10.7410288   4.0082846  18.0493336
   5.4746699  69.2547379  54.2344704   6.4281135  69.3203964  54.1809235
   5.2120938  70.0077362  54.7638855  15.3027582  61.0650368   1.7870611
  15.2018871  60.1313133   1.9720517  16.0061531  61.1062202   1.1391630
  76.8743515  25.6903687  79.5164948  76.3878784  25.2657280  78.8099136
  76.2785950  25.6667404  80.2653275  19.2148705  53.7621117  84.2975464
  19.8644485  53.3701286  83.7139053  18.7107162  53.0187798  84.6284790
  60.1290436  19.4369183  39.6402550  59.7706642  19.4773846  40.5269127
  60.8937569  18.8663235  39.7168198  36.4384537  41.9919243  64.5578613
  37.2665787  41.6413727  64.8858185  35.9508972  41.2214813  64.2664185
   1.4176177  44.5333443   9.3606472   1.0798939  44.3501053   8.4839497
   0.7465557  44.1923370   9.9519348  64.1011658  16.4447937  13.6627388
  63.3899803  17.0661793  13.5067778  63.6841812  15.7125645  14.1168242
  67.1955795  29.1070175   5.5652170  67.7441483  28.3514004   5.7758160
  67.2619553  29.1935654   4.6142511  46.7834167  63.7699356  64.3358994
  47.2542191  63.0749855  64.7959213  46.8924103  64.5415802  64.8916931
  38.9183197   3.3008816  52.8940048  38.4393044   4.1282678  52.9409752
  38.3116417   2.6968608  52.4658318  12.8564959  43.8525200  74.5136032
  12.3295336  43.2374954  74.0034180  13.1365042  44.5119553  73.8787994
  17.3493614  41.2006226  77.1042480  17.0544872  41.8690529  76.4857941
  16.5689049  40.9861298  77.6152420  34.8440895  61.8888779  27.7762909
  35.6175232  61.5386620  27.3342667  34.6415253  62.6951065  27.3017406
  56.1161270  26.5667419  44.7871284  56.2783318  27.4875813  44.5822449
  55.3713875  26.5827084  45.3882446  67.0324478  30.3309536  40.6830101
  67.9382019  30.0837612  40.4966583  66.7085953  30.6934223  39.8584061
  16.1674099  68.9489365  37.1599312  16.9396152  68.3834381  37.1719437
  16.5200195  69.8370438  37.2161407  10.8053770  66.2064972  18.0812550
  10.4775419  66.9462051  18.5927067  11.0612345  66.5899734  17.2423782
  22.3710403  15.6369791  80.8062057  22.3685265  14.6806612  80.8472137
  23.2446537  15.8873053  81.1068268  76.7273483   0.2789536  30.2886658
  76.6304779   1.2085223  30.0819016  77.3854599  -0.0368263  29.6694736
  68.0741196  19.0458317  20.8982296  68.9653931  18.7084084  20.9876785
  67.7690430  18.6973724  20.0605316  22.3462963   2.4915168  69.0939178
  21.4345455   2.2242920  68.9775848  22.8533764   1.7024295  68.9030151
  20.2219410   9.9788103  73.7033997  21.1155910   9.9267292  73.3644180
  20.2503777  10.6879091  74.3457413  17.1239452   5.0331898   3.7220204
  17.0951138   5.8853559   3.2870343  17.1922131   4.4011745   3.0063891
  70.4815826  64.1114044  32.8212852  71.1587219  63.5376282  32.4628143
  70.9338379  64.9373550  32.9930840  47.5454178  66.4231110   3.9229465
  47.0764618  66.2394409   4.7369361  47.4335785  65.6305313   3.3980248
  30.1549988  33.3887863  64.3788071  30.2036839  33.6193733  65.3065414
  31.0335407  33.5645447  64.0419006   6.1530724  20.9256306   8.9269991
   5.3307567  21.1932316   9.3373871   5.8844924  20.4252720   8.1564550
   2.7312694  47.1013336  60.1180496   3.6860456  47.0382576  60.1436501
   2.5547571  47.8156776  59.5058479  10.1496296  57.0073242  85.7199860
  11.1008883  57.1069679  85.6824417   9.8915071  56.8298798  84.8154907
  81.8356323  23.2244625  25.8757572  81.4768143  23.8505783  26.5046158
  81.1764450  23.1759243  25.1834011  26.6771717  35.3351250  87.2043686
  26.8232536  34.5556259  87.7403488  26.9177647  35.0649719  86.3181610
  55.4454117  54.1228714  17.1655788  55.6893921  53.6605530  17.9674301
  55.0681572  53.4457016  16.6040192  62.2197914   7.3444295  39.6877022
  63.1050377   7.7031374  39.7501564  62.1717453   6.9775705  38.8049011
  72.0840607  61.9598770  42.1758232  71.6559906  61.2770958  42.6923447
  71.4335403  62.2059975  41.5181885  78.9197006  32.7020340   0.6994824
  78.9482956  33.2589722   1.4774507  78.5640335  33.2669334   0.0134625
  68.5212326  62.6838074  19.0963955  68.0444717  63.4925842  18.9098263
  69.4431458  62.9202805  18.9944324  32.7942924  44.7108078  61.1430969
  33.2150154  44.3324013  60.3710632  33.3935699  44.5140266  61.8630829
  54.7610626   1.8722748  20.4477463  54.3661537   2.4647040  19.8079758
  55.6898689   2.1036837  20.4470615  84.8350754  66.2840195  25.5887699
  84.2231903  65.7271347  26.0701294  84.3011475  66.6943436  24.9084854
  29.1404743  48.1707115  50.5811539  28.3419876  48.5480232  50.9503250
  29.7937241  48.8655586  50.6629028  38.3201103  52.4153252  43.4097786
  37.6473770  52.6373749  44.0534859  38.0230446  52.8303452  42.5999985
  21.2958755  11.3463907  31.2933464  20.9669094  10.7238636  30.6449089
  20.5790653  11.9694881  31.4123592  34.1203918  35.6563644   9.9431744
  33.7723045  35.9822502  10.7731533  34.9991837  36.0317688   9.8881111
  85.7539062  29.8652744  69.6635590  85.9786453  30.1251736  70.5569687
  84.9573212  29.3432178  69.7592010  47.2540512   9.3628006  66.7602234
  47.7621536   8.9652376  67.4673309  47.9121971   9.7176628  66.1625977
  77.7291412  35.5642586   4.9232979  78.2246170  35.6029434   5.7413692
  77.5201492  36.4773903   4.7264547  32.7971077  40.8714142   5.6705451
  32.0688362  40.5575371   6.2065816  33.5042839  40.2487221   5.8390222
  24.1670341  49.9324150  78.0526199  23.4367027  50.2921677  78.5560379
  24.0734482  50.3217583  77.1832047  46.1328964  18.3037910  13.2998114
  45.4352150  17.6912689  13.0668077  46.3527451  18.7406654  12.4769888
  65.8791504  18.7438622  53.3251991  65.1996384  19.3903160  53.5164871
  66.0881348  18.3572674  54.1755562  81.3569717  41.8658142  23.4559975
  81.5760880  41.7343636  24.3784618  82.1677856  41.6691208  22.9868355
  18.2221451  59.5624847  52.3880768  17.9358120  59.9295044  51.5516891
  17.4103527  59.3215904  52.8343887  29.0740337   3.7552204  75.7982864
  29.5516548   3.8363388  74.9727402  29.4450417   2.9770029  76.2141724
  10.1117706  27.1634998  79.8365173  10.8936729  27.2341061  80.3841248
  10.2177534  27.8500614  79.1780090  84.9483643   6.1324759  81.2172394
  85.3872147   6.6182966  80.5189362  84.3818130   6.7785320  81.6389771
  75.1575394  52.2398796  54.2493172  75.8496933  51.5998459  54.0834351
  75.0967712  52.2850494  55.2035179  13.0465155  64.7876434  13.7507086
  13.1296158  65.1791840  12.8812132  13.0758944  63.8441010  13.5923004
  59.9263649  42.9128304  28.0929890  60.1878624  42.2673149  27.4363594
  60.7516937  43.2247849  28.4641380  72.5904922   3.8053138  62.2597351
  73.5392227   3.8221767  62.3856735  72.2383041   4.2450852  63.0335541
  52.0854034  52.8217697  30.6564941  52.8483734  52.7424431  31.2290459
  51.3944397  53.1632004  31.2241421  13.6715393   8.7654209  87.3479080
  14.5885658   8.8551149  87.0885849  13.6129608   7.8856850  87.7205505
  47.2693481  66.8600159  79.9711761  47.8732567  66.1211166  80.0457077
  46.5371399  66.5199814  79.4569016  50.3553619  45.5806961  11.6146231
  50.8870544  45.8965912  12.3452034  49.4769669  45.4831963  11.9822416
  49.6262550  22.4035511  86.2708664  49.1700859  22.6668739  85.4716110
  48.9665184  22.4816456  86.9599762  62.3688087  31.4972019   5.7515101
  63.2659607  31.7950249   5.9020085  62.4619827  30.5842228   5.4794416
  12.5982637  18.6857719  30.6647282  12.9491854  17.8254986  30.4344788
  11.6487484  18.5813160  30.6035576  27.0320511  69.0667343  25.9076900
  27.9601440  69.2619324  26.0372009  26.8520355  68.3469162  26.5124149
  18.0467758  45.8992538  60.2510033  18.5830383  46.0697479  61.0253334
  18.1433201  44.9598122  60.0949135  34.7710075  24.0659676   4.9386368
  35.5648537  23.7204113   5.3468432  34.2657318  23.2883835   4.7013850
  33.7619667  45.0105324  88.0534134  32.8105621  45.1156960  88.0546722
  34.0937386  45.8275261  88.4258041  45.5602722  22.3063965  72.5504150
  44.9531898  21.6213665  72.8304367  45.0365067  22.8741665  71.9851379
  21.1897888  43.3531494  57.7173576  21.9464111  42.7780838  57.8316193
  20.7163639  43.2938042  58.5471649  12.2981071  70.5292358  28.9650955
  12.8891001  69.7762833  28.9596424  12.2795267  70.8125153  29.8792267
  24.0555382   4.7798018  79.7841110  23.5958843   5.2784534  80.4596100
  23.4898682   4.0261154  79.6161652  70.1522064  41.2110748  39.6178589
  69.4588318  41.0981483  38.9676933  70.0701141  40.4484482  40.1904831
  86.6315536  15.7130680  54.4000854  86.7512054  14.8568306  54.8109055
  85.6979370  15.7506590  54.1922951  20.6088696  41.3491020  68.7730942
  21.1614952  41.6981506  68.0738068  19.7474079  41.2460938  68.3687363
  49.0454826  18.3287239  63.5368652  48.1044540  18.2237244  63.6771317
  49.1439705  18.3581905  62.5852013  54.2485504  54.3167305  67.0930557
  55.1997147  54.2385521  67.0195312  53.9295120  53.4157066  67.0419998
  42.1122971  38.5115776  58.4549370  42.9365807  38.9247780  58.1979179
  41.4763145  38.8256454  57.8121948  80.9059296   6.6382875  15.4214573
  81.5019989   6.1218343  14.8790503  80.2582016   6.9812427  14.8057747
  85.6318817  21.3364849  87.5578537  84.6889191  21.2647705  87.7058945
  85.9568100  21.8237705  88.3149567   8.6214924  39.1901550  74.8647003
   9.0298309  39.3665428  74.0171280   7.7051625  39.0085335  74.6559296
  29.7283287  71.0289383  44.3082008  30.4933987  70.5254898  44.0299225
  29.1087570  70.9432907  43.5836143  43.1375961  26.4807796  28.1809959
  42.5557022  27.0487003  27.6759243  43.2844048  25.7234917  27.6142559
  46.3219452  16.5632038  84.3151245  45.4795494  16.7228680  84.7406998
  46.7428246  17.4224510  84.2871552  32.2903252  27.0123138  12.8213434
  33.1884689  27.2723141  12.6164856  32.3045540  26.0557709  12.7888479
  31.3316879  10.6738987  23.4640980  32.2384186  10.8713179  23.2293663
  31.2089520   9.7621231  23.1998386  53.1772346   2.3287060  22.8501968
  53.9401169   2.2508743  22.2773247  53.5431137   2.5416591  23.7086926
  43.8310204   3.5579913  70.5906067  44.0245247   3.4882083  69.6557693
  42.8860703   3.4176631  70.6507263  80.0918121  26.8807068  10.8667450
  80.8950958  26.6076946  10.4235325  80.0676727  26.3532715  11.6651573
  83.5260849  43.9921417  51.2224007  83.5638123  43.3250237  51.9077911
  84.1536331  43.6945648  50.5637169  64.2250443  31.3245850  50.8088226
  63.3588295  31.3511925  50.4023781  64.0748672  30.9280205  51.6669731
  56.5241928  27.7817268  57.9580956  56.2049141  26.9148960  57.7072983
  56.7554207  27.6935120  58.8827515  46.1854134  20.4664745  85.4469452
  46.0602646  21.4141674  85.4964142  46.0341225  20.1579456  86.3403397
   4.2890706  49.1459160  30.7216301   3.6947203  49.2390366  31.4661484
   3.7333019  48.8289452  30.0096741   4.4043126  10.9668016  14.8928108
   4.1029959  10.1191740  14.5657520   5.2978840  11.0482531  14.5594530
  58.4607849  39.5129738   7.1804237  58.8621864  40.3795204   7.2452855
  58.3341675  39.2390633   8.0888138  59.1940536  56.6736870  84.7056885
  58.5134888  56.0172386  84.5569000  59.9866409  56.1634827  84.8722153
  75.6762466  39.1223106  82.4032288  76.1990204  39.8594551  82.0877075
  76.0898209  38.8715553  83.2292480  84.2172623   1.3084887  28.8725624
  83.6042633   0.8951824  28.2645760  84.0360718   2.2452223  28.7955379
  67.4179688  60.2639656  53.5938530  66.8785629  60.3231659  54.3823814
  66.9270935  60.7494774  52.9308662  39.8234215  16.7685070  18.9006176
  40.1131821  15.8734446  18.7241669  40.2049866  17.2877159  18.1927624
  25.5761929  58.0840607  63.5519371  24.8752899  58.7227211  63.4212685
  26.1992359  58.2648506  62.8481178  58.8216171  32.2417603  61.0929146
  58.5591888  33.1617165  61.0606422  58.9179993  31.9878464  60.1750565
  67.4385529   0.7373150  36.9375076  68.1112366   0.3838762  36.3554344
  67.5278473   1.6870110  36.8579140  23.0571728   7.3800054  24.0228157
  22.9439049   6.4893241  24.3546124  24.0048199   7.4856391  23.9389210
  10.8465881   6.3821387  83.2389145  10.0130806   6.5960889  82.8197250
  10.6119413   5.7801046  83.9451218  25.3378391  12.8067617  33.6240921
  24.5341301  12.3096561  33.7763062  25.6326733  13.0591927  34.4990654
  14.2034359  50.3299484  45.3294411  14.7852736  50.6846466  46.0016670
  13.3219709  50.5080490  45.6573639  76.9169846  53.4467850  48.9496040
  76.2903366  52.7480469  49.1375313  76.7531815  53.6757431  48.0347366
  54.9828606   9.8544741  34.7938080  54.1530304   9.6753168  35.2359772
  54.8932571  10.7509031  34.4703636  50.3048935   6.9941130  36.1614609
  49.4312592   6.6271472  36.0260773  50.8580093   6.2346001  36.3443184
  54.1653824  29.2473907   4.0878839  53.3633080  28.9877129   4.5411782
  54.3267174  30.1441116   4.3812957  72.3315659  11.7760639  80.7291870
  72.5218735  10.8930445  80.4125061  71.6463776  11.6524477  81.3860550
   4.9606366  27.1260490  10.9574347   4.1079254  26.6939583  11.0065546
   4.8904757  27.8639431  11.5630913  16.2501850   3.0430040  22.3261948
  17.1653748   3.3172085  22.2672768  15.7683420   3.8520372  22.4980221
  62.2503891  43.4485435  64.2026825  61.5832405  43.4542351  63.5163078
  63.0118103  43.8661194  63.8000679  80.7321091   7.7701864  58.6429787
  80.2880325   7.3499985  57.9064522  81.6263504   7.4304857  58.6088867
   3.8974578  48.8537216  52.5050430   4.5504098  48.5778770  51.8617744
   3.0628667  48.7931480  52.0402641  75.9872360  50.7801476   0.5822427
  76.7482300  51.3163261   0.8050129  75.7473831  50.3516159   1.4038665
  49.5396957  40.4914284  60.0770149  49.6048012  41.0209312  59.2822685
  49.8997688  39.6402473  59.8278770  83.6281815  22.0635414  48.2393227
  84.0906296  22.7404861  47.7452393  83.2788620  21.4750481  47.5700798
  65.6129303  67.2210922  57.6935005  65.8476410  66.6695709  58.4398041
  66.3143387  67.0760269  57.0585098  70.5911179  70.1470184  73.8998413
  69.8514328  70.1822052  74.5063553  71.3643875  70.1712799  74.4634933
  80.7205658  51.0871468  62.8188438  81.5462341  50.7329979  63.1491241
  80.1861267  51.2188301  63.6019554  48.8843575  32.0774612  67.1931000
  47.9789696  31.8849621  67.4369202  48.8474808  32.2503395  66.2523575
  46.5373917  17.6743889  25.4738636  45.7360191  17.9574871  25.9141846
  46.2468414  17.0041580  24.8553143  25.6047401  21.5895729  87.0937042
  25.4045830  22.5252934  87.0692749  26.5577412  21.5463696  87.0152588
   0.0359124  43.8821869  35.8212929   0.3013950  44.7839737  35.6409340
   0.1870686  43.7711906  36.7599449  28.8454800  61.2413673  36.5567436
  29.2547321  62.1066475  36.5512543  28.4115067  61.1870651  37.4081841
  22.1368122  58.2200623  25.5668468  21.7977142  57.4024200  25.9311314
  21.5440350  58.4240150  24.8434849  81.4388733   2.8332899  70.9245377
  80.7559967   2.9708648  71.5810242  81.6071548   3.7053649  70.5676041
  81.0870667  20.7588501  78.6625824  80.5890579  20.4256935  77.9161072
  81.1234055  21.7051392  78.5231323  43.9771690  51.2764664  28.4888897
  44.8357582  51.5519676  28.1677074  43.7343903  50.5426598  27.9242516
  51.3029709  56.9386826  24.4516144  50.4074936  56.9382629  24.1134548
  51.4229431  56.0604744  24.8129807  74.8998337   0.2421650   8.8653660
  74.8012924  -0.2820024   8.0705261  75.8430023   0.2554652   9.0281048
  53.2025070   8.4333735  38.7858849  52.5061531   7.8002005  38.9602928
  52.8643150   8.9699087  38.0689545  66.9759903  25.0896931  50.9055252
  66.7567062  25.8316174  50.3418770  67.1081390  25.4770947  51.7707939
  45.9159279  50.7939186  86.7740021  45.5492249  51.0013695  85.9145126
  46.1446571  51.6446114  87.1484833  23.7422276  38.9018936  14.7054005
  22.8106098  38.6841011  14.7351952  23.7639313  39.8585663  14.6823378
  75.2142258  29.0707817  54.9860611  75.7528763  28.8578529  55.7481270
  74.3133621  28.9823513  55.2972717   0.7644325  45.2381401  44.0368309
   1.4070452  45.6498833  44.6145401   1.1725724  44.4131889  43.7739525
  32.9622231   0.8512972  59.7582779  32.7054710   1.7154409  59.4364624
  33.0440788   0.3162959  58.9687805  56.0213013  44.4775352  56.8491592
  55.6213646  44.9425087  56.1142578  56.6094856  45.1193390  57.2471008
  77.8618393  71.7674408  83.2089996  78.4029388  71.0823441  83.6015472
  76.9670715  71.5404434  83.4621658  76.7575378  70.0201340   6.8943138
  77.4518051  69.9631119   7.5507951  77.0950470  70.6333542   6.2414136
  52.8086662  34.8705444  13.4668198  51.8645973  35.0103836  13.3932428
  53.0481682  34.4214401  12.6561556  84.5359573  57.6416016  82.9424286
  84.0562668  58.4434624  83.1501389  85.1380081  57.5254555  83.6774673
  50.5345917  67.5111008  15.4683771  51.1949577  68.1302490  15.7795172
  49.7691956  67.6812515  16.0174236  11.1280909  11.2264919  10.9411097
  11.1396685  11.9444895  11.5740204  12.0292883  11.1731100  10.6229506
  50.2643661  25.1312561  16.9208317  50.2819099  26.0861359  16.9850769
  51.1054726  24.9023132  16.5254154  69.1018066  69.3566208  83.0863190
  68.4691162  69.1567383  83.7762375  68.8883057  70.2500153  82.8170624
   9.8155432  31.7656136  64.7672195   9.5221844  31.2025661  65.4835663
   9.1107397  31.7182045  64.1212769  77.5365067  54.1384964  29.3299999
  77.9239273  53.3175583  29.0263653  76.8418655  54.3236885  28.6980114
  44.0277786  32.6536293   6.9767828  43.3564034  33.3358154   6.9870162
  43.5872955  31.8788204   7.3258896  32.7730064   1.7731109  31.0805130
  32.4293900   1.0208417  31.5624390  33.6867714   1.8382717  31.3580265
  21.4924049  36.1899948  80.5525436  20.5489292  36.2794724  80.4180984
  21.8248787  35.8721542  79.7130966  26.2257786  58.5023003  85.7306290
  26.7610245  57.8024368  85.3565521  25.3320122  58.2901688  85.4615326
  60.0290451  22.0002880  43.2947197  60.5203819  22.3089695  42.5334473
  59.2344284  22.5339470  43.2994003  79.4177170  69.0756912   1.7220745
  80.3661270  68.9854431   1.6292787  79.0890579  68.1767960   1.7079053
  27.4724770  62.7529602   7.1899328  27.1596222  62.2951317   7.9701562
  26.7004700  62.8246384   6.6285944  57.2754555  16.1487732  33.7331696
  57.7288971  16.8606148  34.1847267  57.8668785  15.4002380  33.8115692
   6.9584012  52.1700592  34.4239540   6.8843741  51.2223625  34.5363007
   6.8946767  52.5221939  35.3117485  68.0558243  47.6936569  28.5150337
  68.1976013  46.8748169  28.9900379  68.7748413  47.7322807  27.8843575
   8.4328203   8.2254105  61.6191521   8.0575857   7.7099967  62.3331413
   9.3049517   8.4671392  61.9308968   9.3920593  60.8779755  38.0508957
   9.0166435  61.7532349  37.9548912   9.6380539  60.6239891  37.1613960
  36.7770538  58.9171638  40.6690216  37.4490776  59.3821907  41.1673813
  37.0955505  58.9311333  39.7664719  35.9822426  40.1954536  35.1035843
  36.7579803  39.7807159  35.4810219  35.2453575  39.7290268  35.4981422
  67.5496979  42.5687675  47.5139580  66.7408829  42.5083237  47.0056381
  67.8109283  43.4866714  47.4401741  80.8578339  55.1954880  72.0494232
  79.9435272  55.1943626  72.3327332  81.1498795  54.2932014  72.1791306
  12.9265680  45.5986023  29.9605961  13.2004099  45.3194885  30.8342876
  12.4075489  44.8667488  29.6270657  58.9788818  23.0374928  39.6532211
  58.9327011  23.8618469  40.1375122  59.8045044  22.6416645  39.9323387
  73.2387924  33.9576073  28.3994617  72.8712006  34.3599205  27.6125374
  74.1851196  34.0648613  28.3035793  36.9595451  26.8826389   6.0258684
  36.2263451  27.0997295   5.4500880  36.5863800  26.2851982   6.6739755
  84.8535614  16.2150116  42.5093040  84.3216171  15.4849520  42.1926270
  84.4190216  16.4964256  43.3144226  53.2993507   2.7310169   9.1261406
  53.2349663   3.5895510   8.7078047  52.8202782   2.1433539   8.5418682
  71.5379410  38.6039810  65.7499084  71.3787842  39.0699615  64.9290771
  70.8621597  38.9290619  66.3447876  63.0129166  41.9329529  86.8288193
  63.8387756  41.7112656  87.2589874  63.0415878  41.4600449  85.9970932
  12.5732660  67.1229019  22.8534508  11.9440527  67.7992020  22.6025677
  12.3194265  66.8778229  23.7432461  63.3626518  60.3561020  13.4447212
  63.6524048  61.2665482  13.5027018  64.0765991  59.8521957  13.8353415
  31.6863403  68.0572968   6.1819448  32.5376091  67.6204681   6.2095280
  31.7733936  68.7077789   5.4851470  59.6921387  41.0781784  53.3058929
  59.7081909  41.8159218  52.6962128  58.8126717  40.7114334  53.2149887
  46.4405556  65.1113205  86.4313431  46.7655373  65.8652954  85.9392624
  45.7421608  64.7514343  85.8845749  59.0521774   6.5061355  44.5796547
  59.1345482   6.9935069  45.3993607  59.7868004   6.8091025  44.0460129
  60.3468971  17.6645927  30.5387955  60.3883591  18.6053467  30.7105427
  59.6253052  17.5661011  29.9176388  64.3258667  44.8969727   7.8207846
  63.6600418  45.3314018   8.3538675  65.1518326  45.0918732   8.2635355
  33.9847755  69.9908905   9.9334679  34.7582359  69.5594406  10.2965689
  33.4557228  69.2759933   9.5795631  48.9141808  26.0996895  84.5349503
  48.6725121  25.1754093  84.4755096  48.2227173  26.5591621  84.0585022
  65.1588058  29.3287964  80.5291824  65.6216583  29.0532112  79.7379456
  65.8423309  29.6921062  81.0922394  40.7655640  13.2152462  13.3562355
  40.3843918  13.1024475  12.4854784  41.4018707  12.5043039  13.4330807
   2.4185159  12.1109228   8.7416182   1.9072424  12.9148064   8.8343697
   2.8285251  11.9877205   9.5977402  37.5221367  52.0134544  51.7135849
  37.0137863  52.5460320  52.3252831  37.3075409  51.1102524  51.9468269
  82.0310974  63.6888275   5.2111106  81.5728989  63.2630348   4.4865489
  81.3420105  64.1419067   5.6970277  45.1103325  56.1301765  49.3925133
  45.0557861  55.6934128  50.2425079  44.1991806  56.2890968  49.1459808
  43.4101906  63.0289841  25.1932888  43.3723030  62.8106651  24.2620888
  44.2031212  63.5575562  25.2833023  24.1717224   6.6941972  65.3789825
  23.7853889   7.5453892  65.5850220  24.2060204   6.6719065  64.4226608
  51.5188408  16.6746902  23.8349648  52.1650696  16.0083809  24.0687542
  50.6809196  16.3026333  24.1100922  80.1726685  68.3285599  39.0074844
  80.4204102  69.2335052  38.8179436  79.8144073  68.0005417  38.1826897
  68.5619278  20.7647305  66.0914230  68.5784760  20.2869606  65.2621536
  69.4836197  20.9251022  66.2938843   6.8581347  22.5603886  87.5162811
   7.7829618  22.3146820  87.4927216   6.7700319  23.2271557  86.8351898
  84.4868469  70.8309021  33.7900162  84.2927551  71.7606354  33.6710777
  84.3396301  70.4432144  32.9273109  53.5049973  38.6989365  29.9217262
  53.3339462  38.2269440  29.1067448  52.6459045  39.0172310  30.1990032
  83.2642212  52.6086006   0.2137494  83.1483917  53.4906540  -0.1395197
  83.0515823  52.6930199   1.1432071  15.5816240  55.6127777  29.9379959
  14.7756929  55.3251534  29.5090656  15.9532204  54.8131523  30.3104820
  84.3730850  59.1923256  36.3355331  84.8489151  59.9110603  35.9193153
  84.2474442  59.4801521  37.2397423  25.5444870  21.9623470  70.1749420
  26.4880657  21.8022404  70.1589050  25.1551609  21.0916729  70.2560806
  60.7478142  67.9697266  23.7667141  60.9664040  67.9285049  22.8357182
  59.8528557  68.3086014  23.7878342  83.9418716  15.4775286  59.7452164
  83.7600632  15.0817041  60.5975685  83.1921921  15.2328072  59.2026939
  71.8679962   3.5489655   3.1130147  71.1418457   3.0103853   3.4274566
  72.4262314   2.9398334   2.6297348  38.0964432  60.5058632  50.0666542
  38.0871048  59.5537949  50.1651726  38.9051170  60.6892548  49.5884857
  35.7367363  53.4559860  53.5973625  36.0786514  53.4980850  54.4904213
  35.4185753  54.3413124  53.4207230   2.6617410  65.3472214  62.7030449
   1.9168061  65.0119095  63.2019157   2.2671857  65.8780518  62.0111084
  66.3683319  56.9903717  67.5914993  66.9747238  57.7213516  67.4724121
  66.0842285  56.7679787  66.7049026  41.6342964  68.5484695   2.8159668
  41.7395477  68.3121490   3.7375457  41.2729225  69.4346161   2.8357008
  23.8697262  62.0629120  53.0916023  23.5650959  61.1554794  53.0917435
  24.4542980  62.1194344  53.8474579  39.7544022  59.4106979  52.5812569
  39.6310425  58.4660110  52.4886169  40.6916847  59.5149117  52.7451897
   2.6004572  14.1051998   4.0442286   2.8582504  13.3160372   4.5206704
   2.2560916  14.6904917   4.7188230  39.8810310  38.7279282  17.9815235
  40.5915985  38.0874672  17.9478207  39.0894012  38.2016907  18.0939121
   0.1149305  43.1876564  28.5359802   0.6188026  42.6691322  29.1632595
   0.5653301  43.0578461  27.7014008  13.4907122  43.8105202  35.1033287
  13.0998411  44.3636246  35.7797356  13.8125429  43.0437431  35.5773659
  53.9507294  47.4576416  27.1795330  54.7872772  47.9171753  27.1071033
  54.1345901  46.5738564  26.8611774  71.8709641  60.0637054  56.0675583
  71.7228699  59.7028770  56.9416847  71.0539703  60.5137749  55.8526497
  37.1892967  48.8220062  36.7511368  37.8601074  48.9906731  37.4127960
  36.3603516  48.9367867  37.2157974  77.0001144  50.3735008  86.9803772
  76.6470642  50.5329933  87.8556747  77.9490280  50.3545074  87.1046600
  34.8822365   0.6962780  67.1147690  35.5184402   0.8789707  67.8062134
  34.1724930   1.3190737  67.2716827   2.1545951  67.8196335  31.5203438
   2.8448386  67.6347275  30.8834724   2.6079507  68.2450714  32.2481499
  79.2430496  16.5004597   5.0498548  78.9412460  15.7023773   4.6160202
  78.9646912  17.2086525   4.4691553  49.3744850  65.9225693  83.4831543
  49.1438217  66.7431641  83.0476608  50.0298119  66.1729889  84.1343536
  38.4420776  35.5778770  78.8090363  38.8937492  35.8782234  78.0203552
  38.3489876  34.6331100  78.6866302  72.4760818  61.0139122  16.3545361
  71.5376434  60.8772697  16.2245865  72.6006317  60.9367409  17.3004551
  41.2888908  41.4852524  41.5774117  40.3359413  41.4185104  41.6379547
  41.5997200  40.5873795  41.6933632  26.0308437  64.3442535  11.5929852
  25.8516273  65.1517334  12.0747328  26.3996143  64.6389694  10.7602882
  72.7952423  49.8482895  22.2666035  72.8524246  48.9693832  21.8917828
  72.3536301  50.3671265  21.5942822  20.1395969  17.3103237  12.2409782
  20.7638683  16.7125702  12.6523275  20.6193104  18.1338882  12.1523848
  30.4731731  58.9468689  61.1913567  30.5955925  58.8563576  60.2463417
  30.5385361  58.0532150  61.5280151  81.7614365  15.9995203  82.3797226
  80.8370438  16.1853199  82.5446777  81.7731705  15.0907755  82.0792618
  46.6653633  44.6553192  72.4324951  45.8646240  44.1343346  72.3723068
  47.3655891  44.0462189  72.1981659  67.8965912  66.7812576  61.4061661
  68.0065384  67.6948700  61.6696968  68.4095535  66.2846756  62.0437431
  47.2811089  63.6415367  19.4179173  46.9600983  64.3634262  19.9583378
  46.4921227  63.1616135  19.1661072  25.9459515  48.8088417  86.7366333
  25.1402187  48.5579491  86.2848816  26.5725174  48.9775047  86.0329285
  58.9198074  37.4804535  86.4733429  59.3356590  36.8672295  87.0793610
  58.4506264  36.9228249  85.8527374  35.3891640  60.7543373  60.2702599
  35.9123688  59.9536209  60.2336731  35.8731041  61.3814316  59.7328720
  17.3907986  34.7712555  65.4680786  16.7227993  34.6190567  64.7996140
  16.8974361  34.8628578  66.2832108  73.2247009  24.1510887  78.9919510
  73.0461731  24.3593025  79.9090195  72.4030228  23.7845974  78.6652069
  63.9064827   0.5266024  54.7018280  63.0087967   0.5070605  54.3701477
  64.1525726  -0.3950024  54.7812920  57.0526695  11.6134424  81.8810425
  56.9687042  11.0651293  81.1009598  56.1999588  11.5500526  82.3112717
  35.2470016  42.4209633  28.6347542  35.5834579  42.8041420  27.8246918
  35.4057541  41.4818420  28.5394821  54.6763115  27.9679813  20.2166672
  54.7187004  27.0165138  20.3122787  55.0400276  28.1378193  19.3477039
  61.1148224   9.6256733  89.0412064  61.3799362   8.7059202  89.0402374
  61.0555878   9.8588409  88.1147308   2.2254336  52.3380814  63.6805878
   2.6448052  52.5829086  62.8557129   2.7760501  51.6376839  64.0305786
  82.0633545  68.5221786   2.4511650  82.0645370  68.2503128   3.3689442
  82.7447128  67.9884338   2.0423832   8.8795099  30.9021854   7.8836198
   9.1254625  31.0350380   8.7990923   7.9257712  30.8227196   7.9009566
  52.4653244  11.5582628  52.4040871  53.0922661  11.2851601  51.7343216
  51.6413231  11.1472731  52.1426544  17.4870453  11.3181372  17.3612366
  17.0466709  11.5472612  16.5428200  17.9153805  12.1282806  17.6376934
   1.5700665   5.9014812  45.7954483   0.7712883   6.1558952  46.2574615
   1.8784704   6.7103662  45.3870049   1.1393064  68.4924850  76.8727798
   1.7390037  68.9620972  76.2930679   0.4794586  68.1227646  76.2861481
  69.9884186   3.4398391  47.2092400  69.4774094   2.6847544  46.9177742
  69.3549194   3.9982009  47.6599579  19.4944096  44.3250008  72.9936676
  20.1662846  43.6797256  72.7735901  19.2951164  44.7562141  72.1626587
  67.8885269  60.5444107  21.5654182  68.8029099  60.4088516  21.3169098
  67.4862976  60.9400215  20.7921562  25.9357338  69.1603928  77.0189209
  26.0111580  70.0798035  77.2743378  26.8264713  68.8176575  77.0920410
  47.2082291  22.7095490  62.2182083  46.6453819  21.9378891  62.1551514
  47.4952660  22.7226753  63.1312637  12.6120090   1.5317031  79.3359909
  12.7906427   1.5261917  78.3956223  12.3424206   2.4308505  79.5233078
  69.3384933  33.2080994  22.1702976  69.3256073  32.3929405  22.6718769
  70.2680054  33.4153023  22.0738468  72.9581375  44.9428787  49.5008621
  73.6950073  44.7672272  48.9157104  73.3652115  45.2040443  50.3268852
  60.5000992   2.5295978  78.5898743  59.6409988   2.3935761  78.9894791
  60.6226921   3.4788263  78.6028290  82.5267868  15.3853254  72.9951553
  83.4120560  15.0495358  72.8545380  82.6334839  16.0750217  73.6502609
   8.6905317  29.6974716  73.2088242   7.8244929  29.4445229  72.8890915
   8.5323105  30.0276356  74.0932388  65.8375092  62.1798973  39.5085220
  65.6301041  61.3449020  39.9280434  64.9846725  62.5682640  39.3133926
  42.5365181  45.9506187   6.5589504  42.2436752  46.7017899   6.0429893
  43.0907288  45.4501457   5.9601102  63.1194229  25.0459080  80.4859314
  63.2648811  24.5911827  81.3155670  63.3323936  25.9601059  80.6733246
  83.1943436  38.5750961  55.9973068  83.7907944  37.8402901  55.8539963
  83.6104965  39.0900803  56.6885605  64.9275970  17.4359970  82.8165588
  64.2848969  17.2763977  82.1254044  65.7729187  17.4098110  82.3682480
  74.4935532  50.6117973  64.9609146  74.8517990  50.2792778  65.7839127
  73.5622177  50.7412605  65.1400604  53.6405907   1.5681444  50.0850601
  53.9020386   0.7778276  49.6125412  52.9650917   1.9640001  49.5343971
  37.8889732  53.7373848  86.3688049  38.0689011  54.0309830  85.4756851
  38.2829971  52.8664703  86.4185791  52.0431709  67.2839279  40.6761322
  52.2598038  67.1947556  41.6042213  52.8164749  67.6932373  40.2879333
  56.5772247  43.5602989  70.7274857  56.4027824  44.2138824  71.4047089
  56.9581680  44.0596504  70.0051498  83.2455826  18.2318478  50.4765549
  82.5746002  18.6614857  49.9460640  83.1677246  17.3037682  50.2555656
  60.8797073  12.3855600  49.4742050  61.3696823  13.1439447  49.1563835
  61.4392548  12.0056009  50.1515312  50.2661896  44.1242485  74.0984802
  50.4880905  43.2772560  74.4852600  49.5179787  44.4323997  74.6098022
  71.4986572  41.3289795  18.3578644  72.2727356  40.8649750  18.0389042
  70.7608337  40.7966652  18.0604019  70.7049484  13.4994764  64.6671143
  70.9460907  14.1148987  65.3594513  70.0650330  12.9171209  65.0765152
  81.6192093   4.2042370  66.2124023  82.1811295   4.2077994  65.4375076
  81.7215576   5.0793428  66.5865021  83.3751068  47.0327721  86.5638733
  83.4256363  47.0903473  85.6097412  82.8274307  46.2652626  86.7288361
  30.4219551   8.8050213  18.3361053  30.3598042   7.9364047  17.9387722
  29.7774410   9.3314371  17.8631153  78.9387360  25.8911877  77.1606674
  78.1616669  26.1247272  77.6684723  78.8742599  24.9429970  77.0466080
  82.6349106  63.6382980  57.3084946  82.5801315  62.6832123  57.2761459
  83.3412247  63.8168030  57.9293671  58.4753418  49.8508606  15.5972261
  58.2659950  49.5549583  16.4831429  59.0571442  50.5999451  15.7261257
  32.0171890  24.2757950   6.2226706  32.0025406  23.5945301   6.8949022
  32.9107437  24.2550678   5.8800917   3.1608374  24.1929188  27.6938286
   3.3431804  24.6226254  26.8581638   3.6956856  24.6685028  28.3294296
   4.2302408  16.0739212   7.8986402   3.4566956  15.5108042   7.8711095
   4.2603598  16.4819813   7.0333014  55.2944679  69.0005264  76.9930267
  55.2945366  68.4688263  76.1970825  55.2687874  68.3632355  77.7067719
  27.6640034  44.0149765  29.6902580  26.9993038  43.7606468  30.3303547
  27.3354797  43.6776199  28.8568974   4.8179059  26.8322506  61.9586678
   4.4672394  26.2163086  61.3153305   5.3058805  26.2844563  62.5735130
  49.5858154  29.3923416  39.0352821  49.2148857  30.2270584  39.3214493
  50.2038116  29.6293678  38.3438110  75.3430099  21.0534668  41.4425087
  76.1304626  21.3077946  40.9613953  74.9235916  20.3974514  40.8857651
  26.6948471  33.8875961  66.3601990  27.4129028  34.3752289  66.7637329
  26.7953873  32.9952126  66.6915283  22.5630016  39.8283195  72.3975220
  23.0220242  38.9900284  72.3446350  21.9305954  39.7107964  73.1063843
  41.5505257  36.7286720   4.3129277  42.4517326  36.4340019   4.1816578
  41.0223541  36.1230087   3.7928905  84.2812042  59.2190132  32.9077988
  84.9095459  59.6494026  33.4876137  84.7771912  59.0377388  32.1094475
  63.1911430  44.7223358  56.3849564  64.0104904  45.0214348  55.9906921
  63.3006020  43.7757683  56.4758301  32.7436333  13.2146597  73.3882599
  32.6051941  12.5239201  74.0362930  33.5677605  13.6259069  73.6488876
  41.9042206  39.1296616  42.8208008  41.9713745  38.4159279  42.1865273
  42.3069801  38.7817497  43.6163979  85.6015701   2.6237519  64.3320999
  86.1618652   3.3363044  64.0245743  84.7100296   2.9476674  64.2038040
  58.7207680  48.2955551  22.3280277  58.9951973  47.6938171  23.0200043
  58.3042908  47.7343979  21.6739025   4.9999580  61.8579445  50.3875809
   5.6423693  61.1786003  50.1825676   4.8267269  61.7494049  51.3226967
  49.0207176  71.5103760  38.6856613  48.8706436  70.6092377  38.3998909
  49.1325531  71.4453964  39.6340828  30.2845440   6.3563485  16.8899879
  30.7307835   5.7247801  16.3258762  29.8118839   6.9267945  16.2838402
  68.9743652  47.8097534  24.9533615  69.1781464  48.7440872  24.9948387
  69.5696945  47.4064903  25.5851822  81.4899750   5.0382857  60.0804214
  82.3768082   4.7497034  60.2960205  81.0487976   5.1093502  60.9269104
  41.2319145  47.0564232  76.9033051  41.7454910  47.8146553  76.6248169
  40.3771973  47.1815376  76.4909515  77.1025467  68.0408478  30.4918900
  76.1844864  68.1058655  30.7548962  77.5358505  68.7574310  30.9555607
  30.4804592   2.6266761  25.7696991  30.5256481   3.1987488  25.0035915
  29.5451679   2.4642556  25.8925018  15.2919445  42.9651756  80.7604980
  15.1820745  42.2267113  81.3595200  15.3381577  42.5645676  79.8923874
  48.9865952  21.7597351  37.3860130  48.6554337  20.8722553  37.2483749
  48.8566551  21.9216290  38.3204308  15.6233473  58.9856796  75.8944244
  16.0772362  58.9471054  76.7362900  16.3083439  58.8250237  75.2454300
  65.1481705  44.5768509  35.5161095  64.8317413  44.9445267  36.3412857
  65.5845642  45.3084717  35.0796280  74.0679855   5.6328788  17.3281345
  74.2685471   4.7334290  17.5869732  73.2221680   5.5714216  16.8842335
  61.1228485  52.6192932   7.6297984  60.8085976  52.2343330   6.8116999
  62.0764313  52.5597992   7.5717387  85.8895798  67.5229034  75.3045197
  85.5764923  66.6183853  75.2968826  85.4843826  67.9231110  74.5351791
  76.6204834  11.7738810  59.4958267  75.8536987  11.8707657  58.9311371
  76.2576904  11.6116991  60.3666344  20.5864220  42.2380104  53.8925934
  20.6265907  43.1176376  54.2679214  21.3828926  41.8080864  54.2040939
   5.0044088  51.4751778  52.7036438   4.4819331  50.6776314  52.7883072
   5.8475966  51.2521248  53.0979958  74.4229202  29.4706345  73.7572174
  74.3327026  28.6773338  73.2292328  73.8215408  29.3400612  74.4903793
  58.8078384   7.7148509  59.6980171  59.0096626   7.4023376  58.8160667
  58.5586929   8.6310101  59.5763168  49.3978729  51.1714554  79.7373734
  50.1583900  50.8753662  79.2371979  49.5710335  50.8789406  80.6321793
  56.1453056  47.3326302   4.1132598  55.5665741  46.7730141   4.6310716
  56.6367073  46.7238388   3.5617831  44.7976646  58.6859970  53.5728836
  45.3793182  59.4223785  53.3840675  44.5932350  58.7748260  54.5037689
  32.5691185  44.0483665  67.9624100  32.5345612  43.8632088  67.0239258
  33.3792953  43.6335640  68.2587051  18.8224068  30.7142315  54.7397881
  18.2047367  30.5756245  55.4577713  18.4272823  30.2634430  53.9935303
  42.7117653  43.5857773  23.4377632  43.3247986  44.1588783  23.8981724
  43.1913033  43.2963867  22.6615353  59.3973465  53.1153183  89.1021271
  58.5210075  53.0598831  88.7210922  59.9878845  52.9243240  88.3734207
  85.6190567  26.3554764  67.4376602  86.2486572  27.0752907  67.4789505
  85.0853271  26.4586182  68.2255249  80.6274338  59.5453415  87.9036484
  80.6371765  60.5023422  87.8868790  81.3061752  59.3099556  88.5362167
  40.1921921  39.2656174   3.5415030  40.7074699  38.4791374   3.3621457
  40.5378418  39.9216232   2.9361808  79.3374481  36.4673729  55.9176941
  79.2964935  35.5111237  55.9296112  78.6740570  36.7434158  56.5501099
  43.6097908  30.9207077  75.9108582  43.3626823  30.5288105  75.0732498
  43.0538101  30.4811783  76.5542297  81.2708588  66.6728516  31.9826908
  80.7950287  67.4867401  32.1481972  80.7339935  65.9941101  32.3917465
  25.0265903  49.5872269  36.3015594  24.2651043  49.0153198  36.3979492
  25.2404041  49.8540878  37.1955986  69.1688004  41.3610649   8.5362616
  69.5098801  41.2517281   7.6486015  69.4634552  40.5796432   9.0040092
  47.5321007  19.0492439  45.1570053  46.7372017  19.5404148  45.3646584
  47.8732796  18.7747765  46.0081787  83.1123962  16.6089077  85.8645935
  82.1996460  16.3860207  85.6816940  83.4712906  16.8649616  85.0149689
   1.0008231  18.1147976  60.4315948   0.6081186  17.2433338  60.3809433
   0.8055066  18.5151310  59.5843544  66.0241776  22.4794846  83.8720551
  65.8135147  23.4121475  83.9166489  66.5873108  22.3976727  83.1023712
  48.5558395  38.3740158  17.3510246  48.1665611  37.7916908  18.0034008
  49.0719643  38.9965057  17.8632278  67.8747177  54.5744934  39.7422905
  67.2703629  53.9109154  39.4096489  67.7840805  55.3076553  39.1336098
  85.4560547  17.3939133  23.6576862  85.6146088  18.2499523  24.0555458
  85.9273071  16.7780304  24.2187939  54.5165024  64.9490280  34.3254509
  54.9459381  64.2423706  34.8075867  53.8144150  65.2428513  34.9059448
  29.7452354  49.2020111  47.4333344  29.7815228  49.8637161  48.1240349
  29.9084263  48.3743896  47.8857117  71.6488419  50.5541801   1.5365757
  71.6990051  51.5005417   1.4019878  72.2334290  50.1866608   0.8736902
  36.1458397  23.7088871  19.2072220  35.7602196  22.9400043  18.7872849
  36.7256088  24.0796547  18.5419159  49.7798805  70.2505417  82.0529175
  49.1297264  69.5526733  82.1335907  49.2750168  71.0592728  82.1383133
  68.4077759  70.2774429  38.8278809  69.0053864  71.0236969  38.7809753
  67.7413788  70.4622879  38.1660767  58.0769615  38.3974724  16.9544010
  57.6584816  38.9795799  16.3201637  58.5317879  37.7472878  16.4190292
  29.3062706  65.3619614  79.4677811  29.8987427  66.1119614  79.4157486
  29.6064320  64.7712402  78.7769928   7.4908433  65.2179947  47.6388206
   7.7507954  64.8343506  46.8012810   6.5394430  65.3038101  47.5779533
  74.9628143  67.0658646  41.2060585  75.1967850  66.4045258  40.5548134
  75.4176254  67.8572617  40.9178276  19.8966064  20.8267879   1.2361001
  20.7424603  20.6323738   1.6397889  19.3022346  20.1688251   1.5967121
  37.0625534  71.4849167   0.9209068  36.8951569  70.6278458   0.5289455
  37.9890938  71.6509171   0.7471274  61.8056717   5.3378534  58.2124023
  62.6905708   5.4147081  58.5691643  61.8217812   4.5266247  57.7045860
  50.1071663  58.7068443  42.3564186  49.7213707  59.5755081  42.4696121
  49.7999115  58.2078400  43.1132660  51.4848518  23.2834415  26.6759262
  50.7144165  22.7155266  26.6874504  51.1588516  24.1227951  26.3512115
  54.1104393   4.0001988  33.0345955  54.3045464   3.2314038  33.5707932
  54.9692383   4.3377681  32.7801399   2.3696756   8.7565117  73.6417923
   1.6456327   8.7155218  74.2665405   3.0750794   8.2627678  74.0599442
  74.8430405  63.2575417  19.8507538  75.3128128  63.8325539  20.4548283
  75.4571686  62.5455780  19.6713486  23.8727875  26.2910595  79.7256241
  24.1191235  27.0656509  80.2311478  23.1733246  25.8839493  80.2367401
  76.9999695  18.9129162  18.8168697  77.4409561  18.9411755  19.6659660
  77.5162888  19.4949856  18.2593365  69.8588486  37.7358894  61.9583969
  69.0923462  37.3477440  61.5364380  70.3004074  36.9978256  62.3785362
  33.2522850  23.6126919  86.7907562  32.9524384  23.1352425  86.0172119
  33.0390091  23.0369987  87.5251389  42.8152504  51.1574974  42.9727669
  43.3041306  50.7670517  43.6971855  43.3689880  51.8774338  42.6706238
  46.5871353  39.7346191  86.5507965  45.7894287  40.1891785  86.2801132
  46.6108475  38.9476776  86.0063782   4.9541039  35.0335159  14.2316456
   4.5619626  34.4342918  14.8667746   5.8733425  34.7699585  14.1895761
  82.9109192   7.2231188  70.3974838  82.7282715   7.9694805  69.8266754
  83.2103195   7.6161904  71.2172928   6.1473665  68.1282578  47.7097778
   5.2038164  68.1144028  47.8702507   6.2600393  67.6295471  46.9005623
  41.7187881  45.9439392  28.4153862  41.1990852  45.8309479  27.6195393
  42.6180382  46.0418205  28.1023350  35.5747948  12.6609440  71.3699646
  35.1806068  13.0920172  72.1282654  34.9234581  12.7559938  70.6750107
  65.5010147   9.1824408  87.6003952  64.6201172   8.8383169  87.4526443
  66.0140457   8.8520365  86.8629150  31.4912663   4.9426966   6.8949776
  31.6525078   4.6792164   5.9889908  30.5399971   5.0320268   6.9527483
   2.9364285  45.4188881  82.2750320   3.5943131  44.7517509  82.4708557
   3.4121912  46.2476921  82.3295135  37.6893997  68.8966141   3.9183006
  38.0753098  68.1166534   4.3169942  37.5337448  69.4893875   4.6535740
  13.4436121   4.7192574  19.8018074  13.0204639   5.4821782  19.4079437
  13.6505766   4.9946036  20.6948833  86.6709290  61.7258224  29.6598511
  87.1728516  61.5466614  28.8647366  85.9837112  61.0595284  29.6645088
  15.3241682   7.8990841   9.6413250  14.4010077   8.0887623   9.4739075
  15.6764641   7.6506791   8.7866821  21.1406155  47.5458145  30.7264080
  21.2378178  46.6015663  30.8496075  21.9514084  47.9174156  31.0739136
  71.7404022  15.7426691  66.2380753  71.2539139  16.3635159  66.7803879
  72.0289764  15.0652666  66.8497009  67.1883774  29.2106991  21.4277935
  66.6208115  28.7510796  22.0465431  67.0278702  28.7784557  20.5889645
  21.0276947  60.8832092  42.7473106  21.6577549  61.2444267  42.1237907
  21.4990749  60.1702766  43.1783066  33.9625359   2.4813120  57.3878860
  33.5834427   3.0009029  58.0967903  33.7202492   2.9516420  56.5901909
  39.7582512   2.2073007   8.8105307  39.2397766   1.6771166   8.2052879
  40.3078690   2.7488718   8.2440901  11.8146057   7.2657437   3.2453640
  12.5029545   6.8094535   3.7293136  11.9439487   8.1898098   3.4589169
  18.7027073  45.4624939   6.2235336  19.0574207  46.3507843   6.2602410
  18.3140678  45.3956337   5.3513398  45.8204155  54.1370850  80.5122299
  46.4251480  53.7248383  81.1291428  45.9459267  55.0766258  80.6454086
  68.8600388  19.9061909  61.2195282  68.8709106  20.7919502  60.8568382
  69.7147827  19.5423603  60.9887161  21.7218018  42.1527634  82.6760941
  20.8093929  41.9451408  82.8776703  21.9720573  42.7986336  83.3367386
  81.2691574  29.1163254  67.9975281  81.1545029  28.7638683  68.8800583
  80.4947739  29.6604729  67.8544617  12.7010756  26.2341080  66.4232864
  12.8716774  27.1753712  66.3893890  12.3858614  26.0160885  65.5461655
  63.1530838  57.2566414  87.3451385  63.6652756  57.9791222  87.7083359
  62.2662964  57.6080551  87.2654419  20.0228176   0.1446284  82.8200989
  20.7999325   0.2541976  83.3681183  20.0656910   0.8691975  82.1960907
  79.0443420  37.8944511  82.8626251  79.4384460  38.7036705  83.1883163
  78.2442398  37.7932892  83.3782196  39.6401100  55.3554611  77.1604462
  39.8690910  54.4363441  77.0225067  40.4405518  55.7528419  77.5033951
  24.8902531  55.7583046  52.1210098  24.2519913  56.1854668  51.5497093
  24.6585331  54.8301888  52.0872307  37.0217667  19.8376694  17.3486042
  37.3873863  20.4511471  16.7112675  36.3701210  20.3498096  17.8274593
  67.5610199  10.4841642  36.6627007  68.0118332  11.3267746  36.6079178
  67.9745712   9.9468889  35.9870224  84.2310028  22.2332821  24.7570019
  83.5848160  22.7800846  25.2038593  85.0581512  22.4334011  25.1951885
  29.7030869  56.2343750  51.8317261  29.0691872  56.9513130  51.8116989
  29.1688690  55.4446106  51.9160767  82.1553802  62.8508530  13.0334158
  82.1696396  61.9097061  13.2074013  82.7737350  63.2203522  13.6637621
  30.7403717  59.0334129  58.2109718  30.3725471  59.4451904  57.4290619
  31.5836315  59.4685555  58.3366508  83.5608215  68.7695007  18.8433762
  83.6349335  68.0079193  18.2682896  83.2043304  69.4588928  18.2831249
  52.0896149  59.3938904  71.4107285  51.2642212  58.9473572  71.2221222
  52.7624512  58.8148918  71.0525589  30.9007988  15.7049046  84.0687103
  30.2409458  15.1695595  84.5094299  31.7271252  15.4550686  84.4822235
  84.7070312  57.7570724  12.2783670  84.4781036  57.0674477  12.9014597
  85.3022995  57.3332710  11.6600800  25.7619762   0.6692547  17.1316357
  25.0259953   1.1337134  17.5301857  25.4548321  -0.2327219  17.0403519
  55.9815674  34.1187973  16.9351330  55.6954460  34.9598656  16.5788097
  55.7460899  33.4807510  16.2615719  26.2586060  11.8036203  13.8691692
  25.9246445  12.3303032  14.5953283  26.1684113  10.8988199  14.1682224
  77.8105240  20.6205711  59.1590881  77.7570114  20.0385056  59.9170914
  77.8011780  21.5018082  59.5326729  68.9298401  58.2772141  23.1602211
  68.4823151  57.6063385  22.6445866  68.7115250  59.1004143  22.7232819
  50.8603020  26.9670658  63.3508835  49.9171410  26.8100471  63.3058739
  50.9707260  27.5481148  64.1034927  85.3646698  32.2152596  30.6989498
  85.8122025  31.5287838  30.2042770  85.0366745  31.7717113  31.4811993
  25.3069363  38.1555824   4.5561295  25.2047367  39.1049728   4.6228046
  26.0746613  38.0360069   3.9970839  59.2771225  66.1983643  28.2700272
  59.6912537  66.7253036  27.5866032  59.0728760  65.3674088  27.8410358
  16.7395039  39.2580376  33.8996582  16.3133316  39.5794334  33.1051025
  16.0174809  39.0686455  34.4988594  75.0454178   4.3183846  37.5649376
  75.4683456   4.5227447  38.3989639  75.1046524   5.1301050  37.0611191
  22.4938259   2.6713822  51.1912270  22.0209198   2.0409138  51.7344589
  23.0126991   3.1816068  51.8130608  24.2462540  44.4918785  73.3537827
  24.7890701  44.7055550  74.1126785  24.8063354  44.6751060  72.5994873
  62.3478851  11.3660088  51.4081001  62.5048599  10.6652908  52.0410156
  62.8773804  12.0978422  51.7247772   6.7557688  39.3070793  53.5046120
   6.2930179  39.0351906  52.7120399   7.5442009  39.7446327  53.1834373
   2.2798746   5.3675737  72.8473206   2.2499046   5.4157896  71.8918076
   2.7914400   6.1328344  73.1098251  68.5956955  25.6678638  65.1136856
  67.8496094  26.0272808  64.6336746  68.2949677  24.8113956  65.4174271
  72.0090027  33.5635033  21.4000130  72.5368423  34.3466682  21.2442188
  72.6298599  32.9204254  21.7423878  11.8912735  67.1945190  26.3865280
  11.5148201  67.8131409  27.0124874  12.8247576  67.4058304  26.3728371
  58.6649246   1.3347353  75.9247589  58.0052490   0.9025341  76.4672165
  59.5014000   1.0581304  76.2989655  35.0842323  12.3143950  20.5583000
  34.5075951  12.9390688  20.9981918  35.1387749  12.6323538  19.6571007
  63.1378326  22.7804375   3.7123041  63.0892258  23.4331989   4.4107113
  63.9647980  22.3242321   3.8679833  31.0292606  50.1306496  50.4488907
  31.3888397  50.6248436  49.7122002  31.5911522  49.3586807  50.5164909
   5.6054039  32.3810425  44.7523117   6.5599322  32.3136101  44.7286339
   5.3159976  31.9703636  43.9375610  65.9124374  49.0956879  68.2190933
  65.1950226  49.6613541  68.5046921  66.4216232  49.6395912  67.6181488
  66.9097672   2.9291980  63.2065887  66.9846649   3.8358274  62.9088554
  66.1381912   2.5908611  62.7522469  24.7144203  56.6578064  80.0654678
  25.6156921  56.7405586  79.7538681  24.3322926  57.5242805  79.9260712
  28.7200413   5.7367353  12.7914848  29.4203644   5.0878320  12.7228956
  28.0490227   5.3095698  13.3239288  29.4727688   5.2911696   4.4717984
  28.7241917   5.8872180   4.4961004  29.7695179   5.3163133   3.5621068
  10.7178402   8.6804991   0.5623657  11.5844460   9.0859146   0.5917606
  10.8892469   7.7425199   0.6463082  60.6419907   8.5675182  72.1063461
  60.1845436   9.1928453  72.6684265  61.4671364   9.0007582  71.8880157
  83.9500885  20.7793083  34.5446472  83.2881393  21.4690666  34.4968147
  84.3870773  20.9244938  35.3838120   0.3325661  24.2360039  52.8191147
   0.7389364  25.0225182  53.1831055  -0.4482937  24.0996475  53.3556747
  35.3062477  12.7313852   1.4689561  36.1164169  12.8043261   1.9734687
  34.6366653  12.5217962   2.1200836  39.8250999  46.7253418   4.3633237
  40.4450455  47.4138832   4.1228833  40.3612251  45.9359512   4.4385977
  47.6172714  35.2652588  84.7097473  47.9904556  34.6565666  85.3472900
  48.1929016  36.0293236  84.7426910  79.6613312  28.7111225   2.3708446
  80.0568619  28.1025543   1.7468014  78.9753113  29.1540699   1.8714427
  47.2752190  26.8095951   7.8367133  47.8227463  27.4503784   8.2904148
  47.5477219  25.9650097   8.1953907  31.4244022   3.7309504  45.4373398
  31.8690128   3.9146328  44.6098061  32.0896835   3.3038988  45.9770279
  35.1743355  61.2084465  46.1548576  35.9184341  60.6155128  46.2596321
  35.3915367  61.7312965  45.3830528  34.5971146  61.4053650  18.2998066
  34.9930534  62.1030884  18.8219643  34.0435333  61.8639374  17.6677532
  31.9177341  68.2107773  40.7383308  32.6494141  68.8137665  40.6068726
  32.3321686  67.3675156  40.9210396  86.5600662  51.1852608  10.4644604
  85.8122406  51.7771416  10.3827658  87.2899094  51.6662064  10.0742750
  84.6199646  40.8790817  57.4919357  85.2531433  40.1613503  57.5050964
  85.1511002  41.6689301  57.5932808  73.4631195   3.0453675  69.0626144
  72.9467850   3.7186296  68.6195068  73.8162079   2.5086353  68.3530502
   3.1639924   7.3757706  21.8181458   3.7507820   7.1138744  22.5275955
   2.4366143   6.7555265  21.8676453  58.5317421   0.2587699  17.2655525
  58.4390793   0.7287830  18.0942459  57.8205109   0.5936441  16.7194386
   6.7294002   1.8343515  85.4829712   5.9439874   1.5553243  85.0123291
   6.4588013   1.8701934  86.4004288  59.3825645  46.4825401  12.8274212
  60.1203766  46.4273796  13.4347267  59.7882538  46.5439148  11.9626198
  17.8363476  63.0961723  81.5109863  17.8413944  62.4856148  80.7738113
  16.9088993  63.2704582  81.6712799  25.9596386  51.4199257  85.2106552
  25.8825092  51.8545341  84.3612976  25.5813637  52.0412292  85.8328400
  62.1740685  36.1396790  83.7355347  61.9923058  36.2764664  84.6653061
  63.1053085  36.3401451  83.6415176  19.8975258  40.2574959  57.4458237
  19.0821342  39.8143921  57.6804123  20.0370846  40.0312538  56.5262756
   4.2232127  36.2190514  11.8256769   3.5956533  36.7454376  12.3209724
   4.4229503  35.4804535  12.4008369  48.9154892  23.8889790  34.8142204
  48.2089577  24.4741364  35.0874214  48.9795303  24.0164204  33.8677063
  78.0444641   1.7960078  54.1335144  78.3569717   2.6948152  54.0299988
  78.4834976   1.3080494  53.4368210  24.6017189  37.0339584  86.3829346
  25.2373333  36.4043465  86.7232513  25.0474548  37.8790970  86.4403305
   2.3351095  67.3350983   2.0058105   2.6751852  66.7757263   1.3074661
   2.6571698  68.2102585   1.7899368  35.7752571   0.3556748  37.0731201
  36.3745575   0.7021707  37.7341881  35.2876968   1.1205651  36.7674065
  30.2745304  58.7216759  26.6954536  29.3871536  58.8116074  26.3480282
  30.7629490  59.4402847  26.2938576  55.3903503  22.6063328  80.4411621
  55.0619202  23.1848278  81.1294327  56.3429794  22.6592674  80.5181503
  35.4739990  54.1172600  40.1286392  35.9808006  54.3737907  40.8990784
  34.5866508  54.4258232  40.3120346  18.2889099  36.9615898  36.1960678
  17.4927959  37.4707336  36.3484077  18.1119251  36.1130562  36.6021461
  30.3120708  67.9708481  12.4946928  29.4424572  67.9532318  12.8943071
  30.8611336  67.4647064  13.0935125  64.9999161  51.2149239   5.3265543
  64.2045364  50.6862602   5.2623835  65.3984146  51.1544342   4.4583521
  12.9723129  59.2299881  46.5322189  13.1168251  59.8035431  45.7796364
  13.8291683  59.1683235  46.9543915  63.6261406  70.1192932  67.7128448
  63.6805992  71.0747910  67.7298965  63.5258369  69.9016113  66.7861328
  73.8125076   4.9575858  58.1238861  74.7448654   4.8979783  57.9155960
  73.4590073   5.5603290  57.4696922  84.5904617  60.3048820  22.5666351
  84.9461517  59.6030579  23.1117535  84.5206909  59.9182320  21.6937847
  75.5493317  55.3483696  83.0597153  74.7248688  55.8260765  82.9686356
  75.9872971  55.7657471  83.8014832  23.0205860  13.2895956  82.1094742
  22.7237091  12.4031239  82.3150482  23.9468403  13.2939949  82.3508530
  84.4942703  10.7687330  10.8566637  84.2007065  10.0620289  11.4316597
  83.7275085  11.3336248  10.7607574  66.7284393  36.3685150  76.5533905
  66.8703461  36.2483139  77.4923477  67.1850586  37.1834450  76.3445358
  77.0002441  21.7835655  56.5331345  77.4701157  21.2861729  57.2024994
  76.2936554  22.2188587  57.0100899  78.0058746  67.8408127   4.5427155
  78.1764755  67.4267044   3.6967599  77.3038559  68.4669571   4.3656445
  44.5615005   3.8179929  46.7073784  43.6690636   3.9366279  46.3822479
  45.0433884   3.4631407  45.9603195  20.8114166  71.4134369  51.9573555
  20.9686413  70.8232269  52.6943512  21.3318882  71.0475159  51.2422028
  35.1098671  45.9711342  53.0141068  35.0686111  46.1252251  52.0702934
  35.8360710  45.3575020  53.1250839  17.8408718   7.1856952  67.2366867
  16.9895306   7.2034397  67.6738739  18.4751797   7.1171880  67.9502640
  44.6195374  52.7993317  53.9428520  43.8293762  52.6870651  54.4713135
  44.8378334  51.9153519  53.6476288  59.8894539  26.1307125  65.9618454
  59.2520523  26.7301159  65.5736847  59.8620033  26.3256474  66.8985825
  50.3022614   6.6332932  26.9718094  49.7455330   7.3552866  27.2633762
  50.1739159   5.9507694  27.6305351  23.9804516  66.2226944  32.8227577
  24.6676388  66.8675308  32.6548309  24.2857151  65.7422562  33.5923157
  63.2339897  13.7587337  14.0049057  63.3978882  13.4404316  13.1171818
  63.8793449  13.3033295  14.5456018  26.8543491  11.1003609  75.1558456
  27.2855816  10.3453379  75.5561066  27.5291595  11.7789402  75.1360626
  42.6616936  53.3869209  13.2129650  42.8029213  54.0458946  12.5332298
  42.4569626  52.5856857  12.7309465  74.4970245  70.1218185  68.3072128
  73.8179245  69.4752121  68.4994507  74.0762711  70.7409134  67.7106247
  85.1580811  32.1748505  56.1267128  85.5830231  31.4586143  56.5985870
  85.5157089  32.1231537  55.2403336  57.6399422  48.9366875  84.5680542
  58.3203812  49.1214066  83.9206696  58.0188293  48.2580833  85.1267853
  48.0434990  18.5451965  84.9470444  48.8749695  19.0162868  84.8925934
  47.4283295  19.1856041  85.3043671  69.1512985  33.1608353  11.2668867
  68.2982788  33.1469154  10.8328371  69.5224075  32.2957077  11.0934954
  35.3204117  29.2553520  14.2727032  35.3341599  29.4946728  13.3460064
  34.8958702  28.3976727  14.2923031  55.5492096  18.1006222  79.9664154
  54.8551369  18.2724228  79.3300323  55.4418945  17.1771889  80.1944199
  82.5794067  29.0524178   7.9683714  83.4446793  29.0581264   7.5591054
  82.0350342  28.5401535   7.3704796  17.5928364  27.3574581  27.3260479
  18.5157566  27.3812294  27.0732899  17.2832279  28.2524281  27.1867447
  74.1893311  48.4335938  80.5491409  73.6953812  48.8998375  79.8747101
  74.2386627  49.0504646  81.2793961  42.4407768  43.9215355  11.8705902
  42.5327950  44.1942749  12.7834845  43.2179947  44.2728500  11.4361506
  70.0822830   9.4916935   1.4353416  70.0877228   8.5988569   1.7803699
  69.2780838   9.5439844   0.9188607  64.5482101  39.6261749  13.1875095
  65.3820343  39.9289742  13.5470619  64.5542984  39.9300499  12.2798452
  36.6977158  11.4090748  12.1553373  36.5568428  10.6802311  11.5510416
  36.5388908  11.0355740  13.0222301  26.8031139  18.3180943  37.3553352
  26.1091328  18.1308651  37.9874458  27.5110455  17.7190514  37.5924301
  26.0401783  52.6290054  42.6870766  26.4996605  52.6047401  43.5264359
  26.3163891  53.4533424  42.2865677  28.1719303  56.0847206  11.8405771
  27.2354450  55.9779320  12.0073805  28.5601788  55.2535400  12.1137667
   3.9887390  44.2211952  40.0588226   4.4779272  43.4202538  40.2470245
   3.6424983  44.0886002  39.1763420  15.6097794  53.5478401  39.1164246
  15.3623219  52.9367714  39.8103943  16.5267563  53.7555733  39.2959595
   9.5191689  64.4770584  56.0931931   9.7083511  63.5919762  55.7816315
   8.6325836  64.6567383  55.7802773  68.9870605  54.3450127  72.3448563
  69.0046158  53.5030785  71.8898010  68.0625229  54.4889297  72.5467224
  15.4125385  55.0649452   0.8748170  15.1982422  54.1463242   0.7121996
  14.8662796  55.3097191   1.6217558  79.5714264   3.1722946   9.3475304
  79.9998550   2.6039441   9.9875784  80.2333298   3.3119786   8.6703234
  56.6889687  52.8206367  37.2013092  57.2034302  52.6827774  36.4059753
  57.0302353  53.6358490  37.5690079  70.9804764  28.9272041  37.8321648
  70.6314011  29.0178604  38.7188225  70.6570435  29.6989403  37.3673553
  58.8129196  48.0410805  34.2356224  58.0742226  47.9798927  33.6299706
  58.5454292  48.7026749  34.8735657  83.9489059  51.7742538  17.8525734
  84.7544022  51.3708649  17.5290203  83.3634567  51.7809410  17.0953178
  86.9271088  36.5475426  24.2909470  86.1198578  36.9160919  24.6497593
  86.6920929  36.2739220  23.4043083  62.4525185  29.5596638  76.5762634
  61.9672012  30.2978230  76.9448013  62.7922325  29.0916233  77.3389969
  61.4479332  30.2530327  88.6955643  61.1608658  30.5495396  87.8319092
  60.7954674  30.6075287  89.2995911  54.4279518  12.8163490  10.3731365
  53.8940201  12.6080608  11.1397943  53.9332428  13.4950619   9.9139585
  40.6249886  14.4678202  80.6334686  41.5637131  14.3056164  80.5400925
  40.2745934  14.3625898  79.7489471  33.1662331  70.4782333  17.6083622
  32.7028580  71.1226196  18.1434231  33.6859169  71.0022812  16.9988270
  42.4801941   1.7212688   5.0791740  43.3982391   1.9807276   5.0010648
  42.0115776   2.3210208   4.4987178  30.4546490  64.2477188  73.4606781
  30.2856159  63.3860435  73.0796661  31.3349247  64.1777649  73.8300705
   4.3823519  34.0234604   1.4579684   3.7741978  34.6547585   1.8424696
   3.9635420  33.1736526   1.5945642  36.8785019  64.6277771  26.1096153
  37.2970772  63.9432259  25.5876789  36.6705971  65.3167572  25.4784927
  37.2182083  20.0230217   6.4154339  37.3830070  19.9314709   7.3538857
  36.6428642  19.2888336   6.2005477  66.2355499  13.7743158  45.1414680
  65.9464645  13.7088242  44.2313156  65.9003754  14.6201267  45.4389534
   1.0295324  65.9151535  60.4799461   0.2065429  65.4281616  60.4379463
   1.1490554  66.2602463  59.5951576  64.1660767  48.1807098   3.7732818
  65.0787125  47.8921547   3.7803977  64.1414261  48.8811760   3.1213837
  75.3265915  28.5735016  41.4146004  75.5126877  27.7476025  41.8612442
  76.1538773  29.0540237  41.4451599  27.1192341  58.5926590  58.0837936
  26.9939728  57.7022781  57.7555199  27.5489330  58.4772263  58.9312973
  30.7227993   5.4917936  85.3772583  29.8288021   5.1523910  85.4197769
  30.8059235   6.0455823  86.1535568  63.0456657  67.5128479  14.0374289
  62.8662376  67.2074509  13.1481752  62.6177673  68.3675766  14.0880442
   1.3377272  36.1383553  69.9165192   1.2398686  35.1861992  69.9237976
   0.9124890  36.4290085  70.7233124  50.2862053  15.9868536  11.1601114
  50.4991226  16.6851349  11.7792244  49.3476486  16.0862083  11.0005236
  12.4391108  47.9725685  73.0777130  12.7465334  47.0660896  73.0820389
  11.7355623  47.9837837  72.4287720  74.0257950  66.7952652  17.1230316
  74.6580887  66.1483612  17.4360142  73.4812393  66.9868240  17.8865738
  82.8281784  51.2470627  28.2709694  83.2801666  50.8560295  29.0186539
  82.7102661  50.5225029  27.6566849  47.2199364  41.1362648  61.8660889
  47.2272110  42.0513535  61.5853806  47.6989441  40.6714592  61.1799850
  23.7552929  18.2195530  69.5116882  24.6787186  18.4589958  69.4330444
  23.4822502  18.5906658  70.3507080  52.1198883  44.8926544  54.2016220
  51.3195114  44.4526978  54.4880905  52.3472939  45.4730339  54.9280319
  12.4157925   1.6271111  76.5411911  11.9483519   0.8494982  76.8462296
  11.7353783   2.2935956  76.4459686  27.7920990  46.6817474   7.2229161
  28.4843483  47.2755356   6.9323397  27.9078941  45.8978729   6.6859207
  49.6526833  54.1661224  41.8549767  49.6134338  54.2909317  42.8031921
  49.2275314  53.3214264  41.7067795  50.9586296  22.6059589  35.9498444
  50.4971352  23.3384914  35.5416145  50.2974129  22.1807575  36.4959488
  38.0094833  69.6309052  60.5699577  37.3162956  68.9962769  60.3883858
  37.9954071  70.2227402  59.8177795  36.3464470  49.6805573  16.3051167
  36.6842155  49.9272079  15.4441233  35.5130196  50.1457100  16.3776894
  75.0738449  17.3592129  60.5589714  75.1979523  17.3441353  59.6099701
  75.7551193  17.9498577  60.8802643  22.3849182   2.3836126  86.3495712
  22.8713722   1.9152706  87.0279922  21.6007080   2.7040620  86.7951736
  81.3358078  38.0632286  26.3686390  81.6938324  37.5156631  25.6699104
  80.5388184  38.4385529  25.9942474  19.9730511  46.0135841  49.0059090
  19.5713825  46.8606911  48.8127594  20.3360443  45.7241974  48.1688156
  54.4177094  47.5371399  19.8904591  54.1705322  46.8891068  19.2307720
  53.7797203  47.4180374  20.5940342  85.9687881  10.5693388  71.0417862
  85.9611588  10.2918615  71.9578476  86.3726425   9.8386536  70.5735550
  51.4441109  17.7154102  46.3124504  51.3916283  17.4511852  47.2309608
  51.9659576  18.5177727  46.3234787  52.8088493   4.8061113   4.5691347
  53.2560310   5.6271825   4.3639431  51.9106331   4.9405484   4.2668672
  56.1873779  30.3041496  21.0800381  55.8879089  29.4287205  20.8347416
  57.0484428  30.1613693  21.4729977  53.2364616  32.2068710   7.7189617
  53.0062523  32.8415833   8.3974724  52.6698608  31.4550629   7.8921127
  55.6708450  53.6514053   1.5888486  56.1157532  52.8940773   1.2083969
  56.0818253  53.7650528   2.4458284  58.9137115  23.7949429  48.3403702
  59.7556610  24.0576191  47.9684105  58.2701645  24.0473442  47.6782722
  20.9797516  48.9614563   2.6199393  20.8163528  48.0526848   2.3676126
  20.1454906  49.2641563   2.9785659  53.8906898  33.3662529  25.5590553
  54.6280556  33.5617294  24.9808559  53.4703369  32.6036186  25.1616631
  17.1999664  32.2528152  24.3947048  16.5024300  32.9083023  24.3909359
  16.7423477  31.4156418  24.3175125  74.1575394  28.0199585  30.8052387
  75.0662384  27.7247429  30.8630505  74.0178299  28.1838684  29.8725834
  27.6786709  25.4927063  22.5397663  27.7141628  25.3716640  21.5909138
  27.8073330  26.4327450  22.6662788  84.3688965  33.3605728  37.2886391
  83.5073929  33.3736839  37.7056084  84.9714890  33.1173744  37.9914703
  15.1890039   7.8960319  33.6098480  14.9913273   7.3743854  34.3876915
  14.3383617   8.2255363  33.3199081   9.3125257  50.1621323  76.1624146
   9.6121874  49.6858635  75.3880692   8.5464993  50.6508560  75.8614426
   5.8564854   9.4337883  11.8625917   6.1410275   9.2495308  10.9674292
   6.6473875   9.7385416  12.3073740  51.0470467  10.3097391  20.4808159
  50.8460121   9.4422283  20.8318748  50.5051689  10.3816032  19.6950436
  71.5455399  18.5946941  31.8156357  72.2509537  19.2111301  31.6190968
  70.8974686  19.1155968  32.2898636  66.4501724  50.7090225  39.7298317
  66.3214951  49.8728104  39.2821465  67.2537537  51.0633507  39.3491287
  53.1512794  65.7914429  47.3499451  52.2208633  65.6788025  47.1553497
  53.5406723  64.9378128  47.1603928  50.1949501  58.2605133  50.8226624
  50.2527962  57.4876747  51.3844490  49.2767220  58.2933655  50.5543137
  55.9916153  60.9125977  76.1755524  55.7284203  60.0243530  76.4163513
  55.2215157  61.2816696  75.7431564   0.3882039  64.3833847  63.9461403
  -0.1015409  63.6928520  64.3928452  -0.2500700  65.0850830  63.8178596
  41.3573875  28.2712383  65.7701569  40.4040794  28.3556480  65.7877731
  41.5432358  27.5330315  66.3504486  24.6926861  68.2607498  57.9690971
  25.5323715  68.5826263  58.2970619  24.6454277  68.5873032  57.0705643
  54.5369301  44.2715530  29.5188141  53.9242744  44.0076637  30.2052898
  54.5231590  43.5466270  28.8938904  82.5290375   0.7910954  41.3301544
  82.4440079   1.5508003  40.7540894  82.8057785   1.1572379  42.1701469
  10.4268236  20.2860222  78.4259720  10.9654036  19.5381012  78.1675644
   9.9182777  20.4968929  77.6429367  72.7513504  55.8589478  57.3312988
  72.3392792  56.3226395  56.6023102  73.2572479  56.5313683  57.7875290
  55.6504440   1.8391521  13.4707441  55.4669228   1.3922893  12.6443872
  56.3773994   2.4280322  13.2682905  59.2728043  29.8817673  86.5981216
  58.7491341  29.2729073  87.1189728  59.4826965  29.3956356  85.8007126
  86.7972870  12.9341784  25.4996796  86.0082169  12.5101700  25.8370457
  86.5713654  13.1819687  24.6031361  38.9216652  47.5094376  75.7736206
  38.3981667  48.2296333  76.1250381  39.1835823  47.8066711  74.9022522
  13.4263458  33.2468147  25.0736408  13.3056307  33.7078438  25.9037685
  12.9221268  33.7577095  24.4404087  35.1270447  39.7893562  29.5244541
  35.0714951  38.8371048  29.6041813  34.6033096  40.1217041  30.2534790
  71.7341309  54.7554359  59.6128044  72.2579880  54.9990845  58.8496246
  71.1065903  54.1148872  59.2779541  35.9061966  55.6861801  26.3327427
  35.5677071  56.0601540  25.5192318  35.4447899  56.1603127  27.0245037
  15.3227243  26.0973568   1.7251011  15.7596998  25.2646389   1.9036136
  15.5748186  26.6616535   2.4560251  46.8936119  35.5155792  31.7747536
  47.4962234  34.7773285  31.6848640  46.9818764  35.9982414  30.9528809
  73.0730133  45.5808830  68.7518082  73.3743973  45.9902611  67.9407578
  73.3859177  46.1627502  69.4444504  10.1998243  46.9887848  36.6463165
  10.7784624  46.4654274  37.2008514   9.8611374  46.3684235  36.0008125
  57.6196480   6.1444941  75.8188095  56.6824303   5.9595771  75.7583084
  58.0399933   5.3871584  75.4113998  73.9845428  58.8343925  66.3337631
  73.0916443  58.5219002  66.1877899  73.9193344  59.7868347  66.2642517
  73.2963638  49.5460587  88.7901535  73.3441238  49.1332130  87.9278793
  73.9891815  50.2064362  88.7782211  57.0843315  27.7556877  15.2683773
  57.7399254  27.1196823  15.5546026  57.5946617  28.5123501  14.9798355
  51.5858994  14.7302866  70.6694717  50.7032814  14.5448217  70.9901199
  51.7382545  14.0709524  69.9924927  16.9992027  57.5751114  60.2368698
  17.8371334  57.1502800  60.0535088  16.9394951  57.5846786  61.1921577
  73.3155746  39.9151039  21.5864925  73.0371628  40.1175690  22.4796486
  73.9914780  40.5647469  21.3932323  20.4436684  57.7137260  56.5366631
  19.5771732  57.8558846  56.9177284  20.9213104  57.2218742  57.2046242
  62.0314369  48.8578339  36.1196556  61.7784424  49.7598190  35.9230614
  61.2969055  48.5074654  36.6235771  38.8593941  12.1909313  49.0791206
  38.7762489  11.5696077  48.3557434  39.4372482  11.7541103  49.7048264
  20.6190453   3.7433479  87.9412079  20.0882835   2.9475443  87.9761505
  20.1539268   4.3661661  88.4997787  27.2025070  67.9231186  79.6876526
  27.5376625  67.5342789  80.4955521  27.9834023  68.2336197  79.2293701
   9.3939638  60.3571091  60.6878471   8.9169130  60.6489868  61.4646721
  10.1851854  60.8956833  60.6762505  83.4453201  46.6344070  51.2606773
  83.5177460  45.6843987  51.3526955  83.7080307  46.9784546  52.1144028
  51.6050262  55.6514244  38.1983032  52.2932663  54.9875069  38.1562538
  50.8902702  55.2889519  37.6748810  24.0869446  58.3263855  72.0658722
  23.6209927  58.9877472  71.5542831  25.0072403  58.5830956  72.0076675
  20.3111763  67.5206833  46.1285515  20.6132755  67.8105698  46.9893265
  21.0709686  67.6338043  45.5574532  26.0861168  58.6233826  11.1399794
  25.3259506  58.6488419  11.7211256  26.8171158  58.3893661  11.7119150
  59.2881355  50.7093773  11.1143093  59.0148125  50.9552994  11.9980793
  58.4997215  50.8145523  10.5817966  81.0261154  61.4549408  17.2744713
  81.8853683  61.8612213  17.3878670  80.5430679  61.6912384  18.0663414
  50.4319344  36.6758270  80.4236221  50.0896606  36.0935173  81.1018524
  49.6535110  36.9968948  79.9684219  30.1200829  46.6334457  48.5622673
  29.3532696  46.5649452  47.9934654  29.7786083  46.9887009  49.3828888
  30.9584618  50.4550667  74.0448608  31.2091351  51.1608849  73.4488602
  30.9855061  50.8547363  74.9142075  26.8536663  63.5326881  13.9634218
  26.5685520  63.7720909  13.0815897  27.7479515  63.8683167  14.0253792
  46.5779076  59.3812141  42.8745995  45.9458542  59.7358704  43.4998665
  46.0406418  58.9584160  42.2046585  34.5960922  57.1897430   0.8980831
  33.9600639  56.8507385   0.2681802  35.0484619  56.4116936   1.2240138
  29.5348034  37.1974373  80.7021332  29.2032375  37.2868156  79.8086548
  28.8433857  36.7274742  81.1682968  48.6868591  33.5201530  31.8629837
  48.5520172  32.9164658  31.1324959  49.5689583  33.8663864  31.7278671
  19.4137135  22.5897160  88.1219559  19.5439072  21.7737885  88.6052170
  20.1073475  23.1686344  88.4381180  78.4381638  10.1692095  58.1605186
  79.0708923   9.6354637  58.6411438  77.7942581  10.4288034  58.8194771
  14.8313656  37.7623062  72.0224304  14.2820597  37.1058044  71.5940628
  14.2118778  38.3338242  72.4761276  45.4023018  15.5836496  27.7027035
  45.4748306  16.4586773  27.3215218  44.5831947  15.6050882  28.1975098
  27.4275036   8.8827400   7.2195086  26.9770660   8.1497278   7.6390667
  27.9411354   9.2818251   7.9217534  74.6412888   1.6968083  67.1723557
  74.0386200   1.0384227  66.8265839  75.5093613   1.3843570  66.9173203
  27.3308735   7.3847771  65.7827682  27.7060986   6.8701086  65.0682373
  28.0429688   7.4690986  66.4168396   0.6347037  23.7680168  48.3419304
   0.2383690  23.5615711  47.4954491   0.6407918  24.7245674  48.3766289
  66.7554321   2.8887887   2.2865038  66.2334290   2.9401026   1.4858117
  66.1122208   2.7627909   2.9840956  34.8103752  21.7385178  17.5251064
  34.2650833  22.0081062  16.7860470  34.4768219  20.8743095  17.7661762
  19.6439114  43.7040634  40.4741173  20.3300476  44.1433372  40.9766006
  19.9043884  42.7830124  40.4673729   5.0958915  61.8643761  27.4386921
   5.5069523  61.7723274  28.2982197   4.6635504  61.0236549  27.2886906
  61.6165047  69.0308151  17.1325665  62.1187363  69.8288727  16.9679279
  60.9242935  69.0427933  16.4715595  59.8523064  60.5407639  73.3617783
  59.9214020  61.0009689  72.5253220  60.7588081  60.4211960  73.6449661
  81.2150497  28.8584747  82.4417801  82.0258560  28.9699383  81.9454041
  81.2621841  29.5223618  83.1297226  76.4535904  35.0835037  78.0228424
  76.1787338  35.6948547  78.7061691  77.3981476  34.9926796  78.1485291
  52.3491898   3.8484523  52.0033684  52.7114029   3.3734989  52.7513313
  52.9022331   3.5911922  51.2656746  77.5264511   5.5801430  71.1238327
  76.7322006   5.4585152  71.6440201  77.3213501   5.1834569  70.2771912
  34.3081551  26.2515259  86.2491531  33.8787384  26.7428646  85.5488586
  34.0196915  25.3480778  86.1195450  55.0370026  25.3568954  67.1264572
  55.3451538  25.8457165  67.8895645  54.9960136  26.0076714  66.4257126
  45.9163818  71.0329361   7.5023713  45.4842796  70.5923157   8.2340612
  45.3223343  71.7458038   7.2675152  40.1382751  46.8843422  48.6256561
  39.8650856  47.3922195  47.8616791  39.5812759  46.1061020  48.6075630
  39.6241074   0.9471654  89.0590210  40.1788254   1.5566683  88.5721664
  40.2032356   0.2161727  89.2746353  85.5846252  32.5745964   6.8447189
  85.9872055  32.4181213   5.9905081  86.0885239  32.0308113   7.4502029
  53.0081673  68.6764069  55.2612877  53.5995255  67.9617844  55.4975891
  52.9806290  69.2320023  56.0402527  44.9124794   4.7252393  18.3758373
  44.0520782   4.6383514  18.7861900  44.7409058   5.1871309  17.5551968
  20.3421421  46.2912903  56.8801613  20.8814354  47.0611038  56.6990929
  20.5873833  46.0304756  57.7678909  40.3912125  22.6972561  67.8256836
  39.7088661  23.1752453  68.2970276  41.1904373  23.1983337  67.9881439
  78.6754074  64.4548645  24.8512096  79.1001968  63.9384270  24.1663151
  78.0892029  63.8370895  25.2881947  67.4796143  30.3717594  81.6399460
  67.8915863  29.5156403  81.7564545  68.1683197  30.9197445  81.2636032
  14.3728514  63.5681534  21.7523289  14.0223551  64.4352341  21.5484581
  15.2155743  63.5379066  21.2994118  62.2149696  30.8897820  57.8652344
  61.6510429  30.1183701  57.9212837  62.4561195  31.0766106  58.7725258
   7.1059942  60.3080750  25.3964691   6.6072798  60.9161797  25.9421120
   7.5814800  60.8700218  24.7846203  75.3841476  53.8892708  88.2786407
  75.1035843  53.2149086  88.8973083  75.4877777  53.4244003  87.4483490
  40.1968079  20.1398144  19.4994011  40.3397713  19.9712200  18.5680752
  40.6337204  20.9759560  19.6612720  52.1208382  29.3884850  70.0674286
  52.9439621  29.7579021  70.3871613  51.4750671  30.0795841  70.2143707
  57.2300339  36.8276367  66.5954666  57.7262383  36.9402237  65.7847061
  56.3610077  36.5481224  66.3075638  11.3816271   2.4675467   9.2035007
  11.5149031   3.4097857   9.3067236  12.2427559   2.0841880   9.3700066
  48.4952621  15.1376095   4.3198481  47.5536003  15.0148096   4.1997528
  48.8071404  14.2936211   4.6464181  79.7428513  49.7096405   0.4012591
  79.2827072  49.1739235   1.0474046  79.7304306  49.1837311  -0.3984264
  39.6370697  27.0471401  47.3393250  39.7511444  27.3169765  48.2505913
  40.1609955  27.6714077  46.8373032  10.7466726  65.7277756   7.6632357
  11.4610672  65.6093445   8.2892113  11.1781416  65.7518692   6.8091364
  45.1965256  46.9961205  49.7386589  45.4921989  46.7422981  48.8643684
  44.7566223  47.8361816  49.6082268  74.6776733  15.2934017  52.6714630
  75.5317459  15.3995590  52.2525101  74.2435379  16.1374378  52.5475273
  26.8170547  59.1650429  71.9448624  26.9548893  60.1101761  72.0077820
  27.0653896  58.9460449  71.0467529  43.2096252  58.4330101  25.2962608
  43.2952538  58.9284172  24.4817238  42.2889900  58.5297546  25.5397797
  72.4163055  70.3631821  85.1505203  71.9656601  70.8352127  85.8507614
  71.8316956  70.4382172  84.3963089  49.4150581  37.8883781  42.6271019
  49.4485512  37.0665321  42.1375313  48.8117981  38.4396515  42.1287003
  67.3864975   1.3219202  29.3454151  67.0475769   2.1869538  29.1150169
  67.8527069   1.0308233  28.5617447  26.3590031  49.4060516  75.4103165
  25.8326569  50.1638985  75.1556320  27.1072025  49.4226303  74.8135300
  46.6349640  63.4442482  69.4647827  47.4759445  63.7264214  69.1051102
  46.8584442  62.7370834  70.0699387  50.1753731  57.6697388  20.1994591
  50.3494797  56.7589340  20.4368382  51.0091705  57.9915085  19.8567047
  63.2313652  28.0572453  44.5703125  62.9158745  28.9391041  44.7678490
  62.5704613  27.4764004  44.9472198   2.8892381  21.0811977  18.7496872
   3.3966339  20.3090324  18.9997692   3.2642024  21.7926292  19.2688217
  25.8926392  50.4997482  38.8421745  26.4358845  51.1519661  39.2845840
  25.5122910  49.9831505  39.5525932  83.2938690   9.7514009  51.9551888
  83.2859573  10.5650492  52.4593163  84.1414413   9.7534561  51.5103989
  51.7212677  67.7854691  22.6481476  51.1865234  68.5770187  22.7091274
  52.2172699  67.8934326  21.8366337  58.9361382  63.9244881  16.5082760
  58.4959526  63.2812653  17.0639133  58.4086914  64.7183380  16.5968018
  26.3056431  66.3628998   4.0637054  26.0385303  65.5643005   3.6086054
  27.2623482  66.3436584   4.0397105  32.5217438  16.5892715  88.6351318
  33.1860275  16.8976498  88.0188065  32.9518433  16.6267700  89.4894409
  71.3400497  65.7949295  35.0252419  72.2449417  66.0669785  35.1781693
  70.9547577  66.5146790  34.5254974  54.0576134   6.5561604  46.8235779
  53.1280441   6.5188537  47.0488205  54.5109940   6.3734579  47.6465569
  39.4267845  40.9666977  83.7791824  39.8859711  40.1738205  84.0561676
  38.7290573  40.6511383  83.2048721  40.6828308  51.5178223  14.8476009
  40.3223839  52.3058052  14.4409170  40.9633369  50.9749374  14.1108360
  69.6064911   6.3447084  36.4599915  69.2059174   6.4364791  35.5955009
  69.3175201   7.1199412  36.9413834  82.8229828  66.8797226  55.0798645
  82.4826508  67.1203232  55.9415588  82.2909698  66.1300735  54.8130035
  43.1349869  12.9131613   2.3936162  43.4087105  12.9275761   3.3107300
  43.9509048  12.9891748   1.8989173  30.5984497  47.4454803  58.8250046
  30.7348080  47.0468445  57.9655113  29.6836586  47.2566986  59.0341682
  51.3943443  63.4654999  31.6923428  50.4839096  63.3998375  31.9804955
  51.4162292  64.2502441  31.1446896  56.4930687  28.4805202  63.4518700
  56.5766144  28.7014122  64.3794785  56.3800964  29.3241634  63.0139961
  62.6492310  59.6568947  55.4373245  62.2648582  59.8585663  54.5842018
  62.0397797  59.0340652  55.8334084  48.4303627  70.1741104   7.2064567
  47.6040230  70.6229477   7.0277448  48.1701317  69.3389130   7.5949736
  43.4777222  17.6873875  74.1387253  44.1819992  17.9221840  74.7429504
  42.6772728  17.7844467  74.6545715  43.4813843  44.6220627  65.7523346
  44.2178345  44.1925316  66.1875076  42.8976288  44.8783150  66.4663391
  28.8486023  47.2636795  19.5169926  29.6822033  46.7971077  19.5774479
  28.5488358  47.1035233  18.6221600  70.5223770  45.8236275   6.6718578
  70.1681290  45.3062057   7.3950562  70.4126282  46.7325058   6.9513607
  53.9494591  50.8040810  24.5489349  54.4158325  50.2124977  23.9583759
  54.3147507  50.6164551  25.4135685  17.4118004  18.3378487  86.4067841
  18.3134212  18.5912857  86.6044769  17.3017139  18.5482140  85.4794998
  67.1669769  50.5947876  33.5064964  66.8249283  50.1150360  32.7521248
  68.0275269  50.9040337  33.2235489  75.3673706   9.4863415   4.4816017
  75.2217026  10.3433399   4.0808940  76.2990036   9.4798985   4.7012830
  42.0421944  64.9524612  63.0310707  42.3966866  64.9283829  63.9198837
  41.1644211  65.3203125  63.1331825  79.1693726  24.0545826   4.8044629
  78.9295807  23.3553448   5.4125762  78.6454163  24.8052750   5.0840397
   8.7436152   5.9109097  75.1799622   8.7498159   5.6646619  76.1049194
   8.9145298   5.0929017  74.7131805   4.8734174  35.7446785  63.4681892
   5.4721117  35.2189140  63.9986305   4.0336652  35.6839066  63.9235535
  16.0945110  65.9377213  14.8342619  15.3926907  66.3669128  15.3236284
  16.5874901  66.6579132  14.4411573  26.6751518   3.1827245  25.0577106
  27.0814114   4.0292678  25.2435856  27.1917725   2.5534570  25.5610580
  43.0212402  28.8471031  12.0018110  42.1180954  29.1207371  11.8415394
  43.4541435  28.9410954  11.1532879  82.7766953  70.4292679  79.0752258
  83.7094116  70.3582916  78.8721542  82.5243759  71.2911682  78.7440186
  78.2259293  23.6292572  88.9392853  77.8582993  23.3190517  88.1117249
  78.1606369  24.5828419  88.8878784  16.4224815  64.6353760  88.6738663
  17.1157284  65.1277847  89.1133804  16.7838478  64.4308395  87.8114166
  12.3378878  25.7379704  17.7189999  12.5958004  24.9515038  17.2381840
  12.5669384  26.4613380  17.1354694  78.7991867   7.8705516  29.5328827
  78.4491577   8.2625685  30.3329048  79.5544815   7.3610525  29.8264332
  65.6579819  35.5195274  35.0945778  66.3331528  35.8488922  34.5013733
  65.8287964  34.5795441  35.1535721  18.3134136  47.9714508  58.5265961
  18.5511513  47.2972069  57.8901138  17.9728470  47.4835701  59.2764091
  81.8594666   6.4745355  34.9220848  82.7212677   6.0949845  35.0937576
  82.0421600   7.2605000  34.4071922  85.3384628  25.4973526  87.0211792
  85.0285187  25.0261955  87.7946014  85.2781677  24.8581753  86.3112106
  16.2486610   3.4681914  67.4237900  17.0169811   3.8034348  67.8858795
  16.2438660   3.9418356  66.5920029  39.7457962  51.0849762  59.2341690
  39.8381844  52.0131149  59.4492340  39.1896477  50.7323532  59.9288559
  60.4638023  31.1277790  77.3802109  60.1916084  30.2127666  77.3102417
  59.7848854  31.6159191  76.9143524   8.0046721  70.5818863  37.2058678
   7.7737398  71.3526840  37.7242928   8.9422283  70.6778946  37.0385284
  23.1989384  12.6856680  73.1822891  22.6942577  11.8726425  73.2050705
  22.6071968  13.3238058  72.7837219  60.1949158  56.1190224  43.5087624
  59.8212280  56.2211494  42.6334572  59.9282990  55.2412796  43.7820969
  80.1004639  37.4517441  33.5803680  80.1367111  37.2100105  32.6549034
  80.9793549  37.2660828  33.9110069  36.0966911   3.5937469  45.5398788
  36.9212570   3.9982970  45.8094330  35.7206917   4.2113471  44.9126434
  84.9473495   5.1579323   9.1979904  85.0442734   4.3984103   9.7724152
  85.6477890   5.0612164   8.5528097  68.9062119  31.7229843  79.4851608
  69.4730988  31.5265541  78.7393188  68.3283005  30.9629955  79.5534515
  21.2128563  67.3512802  69.0739441  21.0043221  67.9846268  68.3871994
  22.1695061  67.3253021  69.0933304  50.9122696   3.4073956  70.9733887
  50.6838913   3.0911815  70.0992661  50.4465828   2.8208723  71.5695114
  77.5276260  63.7711525  66.9620361  77.6891632  62.8278961  66.9420624
  76.5763016  63.8527145  66.8945923  78.6425934  43.6904030  44.9896011
  79.1116714  43.3499146  44.2278519  78.4818802  42.9207993  45.5356026
  65.0027771  53.8022270  25.6904640  65.5021591  54.6188316  25.6933422
  65.5305481  53.1968880  26.2112827  86.5376511   9.8190708   3.5315006
  86.9108734  10.4730921   4.1224251  85.7369690   9.5299807   3.9691927
  56.5870552  67.4834518  74.2762756  57.0384979  68.0623703  73.6620407
  57.2166443  66.7845840  74.4535599  51.5134354  70.9466782  13.9477110
  51.1073799  70.9092407  14.8137054  51.9107208  71.8165817  13.9068680
  40.5084457  10.8012981   9.2838402  41.2362175  10.9426336   8.6783628
  39.8524284  10.3355408   8.7652426  76.0483551  33.7798195  73.6941528
  76.4281235  33.3491478  74.4600067  76.7460938  34.3485260  73.3686218
  68.4245529  19.3949127  35.2573318  68.0195236  19.8107662  36.0184174
  68.1350098  18.4835510  35.2999878  78.3507233   3.7612109  40.8673019
  78.5964432   3.4442573  41.7364349  77.7769165   4.5080762  41.0381126
  83.1629639  38.8808975   5.9025912  82.9254150  37.9842987   5.6661310
  83.5944290  39.2281723   5.1219058  82.5878372  43.9574661  59.9600639
  82.2026215  43.2627754  60.4941483  82.0343552  44.7208900  60.1245842
  22.9045506  25.2695274  11.2191143  22.9022236  25.5273304  10.2972879
  23.6551361  24.6812401  11.3014002  21.7062740  19.1786003   6.8896766
  21.2934799  19.0311756   6.0387368  21.8466702  18.3002129   7.2431693
  80.9646759  10.2692995  65.7105103  81.5388031   9.5739508  65.3894196
  80.8462524  10.8487587  64.9578934  46.9311371  13.1422272   6.6029325
  47.0091667  13.6453028   7.4135242  46.5594978  12.3035698   6.8763704
  51.4717979   4.4360757  22.6275063  51.9064598   5.2888598  22.6197834
  52.1442833   3.8272395  22.9329777  39.4059143  37.5424347   5.9155188
  39.3586998  38.4062462   5.5058398  40.0028191  37.0446739   5.3567991
  22.2652893  10.6260452  81.7890625  23.0030022  10.1941204  81.3584213
  21.4955864  10.3213434  81.3084946  23.7410831  60.2092781   3.7849975
  24.2989521  59.6138840   3.2844801  23.6046581  60.9563408   3.2023144
  19.9035416  57.5611572  33.4971085  20.7439289  57.8404427  33.1338158
  19.8150654  56.6486282  33.2219849  83.8277893   1.9928749   0.1135790
  83.3686447   1.6989824   0.9003721  83.6917877   1.2885985  -0.5202429
   9.0352154   1.9113121  79.1746750   8.5558434   1.9318482  80.0029297
   8.7158289   2.6750281  78.6940918  83.1476212  46.9237633  67.6334076
  82.2028885  46.7759323  67.6763687  83.3856354  46.6926231  66.7355499
  20.1291351  62.1545029  62.5144043  20.9918289  62.2256126  62.1058273
  19.5873985  62.7863617  62.0416374  73.5812531  14.5442715  43.8082886
  72.9715652  14.2740116  44.4949226  74.3403702  13.9726801  43.9234657
  70.2060928  13.2578363   8.7464581  69.6121521  13.1482801   8.0038519
  70.9525833  12.6949415   8.5411806  51.3125992   4.8180070  59.5972748
  51.9058762   5.4748511  59.9617119  51.2729912   5.0230384  58.6631317
  73.2561951  57.2249870  82.9235001  73.0304184  58.0060768  83.4286270
  72.4348907  56.9631729  82.5073853  61.9267616  69.8704834  26.5788727
  61.7178268  70.6717682  27.0589962  61.3309441  69.2134018  26.9387054
  78.5108871   3.3634403  28.4304695  77.5923004   3.1249993  28.5552940
  78.8784027   2.6418958  27.9200382  76.4431992  45.1321030  26.8967476
  76.0778122  45.8731880  27.3799858  77.3486862  45.3857841  26.7179451
  10.7785349  42.3523254  48.7337074  10.6659899  42.1719055  49.6669884
  11.7135429  42.5322266  48.6355858  65.5324097   5.1579261   8.2096119
  66.0185471   4.3407149   8.3194647  64.6230392   4.8820715   8.0948019
  20.3884583  60.5094337  83.1277924  19.6249390  60.2946205  82.5919495
  20.4687595  61.4608345  83.0598145  81.2650223  53.8161545  25.8512287
  82.1888580  53.6151009  25.7017899  80.7943497  53.0704155  25.4789696
  60.9028053  62.4783325  30.5200005  61.4836197  63.0107384  29.9764652
  60.4403305  63.1120834  31.0683727  54.8085098  36.5966148  15.8438807
  55.0405006  36.4343834  14.9294996  54.2865410  37.3986168  15.8198843
  46.8015251  48.7527313  69.2609329  46.3383598  48.2671356  68.5783615
  46.8243179  48.1539192  70.0073471  26.6393738  50.1420059   5.3199677
  25.7756405  49.7617950   5.1598434  27.1668606  49.8616753   4.5720334
  64.6793442  17.7963772  41.6120872  65.3946228  17.1773701  41.4656792
  64.9362564  18.5789585  41.1244507  29.7055111  44.9921913  13.1721010
  29.8799725  44.5408401  12.3462229  28.7640305  45.1642723  13.1567726
  27.3932533  29.2388363   2.3913906  26.5984383  28.7067947   2.3535070
  27.9506836  28.8864002   1.6976380  60.5432587   5.7821665   9.6769600
  60.7202263   5.9374104   8.7491598  59.8632278   5.1085424   9.6816378
  84.7067642  64.2763824  14.1508551  84.5287628  65.1688538  13.8541384
  85.6612930  64.2270660  14.2025414  49.5252914  18.1375008  43.6428604
  49.5391426  17.3381577  44.1692543  48.7857132  18.6382217  43.9871483
  79.2116241   5.1368990  79.2858887  78.9869156   6.0671487  79.3052063
  79.4285736   4.9240046  80.1935501  76.2891006  25.9342155  74.6716156
  76.2647095  26.8465767  74.3831100  77.2090378  25.6821804  74.5914688
  56.4383469  42.0116158  21.7944717  57.1977921  42.2805061  22.3113575
  56.7559929  41.9973831  20.8916264  27.1531334  64.9371948  19.2146931
  26.2705517  64.5949173  19.0728188  27.0451603  65.6045303  19.8923626
  53.4360695  36.4580460  62.1262360  53.6145058  36.7192421  61.2228165
  53.3744659  37.2837143  62.6065559  48.3000946  22.8798046  72.9072342
  48.7544365  22.9272041  72.0660706  47.4420013  22.5122204  72.6955872
  63.6064529  25.6201172   2.3182070  62.8912086  25.9866333   1.7982818
  64.2849884  25.4090309   1.6769103  16.9136543  15.5404644  23.5058613
  16.3086300  16.2722988  23.3850460  17.4447899  15.7910776  24.2617188
  36.5918617  45.8868599  28.2743683  35.8581810  45.4064255  28.6579361
  37.2977867  45.2426872  28.2200909  75.0138321   7.6160107   2.5799520
  74.9312134   8.0416622   3.4333138  74.1996231   7.1230907   2.4783347
  48.9878883   5.7690539  51.0536156  48.9820366   5.1103063  50.3591728
  48.3825150   5.4282756  51.7121162   0.1882890  21.2580853  19.2988358
   1.0981632  21.3103142  19.0062046   0.1996486  20.6083355  20.0016365
  80.3247528  22.1586456   0.1727851  79.4782715  22.6036129   0.1315710
  80.6219025  22.2920647   1.0728594  40.1904678  65.6559677  50.3347473
  41.0544205  65.8295593  50.7084923  39.6917076  65.2687225  51.0541382
  52.7987976  60.8811760  19.3858013  52.7101822  61.3926964  20.1899948
  52.8567123  59.9735870  19.6843872   2.1908226  53.1490440   1.6625090
   2.3372746  52.7335892   2.5123222   2.9173636  53.7651367   1.5687171
  67.8258286  18.5222263  58.9062386  67.7360764  18.8511963  59.8006401
  67.8679962  17.5709686  59.0040207  31.9661674  48.4857292  26.0385494
  31.7112541  49.0167732  26.7930298  31.5089169  47.6544151  26.1653214
   0.5210515   3.2855310  47.0020485  -0.3496111   3.1642535  47.3808250
   0.7461969   4.1934667  47.2050133  12.9746113  28.8510456  66.1011276
  12.6001749  29.4063721  66.7849731  13.9211922  28.9445763  66.2082214
  22.9866390  -0.2921380  81.2095947  23.7122936   0.0512730  81.7308655
  22.2855091   0.3495565  81.3230667  14.8658285   7.1093102  66.4624863
  15.0856152   7.9683409  66.1019440  13.9900551   7.2216387  66.8321304
   9.1421394  66.5529556  11.3744211   9.6433268  65.7441406  11.2702389
   8.2277851  66.2697830  11.3747540  23.1932468  54.3686104  14.8050413
  23.0093498  55.1617966  14.3017836  22.6860218  54.4727631  15.6100922
  45.5711746  12.3505650  80.2529755  46.1542244  12.8830528  79.7119141
  45.9042015  11.4582691  80.1574097  31.8097820  68.7297058  37.6809349
  31.1887379  68.8329239  38.4019661  32.5739212  69.2405777  37.9480133
  15.6371994  45.4559898  19.5147839  15.1115665  45.1412315  18.7793465
  16.2571507  46.0696983  19.1207657  73.0700607  13.8778381  34.6587067
  73.3287201  12.9570904  34.6193428  72.8883896  14.1146765  33.7492371
  18.4603443  47.5327950  25.9660606  19.0288334  48.2929230  25.8425312
  18.4813824  47.3686676  26.9088497  81.2666855  51.5624466  75.2935410
  82.0236359  52.1331596  75.4260025  81.5810776  50.8819008  74.6983490
  47.6448402  59.0942307   1.6007149  48.2388268  59.0688744   2.3508925
  47.7081795  59.9921837   1.2752999   2.2482450  24.2757435   5.3746915
   2.6094799  24.9769917   4.8324814   1.4720554  24.6621838   5.7801867
  30.1225300  60.1414909  29.0109386  29.1897907  60.0878906  29.2191658
  30.2216396  59.6142960  28.2181759  50.8545113  39.5453415  79.5716171
  50.3803139  39.0741310  78.8865433  51.0530739  40.3972168  79.1828918
  55.5862312  39.6482353  82.6483841  55.3900795  39.2102089  81.8201981
  55.6935158  38.9346046  83.2772369   2.8486271  33.5858383  39.0802383
   3.2066579  33.0331650  38.3855476   3.4081838  33.4118004  39.8371010
  23.9924526  16.4348011   4.5133014  23.9447670  16.6475143   3.5812547
  23.0931969  16.5302849   4.8270769  78.2650146   2.8312905  83.5323257
  78.1076431   2.6218750  84.4529877  78.2955933   1.9803903  83.0949860
   3.5552459  38.5970573   2.5548117   4.2691641  39.2300606   2.4782832
   3.8110254  37.8767471   1.9786482  57.0904922  54.2142448  88.0396194
  57.3250885  55.1200485  87.8378372  56.2937012  54.2846260  88.5653610
  30.1183853  60.2031174  55.8699532  30.6279068  59.7989388  55.1676292
  29.2116146  59.9669495  55.6744537  72.0680313  31.3062325  33.9525948
  71.2909622  31.3289852  34.5110588  72.7908020  31.5307560  34.5386162
  82.7931213  27.2793941  62.5355339  83.1876831  27.8225269  61.8532104
  82.4823532  27.9050808  63.1898804  77.0001678  38.7705994   1.4521650
  76.7621841  37.9657593   0.9919186  77.1587830  38.4926720   2.3542910
   6.0025716  29.3039646  86.9921875   6.6461835  29.3013420  87.7006989
   5.1917634  29.5995712  87.4062424  31.1773014  30.6724110  17.7883472
  30.4116611  30.7973938  17.2276287  30.8200016  30.3356628  18.6100349
  35.3899040   0.2823256  24.4767380  34.7776985   0.9556106  24.7735939
  35.3756561  -0.3770187  25.1704922  70.5713654  47.0641670  27.0936203
  70.5858383  46.4387779  27.8181267  71.1710815  47.7590790  27.3650436
  62.1182747   2.8421867  47.1512222  61.1986427   3.1076598  47.1566086
  62.5608025   3.5218768  46.6428680   1.7533225  39.6797905  78.6487732
   1.1742254  39.7569351  79.4070129   1.4237432  38.9178810  78.1722183
   1.0399358  61.6815567   5.8469906   0.8335262  62.5844841   5.6054301
   1.1699617  61.2337341   5.0110593  21.9743156  11.9503765  87.9037628
  21.2528210  12.2301588  88.4671402  22.0826664  12.6677256  87.2793427
  52.3571739  39.7568016   3.6936450  53.1969414  39.9079170   3.2598441
  51.9772873  39.0121651   3.2273498  52.4807167  21.8673325  66.5327835
  52.5998878  21.6853180  65.6006317  53.3352776  22.1832561  66.8262939
  79.7859955  54.7911224  37.0037842  80.6987000  54.6800194  37.2699699
  79.6878967  54.2212410  36.2409973  85.4868393  14.8132315  34.3779221
  85.4222717  15.5844183  34.9412460  86.0548553  14.2117815  34.8594284
  75.8870850  31.0894299  25.1127625  76.3525543  30.2826080  24.8922939
  75.1841202  30.8080215  25.6983261  74.1992416  16.2863750  29.6189308
  73.9024811  16.8135376  28.8771305  74.5477753  15.4883928  29.2214680
  61.0146370  16.0543995   1.2292665  60.4330025  16.4335537   1.8881878
  61.8279572  16.5521469   1.3128482  71.8707809  12.4655752  60.7460861
  71.7406616  12.8783073  59.8922997  71.4380493  13.0538073  61.3649216
  59.7365494  46.3364792   4.1707487  59.5643120  45.5461426   4.6825433
  60.5176964  46.7166023   4.5726824  36.4579620  54.8703270  42.4553566
  36.8367462  55.7492867  42.4418106  36.3669090  54.6630669  43.3853989
  22.9384937  57.0504494   5.2829137  23.3845234  56.2352371   5.5125108
  23.6168861  57.7222252   5.3517170  61.4817696  62.8268471  17.0093517
  61.3072433  62.0652924  17.5623512  60.6193237  63.2108917  16.8514652
  41.7116127   7.2031097  20.4151115  41.5864143   6.2803073  20.6364555
  41.8592339   7.2046738  19.4693661  28.7713280  37.3292046  29.4454479
  29.7196846  37.2427406  29.5422745  28.5590935  38.1501694  29.8895245
  53.1026688  65.3724365  82.9860077  52.9861298  65.7384567  83.8627548
  53.3324318  64.4556961  83.1377792  24.1003284  41.4658699  74.5291595
  23.5343094  40.7027359  74.4130402  23.6421604  42.0084610  75.1709595
  19.0058556  13.8815432  74.4872894  19.6757851  14.1286230  73.8498077
  18.1801434  14.1458883  74.0816345  60.8708725   1.1338686  81.9138565
  60.4599419   1.9911599  82.0252991  60.8187370   0.7289140  82.7796097
  35.8544388  46.0953789  69.1746063  35.1549149  45.9015961  69.7985840
  35.5775986  46.9067268  68.7488022   5.9054871  14.4118910   3.5752120
   6.7157879  14.9131765   3.6666343   5.3000703  14.8203182   4.1939921
  68.4925461  25.4854126  25.5707455  68.0948029  25.1429558  26.3712196
  68.8924789  24.7210178  25.1560345  47.6245117   0.5568143  66.9400558
  48.0832748   0.9451787  66.1951141  47.4601860  -0.3481124  66.6748505
  72.6754303  59.1855049  18.9730988  73.5876083  58.9406586  19.1287231
  72.3014069  59.2848778  19.8485775  76.8123627  35.1855659  16.0893097
  76.7560196  34.3373947  15.6492395  75.9409561  35.3205414  16.4616852
  71.0752945  16.0777931  84.3946991  71.7470016  15.4134016  84.5483932
  71.4360428  16.6264706  83.6982422  19.5851212   9.8869953  87.6592026
  19.4183502  10.7153473  87.2094803  19.5030880  10.0985756  88.5891113
  51.4863548  11.8462105   5.8307467  52.0835609  12.5528831   5.5854096
  50.6128578  12.2223768   5.7224388  71.9453506  16.0081291  56.0906258
  71.2450409  15.3789110  55.9177628  72.7237701  15.6143742  55.6965904
  61.3361282  27.7363853  22.2247334  61.3860435  27.9929714  23.1455498
  60.9122429  26.8782597  22.2378521  60.7646751  64.4491272  53.7415085
  60.5596046  65.3700714  53.9028778  60.9197350  64.3999939  52.7982330
  75.1671066  21.2914124  72.3410721  75.9763412  21.6222820  71.9513397
  74.4698257  21.6961517  71.8251190  13.7975779  36.6873932   0.1994365
  14.5209627  37.2420540   0.4914928  13.0217409  37.2417068   0.2833640
  46.8024673  66.7514191  69.0606537  46.0138512  67.1360321  68.6780396
  46.5812531  65.8289490  69.1885071   0.2138026  22.3214569  39.0475464
   0.2466143  22.0685272  39.9701385   1.0154283  21.9583588  38.6709976
  46.4656105  38.5351257  68.5456238  45.8995285  39.2570267  68.2724152
  46.4245682  38.5472603  69.5018616   2.2382061   4.1278100   1.9978178
   3.1143632   4.2125349   2.3738532   2.3698773   4.2391047   1.0562721
  61.9252357  28.7531681  60.7552071  61.4949188  29.3166389  60.1121216
  61.8569679  27.8727093  60.3859329  43.2400932  13.6017761  79.5929031
  43.1399918  13.0813370  78.7958145  44.0064468  13.2282772  80.0281525
  11.0788364  22.0379829  75.6731186  11.2734652  21.1120682  75.5280838
  11.8346643  22.5010548  75.3118439  81.9299774  36.4719925  85.6771851
  81.8253403  37.3372116  85.2813568  82.4768753  35.9895287  85.0572128
  80.3422928  57.3784370   1.8077210  80.5076599  57.2776604   0.8703154
  79.4195557  57.6269264   1.8627952  46.6983833  19.9142857  16.0198364
  47.4998322  20.4310646  15.9370909  46.5617256  19.5430279  15.1482134
  60.1565170  15.6793652  37.3296127  59.4201508  15.4451857  37.8945503
  60.7839050  14.9658403  37.4457932  25.8562908  51.5151672  21.2782803
  25.3280697  50.9598198  20.7048702  26.5999260  50.9654846  21.5254402
  42.8344803  43.1252403   5.8904471  41.9419327  43.3958931   6.1057134
  43.1362228  42.6550598   6.6676931  62.2269440  66.5320892  11.5743008
  61.5339470  65.9220047  11.3217449  63.0093231  65.9863510  11.6535635
  50.1149864  36.6728630  54.2937508  49.1910591  36.4678421  54.4371223
  50.2616234  37.4777374  54.7906494  79.5450668  40.7777519  29.0130978
  78.7935486  40.7998734  29.6055222  79.6235275  41.6761055  28.6921005
  38.9431953   0.0105660  80.7387466  39.8947487  -0.0516634  80.8218307
  38.7927055   0.1441479  79.8029404  83.9693451  69.2353745  11.8314018
  83.1803360  69.3802490  12.3536186  84.5302124  69.9846802  12.0319214
  53.4047127  36.8272896  23.9104290  53.0770683  36.5211296  24.7560940
  54.2932739  36.4755020  23.8562355  59.1016541  61.0648766  20.7134037
  59.6019592  61.4833069  21.4140053  58.3929176  60.6072311  21.1656113
  60.1280518  35.2103081  35.1475258  61.0010757  35.5473289  34.9463463
  59.6039581  35.4274406  34.3765450  41.9650726   3.5410612   7.8565841
  42.5307922   2.9220102   8.3180685  42.5700645   4.1634698   7.4530716
  68.2438431  33.5174599  65.3716125  68.7643051  33.1030388  64.6834259
  68.8404083  34.1467819  65.7769470  31.5793228  59.6872330   9.8902159
  31.4055710  59.8174362   8.9579678  31.9084129  58.7903404   9.9495354
  17.3787994  60.8541870  43.8808403  17.9359074  60.7719002  43.1068306
  17.4381294  61.7787476  44.1214523  35.1228828  45.9260788  25.7983150
  35.9157143  45.8905449  26.3334637  35.4349098  46.1550102  24.9228363
  67.5010681  12.1980095   3.2392020  66.5488129  12.2921009   3.2147875
  67.8097305  12.6873922   2.4766638  82.6652603  63.3449974  62.4371681
  83.1191711  62.5024147  62.4530983  81.7362289  63.1161003  62.4100838
  67.3473740  29.2174416  72.3350677  67.2257919  28.3632851  71.9205017
  66.6252289  29.7502422  72.0021133   3.5276763  29.5050697  83.4233856
   2.9471121  29.9134846  82.7812195   3.7273650  28.6452980  83.0530472
  30.0315456  48.1889992  80.0724411  29.5984459  47.3394547  80.1556778
  29.5552502  48.6329308  79.3708038  52.6833878  64.2984695  50.3654594
  51.8806610  64.5490494  49.9082184  52.4012947  64.1149979  51.2615585
   7.1887555  55.7336655  58.2486229   7.3482161  55.0691071  57.5784225
   6.3484526  55.4872246  58.6351318  18.6108799  70.0942230  88.8349152
  18.1542625  70.9192123  88.9996033  18.9143810  70.1649857  87.9298630
  61.3313446  20.5967655  53.3073883  60.7263794  20.4208908  54.0280228
  60.8563156  21.2022877  52.7382469  64.1346741  25.8522606  39.1884842
  64.3941422  26.1811047  40.0491638  64.8561325  26.0996361  38.6100960
   3.0944378  15.8026247  29.0664425   4.0341573  15.6314774  29.0042534
   2.8095629  15.3005667  29.8299961   5.7560234  48.5748596   2.1763084
   4.8994465  48.1837730   2.3482406   5.6795774  49.4716949   2.5019944
  38.8655357  57.1290283  68.8423004  38.9760323  57.8740540  68.2515717
  39.7544899  56.8058243  68.9890442   7.1493368  25.4405956   5.4191628
   7.8444381  24.8527451   5.1233640   6.7250242  24.9683914   6.1355510
  27.0771351  24.2820129  75.9702682  26.9560471  24.3152657  75.0213394
  27.2632923  25.1871624  76.2198334  65.6245575  42.0604744  45.3559380
  64.9192429  42.5158310  45.8157310  65.3614960  42.0786514  44.4357796
  52.3382187  36.0065994   7.7078962  51.6863518  36.7036018   7.7819743
  52.0659103  35.3543930   8.3534241  31.1057911  36.5913734  85.4489594
  31.5763111  36.8166695  84.6464081  30.9493542  37.4321327  85.8789291
  72.3426666  15.7166910  16.7935600  72.1525192  16.5803375  17.1598835
  72.2100220  15.8216486  15.8514233  25.0092258  18.8541908  75.2076035
  25.7403774  19.1719208  74.6777954  24.4208126  18.4371967  74.5782242
  80.3890076  35.4123840  17.4771538  81.0860291  35.3696938  18.1318054
  79.5853958  35.5060577  17.9886856   1.3209898  51.6227531   4.5469723
   0.6634973  51.8695335   3.8965616   1.7277443  52.4507179   4.8024259
  57.8511047  35.0005302   4.8021135  57.6564064  34.6478996   5.6704321
  57.6105919  35.9252281   4.8596807  30.0070438  40.5299263  13.9202509
  29.2617035  40.3046112  13.3635330  30.5900745  39.7733574  13.8576870
  51.8526421   0.4184441  16.4507885  50.9925728   0.3691987  16.8680229
  51.9591293   1.3437319  16.2300282  10.5182085  43.3104324  34.0253067
  11.3659935  43.3789787  34.4643898  10.6123667  42.5600700  33.4385147
  37.9173775  57.6901665  50.2845268  37.0998077  57.2488060  50.5147667
  38.4316444  57.0212135  49.8325729  76.4355621   5.6819425  34.3147049
  76.2187271   6.0496287  35.1714554  77.3858566   5.5691595  34.3360252
   1.4853209  67.4264908  72.0942230   1.1067415  67.1279449  71.2673111
   0.8502334  67.1593170  72.7586899  73.2582932  20.0876274  76.3014374
  73.7052841  19.2840080  76.5671997  73.3136978  20.0877151  75.3458481
  72.0909348  51.4174423  30.2910519  71.8732452  52.2964478  30.6012039
  72.0494080  50.8697357  31.0749683  39.4454460  68.7250595  25.7392406
  39.9125290  68.2936554  25.0237274  39.3849030  68.0575333  26.4225998
  71.4849091  40.9537430   3.3547535  72.1463928  40.7306976   2.6998329
  71.0153046  40.1341553   3.5096269  21.1300049  13.1331272  55.6091232
  21.6670284  12.4956045  56.0796585  21.1910439  12.8670216  54.6916847
  63.1973877  64.9018097  22.6827335  63.9375305  65.2725983  23.1632957
  63.2840118  63.9560280  22.8019848  13.3176794   0.1236454  44.2696609
  13.6949797   0.4416745  43.4494553  14.0651760   0.0443129  44.8622704
  40.5264931  59.2603264  16.7794838  40.3400040  58.4270363  17.2120094
  40.1862297  59.9233856  17.3801517  40.8594093  61.8210983  67.5788803
  40.5395508  62.7134056  67.7119522  40.4228821  61.3064537  68.2577209
  81.5687866  24.2416668  36.1512375  80.6164093  24.2220745  36.2452087
  81.8071442  25.1537075  36.3173637  44.5387268  48.1822357  40.9929085
  45.0389633  47.6086655  40.4123764  43.6266060  48.0457611  40.7366982
  33.0144348  64.8272705  26.6786957  33.0744896  64.3042831  25.8792534
  32.2008705  64.5393143  27.0927334  42.6912727  17.9624767  65.8467865
  41.7373238  18.0220394  65.7951736  43.0055389  18.7230034  65.3578415
  17.5459385  66.0431442  79.6009064  18.2294941  66.3490372  79.0047379
  16.8912506  65.6422806  79.0291367  12.8716898   8.0790415   8.7932482
  12.6703930   8.4762888   7.9459558  12.0341702   8.0656176   9.2565098
   4.8181181  19.4200497   6.7968016   4.1493807  19.7084770   6.1756482
   4.9711986  18.5016594   6.5746346  70.5746155  64.7722626  72.9624176
  69.6902771  65.0330963  72.7052231  71.1101151  65.5488892  72.8001633
  84.2895279  64.0653610  81.4245758  83.9583969  64.8484879  80.9849319
  84.8191986  63.6238594  80.7606812  35.6348381  18.2204876  15.5013037
  36.3098145  18.6521111  16.0250797  36.0515633  17.4176769  15.1881437
  75.0901260  49.4521599  40.6093674  75.7770920  49.2064171  39.9897537
  74.2734070  49.2335205  40.1605911  69.2469864  35.6843033  15.6500082
  69.2988281  35.4583321  14.7213097  68.3443756  35.9773140  15.7751942
  12.9899740   7.5661492  26.7014256  13.5283880   7.3382192  25.9435387
  13.0942602   6.8268065  27.3003654  59.6890640  65.9531479  58.2241936
  59.0014420  66.6189194  58.2367630  59.9619560  65.8733902  59.1381950
  80.4011002  12.1053724  83.0352020  80.0478363  12.5781956  83.7887726
  80.6826553  12.7928534  82.4316025  85.6351929  25.8425694  51.1650391
  86.3603210  25.4214783  51.6266670  85.9910965  26.0536766  50.3019104
  55.7226486  58.0181885  61.8222542  54.7784424  58.0327301  61.6657562
  55.9341927  58.9113312  62.0938797  20.0035152  63.8556938  14.0910196
  20.4981632  64.2144928  13.3542576  19.0925713  64.0782776  13.8989983
   2.6823134   5.4258647  17.1215115   3.0280442   4.8476982  16.4414921
   1.8885428   4.9873657  17.4279079  81.3187561  65.8489685  51.6188927
  82.1736526  66.2775879  51.5780525  80.7043839  66.5088501  51.2974281
  72.0315475  24.6280270   2.3866928  72.4019775  25.5095444   2.4307306
  72.7340088  24.0572109   2.6980639  65.8715439  46.8797684  32.0872688
  64.9946060  46.7387695  31.7304440  66.2347488  47.5890160  31.5569019
  82.5707321   6.4664173   4.2625985  82.1913910   7.3153896   4.0354800
  83.4437485   6.6753469   4.5948915  33.0567551  15.4649706  18.3449764
  33.1115952  15.6553984  19.2814388  33.5799294  14.6715612  18.2308617
   1.6518915  70.6484604  28.0171623   2.2321873  70.4681931  28.7567520
   0.9452448  71.1755295  28.3900967  48.9395142  70.8030243  85.6921005
  48.6549301  71.7162094  85.6554108  49.5429764  70.7104187  84.9548874
  10.1138659  44.0608482  77.0289917  10.3930664  44.4919243  77.8367386
   9.5906229  43.3155060  77.3237991  10.1462660   1.0467428   3.4833395
   9.5297976   1.6623610   3.8798416   9.6310186   0.2537607   3.3352461
  55.7769852  66.7849655   4.6861105  56.2695770  67.2711563   5.3473263
  55.1050491  66.3183212   5.1830816  61.9359436  70.9445724  58.7931061
  61.1172295  71.0726624  59.2721977  62.4922256  71.6724319  59.0705910
  40.6886482  49.5489960  36.0549698  40.6056442  50.1976395  36.7539711
  41.6231232  49.3433113  36.0288200  75.5854568  59.8781166   1.1463445
  75.1136703  59.6730156   0.3391398  76.3999786  60.2849503   0.8509244
  24.4413242  41.3367271  78.7350922  24.8998890  40.6434402  78.2604370
  23.5705872  40.9764328  78.9031296  39.0481071  41.4568062  65.1838074
  39.1907959  42.2566147  65.6899490  39.3033524  40.7496796  65.7762985
  85.1794128  40.6668701  17.0505238  84.6617813  40.0621605  17.5821400
  84.5439072  41.3051453  16.7265244  79.6682510  17.0275688  63.5115547
  79.7844315  17.9554482  63.7159462  78.7682877  16.8351917  63.7747841
  44.8453903  18.2547894  43.6162186  45.3099670  18.9530888  43.1549416
  44.4487610  18.6891747  44.3713531  25.3238125  57.6010590  29.0290604
  24.5057545  58.0867043  29.1347065  25.1064892  56.7061348  29.2900505
  51.2628288   9.1607695  83.2760391  51.8601570   9.3463116  84.0006104
  51.2434196   8.2053919  83.2202759  74.2318420  64.4550629  13.3033361
  73.3950272  64.9049530  13.4198437  74.2477951  64.2150726  12.3768463
  38.4794922  46.1836472  20.2481823  38.2543259  47.0922585  20.0482979
  39.4327164  46.1498718  20.1678257  59.6913986  51.3355942  70.7415466
  60.2664299  51.1808014  69.9921341  59.4783020  52.2674255  70.6914825
  73.5589294   1.4006711  12.0328798  73.9159470   1.9710563  11.3521204
  72.8755798   0.8976911  11.5898485  19.1028595  66.7777863  19.7756653
  19.1412849  66.4403229  20.6705799  18.8324604  66.0264893  19.2477818
  85.2158890   4.2599249  52.6659546  84.6506653   4.3721385  53.4302559
  85.7830887   3.5232449  52.8936081  47.5350609  28.2943172  83.4015045
  47.5769730  29.1496735  82.9739075  47.0822029  27.7335968  82.7716293
  61.1522179  46.8745918  82.1399231  60.8782272  46.5131950  82.9828644
  60.9565392  47.8093071  82.2050858  35.7393913  23.7527657  69.4064636
  36.0560265  22.8571758  69.5243225  34.9863205  23.8197613  69.9935150
  77.1112289  25.4433689  68.4079132  78.0000839  25.3389950  68.0683899
  76.6658401  25.9799423  67.7522049  75.8090210  60.1119614  17.8209591
  76.5373459  60.5822830  17.4152851  75.1018906  60.1649742  17.1780090
  55.0579720  24.5481110  12.8436708  55.5838737  25.2634563  12.4859838
  54.8999939  23.9704056  12.0969906  19.7954865  50.3264503  41.0625000
  19.5267944  50.2656136  41.9791985  18.9994965  50.1353264  40.5664101
  47.9479218  36.7523880  19.8601780  48.4438744  36.7533989  20.6788731
  47.9634399  35.8397713  19.5718689  52.1956596  36.1360817  57.5816574
  51.4421196  35.6765099  57.9520683  52.7076874  36.4089928  58.3429565
  76.6448822  38.0571823  16.6150188  76.9912796  37.1654625  16.5821743
  76.7436752  38.3189430  17.5304165   6.7376766  59.9862671  50.6247978
   6.9465313  59.4515991  49.8588104   6.8758550  59.4015312  51.3699303
  68.6376724  16.5023918  55.0095024  67.8609238  16.6536522  55.5480270
  69.0697327  15.7521038  55.4177055  23.5000381  70.7561340  55.6419563
  23.2046680  71.5396805  56.1056824  24.3712883  70.9839706  55.3175430
   8.2105694  55.3273582  61.0172310   8.1653290  56.2742805  60.8848648
   7.8417702  54.9556236  60.2159653  25.2874184   0.3888055  82.6527023
  26.1239853   0.5448025  83.0909424  25.4197712  -0.4251023  82.1666260
  29.9024506  21.5237446  79.4014359  30.0309696  21.0931587  78.5562668
  29.0240211  21.9001369  79.3473587  20.5447750  10.5540037   9.4970007
  21.0127773  10.7848387   8.6945543  20.1081638   9.7276297   9.2903433
  56.2278519  29.6613674  83.4419022  55.4035606  29.8740425  83.0042419
  55.9658813  29.1693363  84.2200470  23.9063644  65.3483200  37.9942169
  23.9779682  64.4122849  38.1811562  22.9690018  65.4965973  37.8693314
  60.0592728  34.2503815  52.7404900  60.0044861  34.2150230  51.7855148
  59.5288467  35.0094147  52.9828835  29.2276001  13.9567537   5.9905529
  29.7758999  13.2900867   6.4042616  28.9413910  14.5142536   6.7140927
  82.9775162  44.7830315  57.3702354  83.0622025  44.1377182  58.0721130
  83.8064346  45.2615280  57.3835144  23.6769543  15.6234789  14.7792273
  24.1446915  15.7661028  13.9563599  24.2588577  15.0618372  15.2912607
  41.8177223  65.4062958  58.1371460  41.3810539  64.9434509  58.8522148
  42.5348587  65.8785477  58.5601387  64.6932220  29.4949284  87.6616821
  65.4628372  29.9015522  88.0599060  64.6594315  29.8607025  86.7777710
  86.2763519  23.7577744  19.9263420  86.7358322  22.9250298  19.8184357
  85.8050690  23.6657448  20.7543869  45.6881371  40.2952232  13.2157621
  45.7796097  40.1260605  14.1534452  45.7777290  39.4342461  12.8072004
  41.9192085  62.5914421  61.1961327  41.1859512  63.0949020  60.8424530
  42.4092636  63.2211914  61.7248039  43.4953918  42.3607216  29.2240715
  43.9295044  41.6198540  29.6470318  43.7408638  43.1176910  29.7560196
  49.4491653  30.0096989  45.0497780  48.6692657  29.8007202  44.5356636
  49.4506073  29.3636913  45.7561111  72.0065689  25.6607361   6.2850389
  71.6981659  26.4831047   6.6656008  71.2064514  25.1877708   6.0562434
  54.9136162  48.5185242  10.7490273  54.3874245  47.7588005  10.4996796
  55.1422005  48.9347496   9.9179201  63.8922806  43.9772453  59.4941711
  63.7755814  43.2272873  58.9109230  64.7576065  44.3209724  59.2721329
  35.3257027  40.7076683  83.3698883  35.8833008  40.2960167  82.7096863
  34.4770775  40.8071060  82.9384003  30.8975906   1.5346564   1.3334247
  31.6619930   1.5888388   1.9069977  31.1249695   0.8591476   0.6945043
  57.8992691  70.5292282  77.3549423  57.5205002  71.3159866  77.7470779
  57.1429482  70.0064011  77.0887299  57.6224442  62.5711136  18.4724655
  56.9300499  63.1408424  18.8074722  58.0181656  62.1890144  19.2558155
  11.3197279  38.6508026  66.1528244  11.8643560  38.6395645  66.9399033
  10.4475975  38.8875084  66.4684067  66.2874298  39.4411201  35.0081444
  66.7684860  38.8853607  34.3950005  65.7137222  38.8370323  35.4794960
  28.2264347  61.1821976  65.0633011  28.5099964  61.8294525  65.7089615
  28.9053402  60.5078087  65.0861130  81.4433365  52.5165176  84.8559113
  82.3211594  52.3160133  84.5311737  81.5922546  52.9560165  85.6931000
  10.2278624  61.4776802  13.1708860   9.8233891  60.7167854  13.5876255
  10.0396862  62.2043304  13.7648563  68.4565506  35.8128586  22.5613956
  68.6022568  36.2868690  21.7426682  68.5701218  34.8914757  22.3281822
  53.2266502  18.7800484  22.3759499  54.1275902  18.4567871  22.3696594
  53.0717545  19.0398903  23.2840919   6.8148637  57.4662247  52.0434189
   6.7026682  57.6528625  52.9755211   5.9286156  57.2943993  51.7251854
  46.0626984  20.6515141  63.9553337  46.8156166  21.0877934  64.3540878
  46.1661530  19.7301178  64.1931534  34.7547150  39.0323563  16.2534733
  35.5230293  39.5997238  16.1900272  34.0098877  39.6269836  16.1646900
   6.3874640  57.6440315  25.3363953   6.5920000  58.5703430  25.2085495
   6.4201779  57.5202293  26.2849903  69.5489731  45.6144676   4.2297831
  68.8284607  46.2400093   4.3059330  70.0725174  45.7549591   5.0187020
  78.5922699  69.6944885  58.4040756  78.2061539  69.9354477  57.5620079
  78.5932999  68.7372894  58.4019585  83.2597046  16.7419815  44.5830727
  82.3502426  16.8056526  44.2914162  83.1983414  16.5141678  45.5107422
  16.5332355  52.0046272  16.4794540  16.1194134  52.4911690  15.7665291
  16.3377590  52.5168648  17.2640781  34.1755791  39.8338547  41.2692566
  34.9327888  39.9099197  40.6886673  33.5025749  39.4163475  40.7316856
  49.6767998  35.3059654  15.0300665  49.4767113  36.2412949  14.9932528
  50.4431343  35.2472458  15.6006041  11.7007465  57.9095078  35.7308922
  12.1438389  57.6446648  34.9248123  10.9927406  58.4830780  35.4376717
  38.8044624  66.5731964  59.8061256  38.1488495  67.1692123  60.1683044
  38.4440346  66.3058472  58.9606400   5.1059537  46.0388832   6.2879601
   4.5085640  46.5686531   5.7600360   4.5314283  45.4855347   6.8170676
  42.6496696  62.8079720  83.2983627  41.9311333  63.1522522  83.8288422
  42.3919220  62.9949989  82.3956909  44.3545113  66.0907059   1.3331947
  44.2007980  66.4486008   2.2075613  43.7762146  66.5965424   0.7622834
  21.7152348   0.3896141   1.5229607  21.1535797  -0.0254759   0.8683799
  21.6439514   1.3265069   1.3402518   3.8724041  44.7109680  17.8051815
   2.9761391  44.3773766  17.8458881   3.7973895  45.6307678  18.0592957
  50.6622772   9.3657141   5.2227235  51.0569878   8.9672518   4.4470534
  50.9050522  10.2899389   5.1670532  39.1990967  10.2365570  17.5984154
  39.5318604  10.1110468  16.7097359  39.9791412  10.2083416  18.1524620
  27.2836056   6.6563129  70.9645081  26.7852402   5.8713684  70.7370682
  28.1866760   6.3504877  71.0491791  54.9745636  40.9967880  69.7351379
  55.5008888  40.4744911  69.1298141  55.4200630  41.8432388  69.7708893
  54.5634308  44.4623566  75.8041687  54.6027679  45.4084015  75.6638565
  53.9900246  44.3564491  76.5632629  24.5402470  24.8658867   0.2734756
  25.2674389  24.7972450   0.8921124  24.4602013  25.8040237   0.1010696
  67.0634308   7.4414411  71.2270584  66.6419601   7.3893766  72.0848999
  66.7143402   6.6931467  70.7428818   4.9690108   1.2024149  24.1580772
   4.1245756   1.5058397  24.4913845   4.7616544   0.4050679  23.6707649
  16.8204174  65.1238174  35.7121735  16.4654636  64.2518005  35.8848991
  17.2375832  65.0469513  34.8540955   7.2528224  14.2502317  24.5860996
   7.2594557  15.1489229  24.9155540   8.1166897  13.9057302  24.8125610
  79.0584564  24.9268303  17.9253006  78.1133804  25.0119228  17.7995129
  79.2533340  25.4967499  18.6692390  28.2290401  56.0493774  75.3383636
  27.8221302  55.6426926  74.5733414  27.9081879  56.9511528  75.3293228
  44.4776726   7.1954389  50.1179810  45.3745804   6.8646750  50.0691795
  44.4212036   7.8395729  49.4121933  60.3339882  15.7790403   8.7943869
  59.9044380  16.6113987   8.5971613  59.6258163  15.1351728   8.7818460
  84.1958008  10.2174091  67.4486313  83.8166733  10.5352144  66.6291885
  85.1248932  10.4385033  67.3843002  60.6459579  65.4438705  65.5557175
  60.3971024  64.5944290  65.9200745  59.8168068  65.8448868  65.2950897
  47.3259811  32.3432693  24.1458549  47.7890549  32.5710678  23.3396873
  46.9332657  31.4896126  23.9634399  26.9921284  60.0783081  13.5453672
  26.7413349  60.9183235  13.1610365  27.8532467  59.8914223  13.1714964
  78.1105652  61.1981201  63.3027344  78.1933746  60.8368721  62.4201965
  78.4673996  60.5182457  63.8742828  21.8244839  50.3285484  13.4533949
  22.5819130  50.8788910  13.6525259  21.1040382  50.9471359  13.3328152
  55.6785355  36.1879883  26.5695648  55.9550476  35.9554062  25.6831799
  55.4470711  37.1150436  26.5127506  83.2051086  13.6334181  67.7015610
  83.8277588  13.0350485  67.2886581  82.3527832  13.2162380  67.5760803
  76.1460190  12.9766331  30.8322830  75.9425735  13.4981022  31.6087589
  77.0235062  12.6321220  30.9983025  60.5251961  35.8690948  68.9896088
  60.8416786  36.1103668  69.8601608  60.8248749  36.5782166  68.4207764
  48.7820320   2.8254075  64.8657455  48.2326508   2.1096287  64.5462570
  48.7791061   3.4655802  64.1541214  17.0831451  11.9691381  32.9083099
  16.4646053  11.6218176  32.2656517  17.8124046  12.3003283  32.3841667
  81.1951294  61.7800827  60.5350151  81.6474075  61.5707703  59.7177849
  81.4348373  61.0697327  61.1301422  23.3590412  45.0088272  27.5329018
  23.2362175  44.5269966  26.7149868  23.9497490  44.4594421  28.0481377
  81.9312820  50.2542152   6.9128051  81.6367416  50.8314972   6.2083731
  82.8475113  50.0709801   6.7050009  61.2688332  53.0961266  87.2559128
  60.8485146  53.4188347  86.4587784  61.9029694  53.7757912  87.4842987
  46.3349838  29.5825920  70.0560455  46.4646645  29.1846428  70.9168930
  45.3917770  29.7368164  70.0031052  42.1081734  60.6706238  74.9684601
  42.2449265  61.6019096  74.7945862  41.7467079  60.6429291  75.8543549
  64.1229858  24.0121956  61.3739014  63.4356422  23.9830322  60.7083664
  64.0254974  24.8728466  61.7813454  32.3074532  52.5074081  44.8165016
  32.7336998  51.7653122  44.3877411  32.8333778  52.6654510  45.6005058
  10.6238661  67.7245102  82.0085602  10.5980883  68.0063095  82.9229736
  10.8970470  68.5042572  81.5252457  81.5388565  36.6103020  42.7096672
  81.9152298  37.0219154  41.9317551  82.2915573  36.4285202  43.2723694
  15.2798147  39.7605820  31.6236801  14.7272987  39.3963470  30.9320946
  15.7927103  40.4407654  31.1871929  20.0383110  30.3956852  80.8792419
  19.2230377  30.8826656  80.9992981  20.5698795  30.6270447  81.6409073
  27.5861492  20.9855080  20.5249043  26.9657860  20.2614136  20.4408321
  27.7829113  21.0248833  21.4608345  31.2009411  42.4106026  10.3390293
  31.3242931  41.5084572  10.0438194  31.6014881  42.9441109   9.6526184
  35.5771217   5.3503599  68.4155731  35.0467262   5.7059069  67.7024841
  35.2566376   5.7979569  69.1986313  45.7166634   7.6544495   0.2995539
  45.6464233   7.9847178  -0.5961139  46.3424301   8.2420282   0.7231101
  67.6362228  59.4707069  64.6221085  67.5718918  60.3389053  65.0200195
  67.8627701  58.8903656  65.3488235  12.0621853  32.4290886  12.4403238
  12.6397800  31.6739330  12.5514946  11.4967785  32.4139023  13.2125387
  74.4806824  65.2302704  10.3693953  75.3592987  64.8871918  10.2064276
  74.4041595  65.9817886   9.7815151  16.3916931  34.7361259  86.3530426
  15.7527790  35.4422722  86.2561951  16.9271584  34.7873611  85.5612793
   6.4654765  49.8079300  68.8489838   7.0790386  50.2245522  69.4541245
   6.9896717  49.6145592  68.0717697  58.4497604  16.1179352  80.7573776
  58.5249901  16.8979282  80.2076645  57.7571754  15.6008902  80.3460083
  86.0306702  39.6684303   2.5621998  85.1960297  39.8959961   2.1525345
  86.6729736  40.2257805   2.1228297  30.2937794  29.6389580  77.5131454
  29.5918503  29.8127766  78.1402893  30.8635445  29.0122089  77.9589996
  78.1660309  62.4405975  83.0842743  77.6789627  62.9804840  82.4617691
  78.8808289  62.0667000  82.5690155  25.6958427  44.5948448  80.1860580
  24.9431744  44.0521393  80.4209824  26.1075745  44.8086891  81.0233078
  65.7726135  26.9252319  87.6821976  66.7061310  26.8835602  87.4747314
  65.5894012  27.8601322  87.7750778  76.4648819  47.1530838   9.2419357
  76.5180511  46.2044563   9.1256943  75.8839340  47.2700882   9.9936275
  25.2439671  68.6120377  64.5410614  25.6343479  67.7431335  64.6350555
  25.6214294  69.1229324  65.2571259  15.5567722  20.1855831  79.7341690
  14.7575397  19.6726055  79.8538055  15.5049181  20.5030289  78.8326263
  61.9070663  51.1420593  55.7921524  61.3388596  50.5866508  56.3259087
  61.3060722  51.6223793  55.2226486  49.5015488  63.8672600  25.5204754
  50.1197548  63.8731270  24.7897091  49.0089302  63.0538979  25.4109306
  20.6173687  68.9810638  83.5576935  19.9935093  69.7024994  83.6387024
  20.3819103  68.5520325  82.7350616  22.8930950  63.5133476  23.4454060
  23.4373970  63.9385376  22.7826996  22.8103867  62.6089020  23.1431293
   3.6025620  11.7799034  23.6072006   3.7352393  12.6842289  23.8914948
   3.8424058  11.7825136  22.6805401  24.2635422  63.5334244  71.3853455
  24.6773853  64.0356674  72.0872803  24.9761600  63.0182228  71.0072250
  38.1877022  31.7368660  76.4920578  37.7196159  31.8759117  77.3153458
  38.5415077  32.5979347  76.2693253  23.6828613  59.4088631  31.6850185
  23.7383499  59.5718613  32.6266060  23.3239326  60.2187805  31.3224812
  68.4645767  52.6811371  42.5979385  68.8191605  52.7423668  41.7109489
  67.9280701  51.8884964  42.5872192  17.7671413  56.8639679  41.0197144
  17.4239769  57.4753571  40.3680496  17.0728188  56.7980537  41.6753082
   6.0673461  45.4049835  47.3428459   6.8981662  44.9570694  47.1836548
   6.0209479  46.0736313  46.6594772  72.8859558  30.2582302  41.0788116
  73.3648224  30.7608147  40.4197769  73.3873444  29.4483585  41.1733894
  12.6330910  63.1679649  35.2760124  12.1233139  63.9757805  35.2144012
  12.7578793  63.0345764  36.2156258  73.9944458  42.1109390  26.2892780
  74.1605225  43.0419731  26.1415501  74.7358551  41.8163757  26.8182201
  48.0716248  31.5871544  19.7229691  48.3182755  32.0180321  20.5413456
  47.1556511  31.3396111  19.8492260  47.5816956   4.1840992   4.1726723
  47.7137260   3.2607872   3.9575117  48.2848015   4.3893428   4.7889104
   5.0046687  35.4912491  26.4244518   4.3799467  36.1984825  26.5850029
   4.8029637  34.8370399  27.0934486   6.1031785   8.2771988  69.8983383
   6.0444074   9.1861877  70.1924820   5.9711199   7.7594543  70.6925278
  75.5180511  62.5141716   5.0840373  75.7691116  62.6143456   6.0022788
  76.3438950  62.5662498   4.6028876  69.0684128  46.4585571  36.0967636
  68.1567154  46.5066566  35.8091545  69.0165634  46.1844330  37.0124054
  32.2272682  69.2683716  15.4962444  32.3194580  69.9367218  14.8172426
  32.3518448  69.7430725  16.3180542   8.6301374  19.4720764  76.1871796
   8.2256565  18.7342339  75.7308731   9.5667944  19.3757839  76.0150299
  83.3103561  19.6164970  87.1881561  83.2660751  18.7590637  86.7649765
  82.9885025  20.2275848  86.5254211  49.8430290  15.4139395  63.1856995
  49.4233017  16.2265224  63.4681358  49.1278992  14.7796135  63.1362076
  55.5818710  69.2703094  70.8766861  54.7080498  69.3015366  71.2661667
  55.4521751  69.5605240  69.9738083  64.2776337  25.8588371  77.4957123
  63.7250557  25.1085949  77.7148590  64.2899933  25.8757877  76.5387421
  83.7472000  64.1901169  10.9480200  83.0274124  63.7281914  11.3778543
  83.7193069  65.0730057  11.3167496  72.9094009  35.3796539  44.2381859
  73.6064529  35.8903008  44.6499939  73.3553619  34.6140518  43.8759575
  76.7027435  19.5572968  31.5769482  76.7473373  18.7906609  32.1483612
  76.4360580  19.2072468  30.7269020  50.3529472  46.7139244  20.4516563
  50.7990417  47.1871834  19.7493343  49.4221992  46.8020782  20.2463055
   9.1571026  70.7677460  64.2202072   8.9145117  71.6785278  64.3870850
   8.3220530  70.3158035  64.0990829  80.2344666  61.6029510  79.1409378
  80.8999939  61.9976540  78.5774612  80.6665192  61.5049095  79.9894333
  63.3377113  66.1275253  65.8103867  62.5587692  65.9965286  65.2697144
  64.0587158  66.1799088  65.1829758  11.2138615  56.5571594  23.0667133
  10.6324100  56.9250031  23.7321720  12.0881891  56.8489571  23.3248539
  29.8249073  56.9074516  48.3263283  30.2957783  57.7396011  48.2811546
  30.4326763  56.3118324  48.7646027  34.0844002  57.6710510  21.5099659
  34.0458374  58.3380089  20.8244686  33.2458038  57.7467308  21.9652233
  42.6473503  51.4823875  84.5286407  41.9114227  52.0153923  84.2277298
  43.1520729  52.0678596  85.0931854  56.9914131  44.6122665   9.8814211
  56.9330292  43.6688080  10.0321112  56.8267441  45.0025558  10.7397852
  71.5454865  67.7315216  53.1111984  71.2826767  67.0346069  53.7124214
  72.4452896  67.5123825  52.8691864  18.5281181  58.6908455  26.2449207
  18.1785336  59.4645576  26.6869488  18.4683514  57.9941101  26.8985424
  33.6987457  11.9514914  23.0734882  33.6814346  12.8410740  22.7205372
  33.6837234  12.0702791  24.0231705  60.6619186  62.1508102  71.1642609
  61.3504982  62.5573120  71.6904221  60.4818954  62.7873077  70.4723816
   4.5252485  24.3767929  53.0704117   4.3947501  25.1339836  53.6412582
   5.1728263  24.6691723  52.4290161  26.2041817  43.4475784  60.4703712
  26.7306347  43.8416710  59.7748375  25.3031921  43.6877365  60.2541008
  58.5647011  12.9945564  16.3053989  58.8435135  12.2502937  16.8388462
  59.3752174  13.4627972  16.1052876  27.3504658  63.2482338  77.4452667
  27.1325626  63.8692894  78.1402740  28.3006840  63.1481590  77.5027466
  17.1284237   1.3299115  69.7120361  16.3271084   1.6136509  69.2720184
  16.9316959   0.4455911  70.0210800  41.3417435  29.4804420  71.5618744
  40.5806923  30.0604439  71.5869675  40.9770164  28.6019554  71.6689606
  51.2081032  22.4854584  39.9230995  51.4498825  23.3952065  40.0966797
  50.2598419  22.4610100  40.0513000  74.3800964  12.4040470  57.8709183
  74.1130905  12.0915813  57.0064507  73.6166687  12.8781347  58.2005539
  81.5262833  55.8406639  42.7246819  81.0262375  56.2332077  42.0090752
  82.1694794  55.2815361  42.2888985  69.7779846  21.2659836  70.1086960
  70.3354950  20.4995384  70.2427826  70.3084183  22.0036354  70.4099426
  81.2036362  20.1617775  32.3369675  81.5450592  19.5820446  33.0178299
  80.6985397  19.5857830  31.7630882  61.0571251  22.5862980  14.1257820
  61.4779739  21.9018326  13.6055660  61.0568123  23.3547821  13.5551128
  71.8618317  61.6345253  48.2951164  71.0997467  61.7151947  47.7215729
  72.5995178  61.5124779  47.6974907  21.7504253  46.1357079  59.6353645
  21.8957405  47.0779915  59.5504303  21.1118679  46.0547371  60.3438301
  14.8301516  66.5082016  37.0726318  15.6302366  66.0556870  36.8055649
  15.0593853  67.4371033  37.0438881  78.5348129  22.5603008  44.2907982
  77.6271667  22.5700703  43.9869614  78.5779419  21.8171921  44.8925972
  66.7751007   2.8545310  66.4078903  67.1832657   2.0582683  66.7478943
  66.8999557   2.8018403  65.4603271  22.2770786  25.9604053  13.9380417
  22.5906982  26.0156097  13.0353642  21.7293682  26.7375011  14.0492525
  46.4921341  50.1436195  14.9816999  46.6360741  50.4206390  14.0768375
  46.8824730  49.2709618  15.0299978  43.3826408  39.2997818  21.2629776
  43.4736671  39.1608200  22.2056522  44.2743187  39.2260933  20.9228115
  30.1127644  28.4303989  69.2678680  30.5333405  29.1515350  69.7361755
  30.2807903  27.6610832  69.8120651  83.2589874  44.6272430  21.0856743
  83.0954285  45.0001030  20.2193851  82.7667770  43.8063049  21.0899143
  54.6909027  24.8511600  82.8098984  54.1309967  25.5518589  83.1442032
  55.5052338  25.2911015  82.5658722   1.8906798  64.6377029  17.3843060
   2.4083407  65.1965027  17.9639606   0.9860560  64.7726440  17.6665783
  81.4429398  48.6165276  17.0169182  81.1917953  49.4136086  16.5502110
  81.3519058  48.8422585  17.9426556  19.9220219  57.5495338  14.3571806
  19.2148800  57.6871643  14.9874496  20.3647594  58.3965950  14.3051958
  43.4806938  52.7852058  87.0788040  42.5365791  52.8037300  86.9221497
  43.8052330  53.5935440  86.6819458  12.5658789  69.8978653  65.6256790
  11.9543171  69.9791107  66.3575363  12.7423620  68.9590912  65.5641098
  14.9255486  27.6336536   9.5479746  14.0258560  27.6657219   9.8731775
  14.9638233  28.3194103   8.8812637  17.1983318  68.8769531  65.6348953
  16.5829582  69.5966568  65.7748108  16.8511143  68.4091797  64.8753815
  68.0370483  36.9252014  86.7096329  67.3633499  37.3689461  86.1944046
  68.6311722  37.6251030  86.9805450  28.3979340   7.7876034  68.6271973
  28.2080250   7.6149812  69.5493469  28.3591499   8.7408180  68.5490341
  62.1609802  48.5325775  28.8286343  62.4131279  48.8284721  29.7033348
  61.9614105  49.3380737  28.3515797  46.2331009  46.1853981  10.2606506
  45.4959526  45.8417854   9.7558985  46.7500572  46.6789169   9.6239195
  44.9535904  58.6168518  39.6135635  44.6676750  57.9335823  40.2198830
  45.8935623  58.4679947  39.5109444  58.5819511  62.7209969   5.6110640
  58.7712746  62.2686462   4.7890129  59.2146225  63.4386826   5.6407423
   0.7487158  48.0664864  15.7467051   1.4841460  48.6362457  15.9719820
   0.1449900  48.6332283  15.2665482  71.6710052   9.0554724  18.5550842
  72.4851990   9.3102045  18.1209946  71.0304337   9.7035704  18.2620564
  83.6837158  38.5698547  47.8627968  83.5878448  38.4734497  46.9153023
  83.2245789  37.8135948  48.2281647  32.4995689   7.0962739  19.3270206
  31.8889389   7.5409207  18.7390995  33.0563393   7.7962213  19.6680679
  62.9670372  66.8232422  28.2915363  62.4087791  66.9097824  27.5188179
  63.8400803  67.0682220  27.9849243  68.8751068  11.7508841  16.1124344
  68.5800018  11.4239225  16.9622822  69.2201157  12.6241550  16.2984447
  63.4296036  69.8798065  44.0816116  63.4565239  70.7090149  44.5590248
  63.9575005  70.0369110  43.2987518  59.6275368  31.2105045  82.7767868
  59.8754158  31.2424850  81.8527908  60.4342880  31.4175625  83.2484970
  19.6337070  34.6928368  76.4903793  19.7476177  34.0193024  75.8198471
  18.8101406  34.4646797  76.9215546  27.0648232  37.2416763  75.5097427
  26.6862488  37.8738365  74.8987732  27.7591820  36.8120537  75.0102234
  67.5173492  66.4435577  26.4417248  67.6680756  65.7321548  27.0641594
  68.2693863  66.4079666  25.8506145  34.4984894  33.7432671  44.3875046
  34.9323807  33.1527100  45.0033035  34.3140411  33.1982803  43.6225204
   1.8756398  70.4593048  60.3681602   1.4727489  69.5920486  60.3259277
   2.8161552  70.2849884  60.4038963  22.6092968  47.6195984  74.9827499
  22.4560833  47.0779037  75.7569122  23.4463825  48.0510330  75.1541595
  67.2813339   8.6317129  28.9063835  67.1867065   9.1618834  29.6977100
  66.4221191   8.2278328  28.7845097  60.8366356  56.9519844   7.8616290
  60.1093292  57.5736961   7.8887429  60.5552673  56.2295876   8.4230642
  65.1543427  42.7934570  39.4184532  65.9916382  43.2532806  39.4794579
  65.1815796  42.3583260  38.5663109  53.6704750  25.1685486  49.9318581
  52.9599609  25.3592091  49.3194427  54.0923805  24.3876019  49.5735970
  10.1152439  54.5539703  34.4922752  10.5835571  55.1820755  35.0421829
  10.4171228  53.6979256  34.7960587  67.4591675  53.6082687  65.0894547
  67.0290222  52.7679291  65.2476959  67.6031265  53.6292458  64.1433716
  52.0724068  52.7782860  71.4115067  51.3423080  52.1858177  71.2321548
  52.6111145  52.3086357  72.0482635  20.3868866  41.4863930  42.0481339
  20.0250454  41.4118271  42.9311638  19.9006538  40.8412018  41.5347786
  42.8529778   8.4082565  82.8539581  43.3882103   7.6147599  82.8431015
  42.8652077   8.6929274  83.7677689  81.8627167  54.6577721   6.1614819
  82.0979996  55.4369965   6.6651530  81.4158936  54.9991646   5.3868651
  20.1709480  35.4934387   2.6604161  19.2201538  35.4117622   2.5859094
  20.3019104  36.2190475   3.2708027  35.6291962  58.0831680  82.6735229
  36.1895332  58.7446899  83.0792770  35.0773163  58.5763702  82.0665512
  59.4723511  30.0504951  20.3824043  60.2190704  29.4569950  20.3024101
  59.1472168  29.9078999  21.2713280   7.7748942  38.7203331  37.9184608
   7.2078581  38.0339584  37.5669060   8.5284815  38.7340050  37.3284187
  86.5618973  31.7801323  41.3293686  86.3833618  32.4348373  40.6542969
  86.0914536  30.9996662  41.0364799  74.9581833  33.4332504  19.5599823
  74.5318527  34.1791840  19.1380138  75.8698730  33.4845695  19.2728958
  17.3980484  45.8244629  69.1544266  18.0451202  45.4556618  68.5531616
  17.9188557  46.2634506  69.8269424  81.8293304  25.9297962  16.9863052
  82.3037949  25.5797768  16.2322483  81.1527939  25.2773418  17.1675091
  73.1669235  19.6909561  79.6802368  72.3030014  19.2832508  79.7407379
  73.2157135  20.0165043  78.7814255  50.4567146  21.3138409  44.2201538
  51.2173119  21.8319798  43.9569778  50.8130608  20.6456699  44.8056450
  74.5048904  17.0798302  66.3729706  74.9065399  17.0730782  67.2417984
  73.6254883  16.7287045  66.5129089   3.4327745  15.9353437  11.4224119
   4.3460479  15.7467613  11.6382828   3.0602329  15.0840416  11.1927853
  35.8744049  39.5131187  78.8318405  36.7168350  39.2554665  79.2062149
  35.7743187  38.9550629  78.0606155  47.0047150   5.9712081  62.2123604
  46.9430733   6.7134886  61.6111526  46.6598930   6.3046298  63.0407066
  79.6540070   3.2040842  34.6009750  79.3088455   4.0943513  34.5337677
  79.3548737   2.7702630  33.8018837  54.9128914   9.0799160  12.5381060
  54.5690155   9.0659752  11.6449165  54.2017899   9.4476728  13.0628147
  56.7347221  69.1883698  40.2143478  57.3242111  68.5353012  39.8372040
  57.3047752  69.7517624  40.7376595  62.4257851  21.1633739  11.8957596
  61.5590286  20.8679066  11.6170683  62.9674034  20.3745613  11.8702049
  76.1650391  33.2529335  80.8440094  75.4952011  32.5967216  80.6518097
  75.7425156  34.0899811  80.6515045   0.8034094   8.7227602  64.3715744
   0.8123704   8.0387325  63.7020569  -0.0279544   9.1779318  64.2378387
  -0.0800081  62.6593628  55.4082642   0.1990586  61.9624290  54.8144302
   0.4630865  62.5417023  56.1876450  48.5323486  55.2785149  72.0437546
  48.7343178  54.5177841  71.4990311  48.6954842  56.0306892  71.4746780
  54.0637016  37.5367622  20.8494987  53.6030693  36.8961067  21.3913536
  54.4168587  38.1695900  21.4748306  34.2792969  66.5429459   6.2851624
  34.8490562  65.9263687   5.8253336  34.8322906  66.9123306   6.9736266
  46.0099335  18.9390602  61.4576416  45.5778236  18.1608562  61.8096504
  45.6769257  19.6601849  61.9917908  34.4683113   9.5767279  78.8200989
  34.9023514   9.3063707  79.6292648  33.8895760  10.2913017  79.0859604
  16.1684036  57.1561623   3.5901468  16.9749985  56.7998466   3.9625409
  15.5339432  57.1109200   4.3054404  51.9643822  63.3951683  34.5514679
  52.1323586  63.7829475  33.6926041  51.6261292  62.5209770  34.3575439
  50.0082550  64.9049911  14.9691935  50.4349403  64.4942856  15.7211876
  50.3822823  65.7853394  14.9329052  72.8644028  26.8439083  38.0147095
  72.2744904  27.5885773  37.8976250  73.7367325  27.2348442  38.0640907
  31.3890152  12.4631233   7.1126742  31.5270901  11.9119215   7.8829622
  31.1385174  11.8502541   6.4213901  36.7930984  12.5299959  83.2439041
  36.8826027  13.4757633  83.1266632  36.3730049  12.4332886  84.0985413
  42.8501205  46.4493370  51.0492477  43.6951828  46.7529106  50.7176704
  42.5795174  45.7712593  50.4302025  76.0231857  26.9945850  66.5474777
  75.8557968  27.7821026  66.0297623  75.1564941  26.6156883  66.6941757
  82.3291702   9.4634657  40.1158562  81.7808762  10.1151323  40.5528183
  82.4174347   8.7569513  40.7556038  66.6605453  68.9831009  36.7093735
  67.0237122  68.1541595  36.3976059  66.7445984  69.5770416  35.9634438
  79.7554779  65.7867432  10.4947510  79.8434677  64.9642105  10.0131502
  78.9130936  66.1416473  10.2107401  38.7643394  51.3861351  85.0566254
  37.8687019  51.0974121  84.8814011  39.1789665  50.6356850  85.4822311
  39.1308441   4.6502938   9.9263382  38.7427711   4.0386667  10.5520716
  38.6330910   4.5158730   9.1198606  16.6529198  46.1968460  72.0528107
  16.5563431  46.0892715  72.9990311  17.5860882  46.3675461  71.9251709
  77.8613434   1.7248348  45.4169617  77.7798004   1.2877989  44.5692673
  77.0364456   1.5357909  45.8642235  71.6240234  55.7669792  52.6082611
  70.9286499  55.7075882  51.9531593  71.7930374  54.8593826  52.8611031
   4.7125401   5.6466069  10.6369009   4.6386757   6.5218320  10.2564325
   4.2964816   5.7228217  11.4955730  48.4098892  24.4237442   1.3492426
  49.3092537  24.4533939   1.0229089  48.0099869  25.2298527   1.0228978
  71.6258011  68.5410690  36.3093872  72.4554749  68.4802322  36.7828484
  70.9863815  68.1330185  36.8932304  52.2185783  50.2391968  64.2316818
  52.0976067  50.7350235  63.4219017  53.0992851  49.8715401  64.1581192
  82.7136917  23.2808514  44.3870239  83.6177521  23.4434643  44.6562080
  82.3457642  22.7486992  45.0924873  74.9340897  36.7019463  80.0859299
  74.6154785  37.5997543  79.9929047  75.7750549  36.7914848  80.5342560
  37.6430550  58.5458870  14.1430731  36.7808189  58.2021103  13.9094086
  37.4594193  59.3812294  14.5728569  15.2077932  35.6294518  20.3648357
  15.8452511  34.9398651  20.5501785  14.7124863  35.7227631  21.1785889
   6.4153371  66.1804276  73.5003357   7.1061378  66.2598877  72.8425293
   5.6569419  66.6096191  73.1042709  19.8535156  54.8429642  14.6776724
  20.1266098  55.6880531  14.3206377  18.9338341  54.9678040  14.9118338
  55.0751839  59.4970398  64.7009583  55.6761627  59.1934013  65.3813019
  55.6447296  59.8624268  64.0239487   2.0813088  59.4901314  46.0722084
   2.2726884  60.4150772  46.2273788   2.9271615  59.1059303  45.8416519
   4.7144346  58.3249092  45.6341133   5.3597269  58.6830254  45.0245399
   4.6057582  57.4142151  45.3601456  20.3478489  34.4549561  38.6879234
  20.3733425  33.4986076  38.6565666  21.1872101  34.7043762  39.0745659
  44.9475594  31.9669266   2.0545356  44.1385841  32.4731789   1.9803801
  45.5230789  32.5122833   2.5908158   5.4131856  41.8496628  15.3962088
   5.5116029  41.8444214  14.4440966   4.7346458  42.5038147  15.5632582
  29.6052208  23.6872768  17.1286564  29.9019260  24.5734558  16.9215660
  30.0067158  23.1369934  16.4561825  16.5333061  27.6053772  20.2096291
  16.1865616  27.6749668  21.0990982  17.4034233  27.2223434  20.3210468
  78.3225708  48.7073860  64.7586594  78.0003357  48.6088982  63.8627243
  77.7924194  48.0979462  65.2722244  41.9646225  31.3208408   8.6669817
  41.3349075  31.7970486   9.2082024  41.4451752  30.6418476   8.2364321
  51.7553139   3.3141592  25.4409065  51.1933022   3.3466091  26.2150650
  51.2798615   3.8156586  24.7785816  66.7512665  63.0086174  33.5636673
  67.1116333  62.1437683  33.3676987  65.9419632  62.8281212  34.0418816
  12.0698423  49.3294029   7.9234056  11.7280407  48.5562706   8.3724794
  12.9590836  49.0842743   7.6676865  52.2470589  29.8146706  27.9860229
  52.2509041  29.2884769  28.7856083  51.9895782  30.6896782  28.2763634
  43.3850021  60.8900070  59.3107033  42.7152023  60.9051552  59.9943466
  43.7847633  60.0235672  59.3862190  29.0142670  51.6598930  70.5580750
  29.9692898  51.6438980  70.6205902  28.7203445  51.8894730  71.4396286
  10.6827106  41.1501541  72.5438614  10.6308804  42.0832520  72.3368149
   9.8838959  40.7773209  72.1708679  12.0347805  28.2180443   9.4931545
  11.1706257  27.8896046   9.2449703  11.9741526  29.1658287   9.3737373
  13.4337053  40.2911339  72.7398376  12.5291376  40.5522537  72.9124832
  13.6175680  40.6294746  71.8635101  46.5528603  49.3719025  83.1351852
  45.8574715  48.9535637  83.6427917  46.4635201  49.0024681  82.2566833
  72.9144592  69.6473389  55.1404762  72.6053391  69.8005524  56.0333366
  72.2379532  69.0986252  54.7436409  38.6209869   3.9438953  48.4008522
  38.1782036   3.0953290  48.4113655  38.0194473   4.5335851  48.8554382
  86.3897781  62.2933655  88.7429886  86.3920517  63.2504463  88.7279816
  87.0926666  62.0616722  89.3500290  69.7590332  57.0688896  44.4452744
  69.8138351  56.1378822  44.6608009  68.8684921  57.1861420  44.1144791
  29.1336250  12.6685162  74.7683182  28.9186211  13.5369387  74.4279556
  29.7223377  12.8384848  75.5036850  75.0452042  38.6994476  63.3739128
  75.8251648  38.1692162  63.5374641  74.5129242  38.1666298  62.7831383
  59.0718346  55.6690559  73.9868927  59.5690842  54.8736420  74.1773911
  59.6772842  56.2158699  73.4862366  55.0732307  37.3563957  71.5465775
  54.8616562  36.9182358  70.7222748  55.7958603  37.9443474  71.3266983
  38.0172653  71.4823837  39.1680260  38.3408775  70.6436615  39.4967499
  38.4769325  71.6077042  38.3378258  86.6166077  56.2357292  17.3163700
  85.8014297  55.9313889  17.7152424  86.5117340  57.1849556  17.2515354
  83.7404480   7.2314034  41.1695366  83.5543365   6.8945260  40.2931213
  84.6216202   7.5992222  41.1026192  82.5616760  13.0667601  57.2510223
  81.8600159  12.4386282  57.0796967  82.6823883  13.0380316  58.2001457
  68.3299103  52.7737312   8.2542162  67.6733475  52.5791931   7.5853972
  68.8156815  53.5200195   7.9030595  45.0019684  63.3210716   1.5805311
  44.7778015  62.9419975   0.7306581  44.6961403  64.2265244   1.5270905
   9.0945950  12.5912104  83.7311859   8.8408632  12.7274981  84.6440277
   9.3913889  11.6817799  83.6983109  36.8158188  23.8640404  79.5535049
  36.6369514  22.9358597  79.4027710  35.9529152  24.2551270  79.6902008
  42.0917244  43.8339272  41.8466873  41.4688263  44.2311783  42.4553108
  41.8181152  42.9185791  41.7874222  38.5422363  42.2957649  11.1125088
  39.2043381  42.5741920  10.4797955  39.0214996  41.7506142  11.7364855
   2.2411149  56.2459755  85.9229889   2.5409577  55.4862404  86.4221115
   2.7738228  56.9716835  86.2482681  12.6796188  27.3475685  12.2285061
  12.0216713  27.6062241  11.5831890  12.8714495  26.4329033  12.0215750
   4.9498038  65.6812439  42.2067604   5.4039168  65.7893829  43.0424156
   5.4046693  66.2740555  41.6085129  82.4008484  39.1171722  88.2328186
  82.5608902  38.1915741  88.4168930  81.5593872  39.3022995  88.6498413
  59.4350090  29.5211945  64.3314743  59.0166893  30.1849995  63.7832031
  60.2789192  29.9047375  64.5700989  62.9172516  16.9290791  30.8097839
  62.7290878  16.5189190  31.6539383  62.0741844  17.2771339  30.5193920
  32.8869667  61.7783775   3.8333998  32.0343475  61.3690643   3.9808264
  33.1768456  62.0484962   4.7047420  72.3304749  48.7021065  31.5780106
  72.5668030  47.8514252  31.2082577  72.8905716  48.7920990  32.3489990
  49.9093132  46.2035828  64.6058121  49.6933250  47.0811729  64.2905045
  50.2105446  45.7364883  63.8265076  18.7735577  18.0090923   8.8148746
  18.2026901  17.2482452   8.7078485  18.5426674  18.5860634   8.0868464
  29.8586502  70.4448700  30.6590366  30.5908623  70.7784653  31.1775093
  29.2272739  70.1346130  31.3081398  36.9848480   4.1533041   8.2161446
  36.7683067   4.4816189   7.3434758  36.8591537   3.2064419   8.1538181
  27.7831707  42.4950829  70.5376740  26.9130859  42.1428337  70.3503113
  28.3645420  42.0298004  69.9362106  64.6041260  69.3043823  55.2603531
  64.6779251  69.3589325  56.2131462  63.8115158  68.7890320  55.1106300
  16.6757603  53.9310722  22.0344543  16.9392548  54.5038490  22.7546825
  17.4291935  53.9265709  21.4440746  66.3567963  64.8133545   1.9744780
  65.5279999  65.0324936   2.4002914  66.1233826  64.6650162   1.0581027
  81.7092438  63.7244225  37.5280266  81.1004181  63.6759529  38.2650566
  81.3791962  64.4453201  36.9917374  31.5005684  24.2621727  78.2763519
  30.9843369  23.7389812  77.6631546  32.3512001  24.3620014  77.8489304
  70.3571777   2.0937412  80.3736725  69.7640533   2.3821900  79.6799622
  70.6695251   2.9049625  80.7744064  38.9869919  29.8326912   0.9821359
  39.6004257  29.5699196   1.6683434  38.2413864  30.2014332   1.4557749
  40.8917198  58.5911751  63.9607620  41.1063080  58.6416702  63.0292931
  40.8721428  59.5028458  64.2518005  73.1284637  55.5056496  21.1050282
  73.3622131  55.6971703  20.1967812  73.1230698  56.3601913  21.5362568
  25.1793690  32.7534332   5.7684793  24.6652641  32.6645126   6.5709882
  25.5187111  31.8738842   5.6027327   7.1844983  11.2912836  24.8945923
   7.5664454  10.6555805  25.4997635   7.0965929  12.0917339  25.4120712
  70.9796677  42.9038086  41.7645912  70.6412125  42.1588707  41.2678528
  71.8901138  42.6740227  41.9503860  54.2845421   7.4680109  41.7509460
  54.9238205   8.1334648  42.0053596  53.8363152   7.8437743  40.9932365
  43.1424141  23.2725792  13.0613613  43.2800407  23.0055866  13.9702101
  43.7896690  22.7724800  12.5641794  48.2679787  40.7220879  20.1516304
  48.5733871  41.3557396  20.8008137  49.0694466  40.3776894  19.7575855
  13.5961008  56.0858078   5.5635595  13.9047937  56.9224434   5.9113855
  12.8318424  55.8713722   6.0984969  56.0993347  21.5447388  23.4545593
  57.0124207  21.6019897  23.7360401  55.6875343  22.3294659  23.8163013
  83.8938065  69.3715363  63.5211487  84.3090744  70.0985718  63.0572395
  83.3611755  68.9358673  62.8557701  80.5399170  66.3475494  42.6172676
  80.1473160  65.6550598  43.1488228  81.3353119  65.9530792  42.2595367
  69.0431137  60.4751053  45.3272095  68.3989410  60.0175934  45.8675385
  69.0952911  61.3519402  45.7075615  23.7811852   3.4150665  63.6507225
  23.8246574   3.6297138  64.5825272  24.0115242   2.4869895  63.6077232
  72.5524979  25.2483025  10.7236519  72.6263962  24.8647194   9.8497906
  71.6873016  24.9781818  11.0314083  81.3180313  34.0405502  34.5950699
  81.5404358  33.4119492  33.9083176  81.8986969  34.7846642  34.4358444
  50.4807014  64.0380554  86.4062119  51.2678528  63.8632088  86.9220123
  50.3138008  64.9720230  86.5330353  26.3292389  52.2196007  24.1454468
  25.8602524  51.9230995  23.3654652  25.6794186  52.7185593  24.6404285
  67.8639069  24.1685390  31.8091068  67.6303940  23.9708729  32.7160988
  68.5033340  24.8777313  31.8755226  63.4621735  17.1233883   2.2615480
  64.1028061  16.4326324   2.4309008  63.8320351  17.9008617   2.6798427
  76.9192505  41.0659714  71.5568848  76.0332870  40.9478912  71.2143097
  77.3653336  40.2432327  71.3560410  36.2643738   7.5166783  85.1376801
  35.4884186   8.0380630  85.3433151  36.9558029   7.8905478  85.6839142
  55.8811340  13.7998047  23.4516850  56.6433449  14.3564997  23.2924480
  55.8702011  13.1915579  22.7126675  48.2462997  69.8630676  33.3207550
  47.6261978  69.9892578  32.6025772  47.7917709  69.2815704  33.9302635
  74.9581985  16.5699940  49.4744301  74.4682846  17.0843353  50.1160507
  75.7777939  16.3515606  49.9180222  62.3690071   4.2724671  55.2955017
  62.9180069   5.0555544  55.3355331  61.7613869   4.4424834  54.5756912
  65.4655533  50.3143616   8.1704502  65.8161926  49.9080200   7.3778782
  64.5649872  49.9946556   8.2252054  54.4316139  25.4612865   4.1074557
  54.7928429  24.6644058   3.7192183  54.4579010  26.1055584   3.4000278
  39.9632492  28.1545658  79.3613052  39.1398010  28.5843601  79.5924759
  39.7339554  27.2294617  79.2727661  51.0505638  30.2093372  67.3426361
  51.2620850  29.9438324  68.2376251  50.5519753  31.0200176  67.4448090
  65.3323364  41.3031120  18.0033855  66.1278610  41.7945366  17.7987480
  65.3957138  41.1247253  18.9416790  44.7327766  13.6453943  82.3683701
  45.2846298  13.1091919  81.7990036  44.6223221  14.4671459  81.8900833
   4.4246631  29.1686459  66.7517624   4.8120136  28.3012867  66.6339493
   4.2492938  29.2270775  67.6909409  80.7863464  21.4064655   6.0168042
  80.0781555  20.9671783   5.5459251  80.3436737  21.9085655   6.7010345
  43.6649208   6.6501527  55.0788269  43.9762077   6.6774569  54.1740685
  43.3052711   7.5233917  55.2348366   9.0431051  27.9146671  18.6957245
   9.6973467  28.0602798  19.3790970   9.5180759  27.4548187  18.0035000
  22.1069279  68.5595093  41.6655426  22.6154804  69.3633270  41.7727051
  22.6293087  68.0233231  41.0690002   3.4855528   5.8380399  76.9383469
   3.8780971   5.8773494  77.8104706   2.5579813   5.6663404  77.1007156
   5.8087640  30.7142067  39.4302101   5.9329152  30.5898590  38.4892769
   5.3783579  29.9110069  39.7232170  61.6664696   0.8295922   2.4201345
  62.5413628   0.9591440   2.0540597  61.8156242   0.6986573   3.3565323
  82.5804596  19.6145706  25.0171204  83.0034180  19.5596447  25.8740444
  83.0521317  20.3118038  24.5614643  11.7307425   4.1175771   1.7005067
  11.1766768   4.8473573   1.4236246  11.3544827   3.3526082   1.2652102
  12.5922270  44.4789963  12.2988195  13.3087263  43.8482933  12.2275906
  12.8528671  45.0576668  13.0153656  71.9352341   8.6029415  29.4291229
  72.5509415   9.1377316  28.9279804  72.3058472   8.5741453  30.3111954
  70.3254700  33.8529625  84.0162354  69.8496475  33.6940346  83.2010193
  70.8539352  34.6307602  83.8373795  71.9181290  34.6665764  70.5888443
  71.1921768  35.2604256  70.7800827  72.5467224  35.2041054  70.1070099
   5.7657685  47.1948051  45.3934021   6.1368060  47.3276596  44.5210991
   5.6211896  48.0793419  45.7294426  22.0565109  44.6097832   3.4496374
  22.3272266  44.8897629   4.3240256  21.5184269  45.3309479   3.1231167
  14.9354544   3.6533024  77.5751572  15.3094711   4.2286892  78.2424469
  13.9986610   3.8495100  77.5874786  15.5651894  66.5002594  41.4935722
  15.1279669  67.2885208  41.8156090  15.7198095  65.9745483  42.2784004
  39.0771980  62.6766014  82.0656433  38.5614929  61.9453812  81.7256546
  39.9269524  62.5918846  81.6332397  76.8753357  64.6392975  52.7170639
  77.7321930  64.4205475  53.0833702  76.9767456  64.5063400  51.7745819
  36.3348122  67.9654846  28.3807297  35.8919334  67.1729584  28.0774212
  37.2668304  67.7533188  28.3300667  63.1071281  46.9585953  31.0816898
  62.3653946  46.7397346  30.5176296  62.8494606  47.7747650  31.5102921
  30.6665840  29.2877369  13.0748892  30.3640823  29.6056671  12.2242165
  31.2196922  28.5348701  12.8663311  40.4722443  12.5409012  75.9641190
  40.3546486  12.8102646  75.0531540  39.7488937  11.9364748  76.1304398
  30.2975216  61.1915512   0.3416216  29.4799175  61.0543365   0.8200846
  30.8860416  60.5136185   0.6737143  54.0637283  35.7678337  31.0504570
  54.2719574  35.4241333  30.1816978  53.8893852  36.6976662  30.9046993
  27.0272503  54.9368172  77.5469894  26.1319942  54.6925011  77.3123398
  27.3932762  55.3059044  76.7432251  70.4878311  54.3904915  12.0701790
  70.0841217  53.6530571  12.5278263  69.8156204  54.6893044  11.4577389
  78.2085876  51.3692741  39.7134438  78.1764984  52.3023720  39.9244614
  77.6548843  51.2799454  38.9377708  55.4653587  54.8654861  73.7806091
  56.2047501  54.8916435  74.3879395  54.8724937  54.2127533  74.1530151
  23.9982300  56.1739464  86.0453339  23.0589104  56.1965332  86.2280884
  24.1497536  55.3034286  85.6772614  47.5270882  61.6954918  39.0048523
  48.3568268  62.1680489  39.0715981  47.7686996  60.7735596  39.0937080
  25.0429859  50.5755959  26.6678352  25.1793098  49.8918533  26.0119839
  25.0572109  50.1110687  27.5046387  16.2926273  40.7353325  39.4329529
  16.6188469  40.2276459  38.6899414  15.8508596  40.0919571  39.9871597
  12.4417419  33.0346565  78.1792374  12.7246265  32.6733704  77.3391876
  12.5341196  32.3082275  78.7956772  11.4127073  51.3982201  64.7449036
  12.2448244  51.0574799  64.4167099  11.0792255  51.9431801  64.0321350
  37.4624519   8.9086905  80.5472031  37.6621895   8.4946842  81.3868103
  37.7709618   9.8095226  80.6449509  44.6136742  21.1545162  77.0355301
  44.1306419  21.0470486  77.8548965  44.1402893  21.8418617  76.5668106
  58.5483131   0.7828303  70.5000076  59.0558395   0.1877048  69.9482193
  58.6035385   0.4023842  71.3766174  32.5927544  67.0935822  85.2605286
  33.5269356  66.9695358  85.4282990  32.2177124  67.2811356  86.1209946
  68.9590302   9.1128540  81.0269928  69.6305542   8.6399212  80.5354385
  68.2154999   8.5107698  81.0569153  36.7689247  48.7456589  25.7464352
  37.0759315  48.7850876  24.8406639  37.2859268  48.0451965  26.1442928
  30.9972687  54.3685265  25.2604523  31.5639229  53.7071800  25.6576385
  30.1484013  53.9350319  25.1724968  52.0194168  68.3095703  61.7442169
  51.3087845  68.9042740  61.9841537  52.2394218  67.8581772  62.5591240
  77.7925720  66.4790268  36.4503632  77.4787750  65.8938599  37.1398163
  78.6149216  66.0857315  36.1583252  63.4576607  47.4839630  16.8119602
  63.9642830  47.1644821  17.5586185  63.5397797  48.4365768  16.8567944
  24.0105038  20.3574810   9.6723795  23.6433811  19.4735146   9.6798992
  24.6416245  20.3486023   8.9527693  63.8256912  45.1231155  50.7173386
  64.4637146  45.6011391  50.1875648  63.7485809  45.6371994  51.5210838
  73.4321289   3.5762455  25.6126633  72.7258911   3.0047414  25.3112507
  73.0287628   4.4419174  25.6770115  65.1361313  67.5302048   9.4532909
  64.4748154  67.2428894   8.8237314  65.3532410  68.4222031   9.1823082
  31.1180553   4.2975488  15.1030216  31.0580597   4.4246597  14.1561975
  30.2590942   3.9577789  15.3539724  69.5420609  45.8284073  29.9923458
  70.0150986  46.1342049  30.7662678  68.9393082  45.1643448  30.3269215
  61.2396698  17.7510815  13.4606133  60.7142754  18.4797535  13.7911139
  60.5979233  17.0829144  13.2198973  86.8041077  41.2601624  19.2359543
  86.4399567  41.2813644  18.3509827  86.0486221  41.3908348  19.8090153
  10.8936148  38.5243988  82.6975479  10.3264532  38.5713692  83.4671936
  11.7694473  38.3760872  83.0541382  45.8203049   2.6984174  44.3794670
  46.1128159   1.8247710  44.6391029  46.0393791   2.7578321  43.4495697
  74.5804672  29.5623817  69.9239426  75.2185440  29.5641899  70.6374512
  74.9042130  30.2228775  69.3114319  81.8713913  16.0930214  19.8568649
  82.0943680  17.0238361  19.8468723  82.3164520  15.7484217  20.6310787
  52.5333595  44.0487175  31.9786930  52.5218315  45.0033493  31.9095802
  51.6251297  43.8111191  32.1655045  31.5880013  34.0958405   1.4804614
  31.2981358  34.9144554   1.8830537  30.9033852  33.8857155   0.8453395
  80.3187866  65.7265930  87.9540863  80.3691559  65.3825073  88.8458862
  79.9986877  64.9913483  87.4314117  57.7598305  34.3193016  26.3766041
  57.1509171  35.0564346  26.3309193  58.5727997  34.6565247  26.0003166
  42.5492516  27.6699810  16.6426010  42.3722305  28.3780842  16.0233402
  41.9183235  27.8065720  17.3493595  85.1218033  52.9983368  41.5052338
  86.0105133  53.3538361  41.4991646  85.1831360  52.1913834  40.9940643
  77.9029388  57.3426590  30.2503948  77.2456284  58.0363503  30.3048439
  77.5505676  56.7288589  29.6059437  72.5901947  12.1140347   7.8040957
  73.2999191  12.3800325   8.3887119  72.9191437  11.3263483   7.3709955
  51.5507469   6.9776692  16.4489098  51.4038048   7.9061832  16.6291943
  51.3027344   6.5340204  17.2600174  58.2518120  67.9871597  57.4726219
  58.0163269  68.4313354  56.6580772  58.1036491  68.6425705  58.1543198
  43.6122208   0.7676831  73.1628189  43.3510017   1.2606415  73.9406357
  42.8312073   0.7618848  72.6094513  48.3165665  19.1276817  21.3562984
  49.0483665  18.5424862  21.5518608  48.5044518  19.9216690  21.8568153
  58.6573372  29.1725292  34.0277061  58.4063568  30.0671082  33.7975616
  59.3319778  29.2780972  34.6984901  63.3027382   8.1833925  18.8178082
  64.0701370   7.8643446  19.2927151  63.6355782   8.4098892  17.9493904
  61.6653214  57.1408539  66.1046906  61.8567276  56.7901878  66.9745331
  61.3495789  58.0294456  66.2688293  38.6935310  43.5367279  25.9342594
  37.7372131  43.5029221  25.9109592  38.9249573  43.1805420  26.7920513
  57.7504463  58.3892975   8.8442640  57.7675896  58.3085823   7.8906274
  56.8229485  58.4870605   9.0597248  33.3857613  41.8792839  36.1383476
  32.5910568  41.9089088  36.6710777  33.6407890  40.9566841  36.1397514
  80.3026123  31.1719837  71.7583160  81.1270447  31.5533237  71.4564438
  80.3111572  31.3028946  72.7064819  44.2249146  11.1708565  64.3615036
  43.2720909  11.2012138  64.2752838  44.4085426  10.2871017  64.6800766
  59.1855469  15.7548075  83.3576889  59.9838181  16.2823181  83.3845825
  58.8648529  15.8512211  82.4609756   7.1326909  67.5706863  67.1265869
   6.5705576  66.8425903  67.3913651   8.0213318  67.2666473  67.3112717
  31.3306389  54.7531357  32.0967979  31.0185261  54.0073433  32.6092529
  32.1473351  54.4475060  31.7020416  36.5687447  24.7398205  23.4445934
  35.8923035  24.4260960  22.8443947  36.2845688  24.4348354  24.3062553
  75.5624390  22.9474983   8.6706371  75.7027588  22.1179161   8.2141972
  74.6437302  23.1593781   8.5053959  58.5180283   2.7194088  52.3291435
  58.1152573   2.8526182  51.4710846  57.8516922   2.2567885  52.8372841
  47.5192146  20.4027500  77.1505356  46.6790085  20.8429623  77.0220871
  47.5607567  19.7557602  76.4463272  58.3305931  54.1083412  17.0743427
  57.4231300  54.4075890  17.1308823  58.6244850  54.0615425  17.9841061
  59.7062874  19.9443607  68.5022278  59.7201538  19.3520985  69.2540665
  60.0385628  20.7741032  68.8447952  24.3146267  53.9671745  80.1103821
  24.4329796  54.8469467  79.7522964  25.2014980  53.6701660  80.3140335
  68.3169861  34.3019485  33.4892883  68.4802170  34.7358665  34.3267250
  69.0068665  34.6286926  32.9117546  20.8514977  56.3666611  41.5710869
  19.9551144  56.6905632  41.6594887  20.8005905  55.4469376  41.8313751
   1.9722329  22.7735615  77.7513733   1.5119725  23.5522308  77.4382172
   2.8924184  23.0353813  77.7820511   5.5456748   6.6598120  19.2010803
   5.5844932   6.7279263  18.2470970   6.4618502   6.6536374  19.4782391
  49.3543549  51.9325409  87.7438507  48.7194672  51.7730713  87.0454788
  49.4521790  52.8844757  87.7658310  12.5136461  67.3870926  36.2511063
  13.1815310  66.9308472  36.7629623  11.8675604  66.7117920  36.0442963
  59.5125809  55.1157570  56.9938202  59.0448036  54.4502945  56.4892693
  59.4095154  54.8417473  57.9051552  50.6233177  68.7263870  79.7012329
  51.5014725  68.3455505  79.6949234  50.6283760  69.3277130  80.4459610
  61.5911789  28.6586037  13.3862190  61.9212036  27.7978344  13.6438789
  62.1113853  28.8944778  12.6181164  36.2237816  18.7644958  69.3660202
  35.9925652  18.4171581  70.2274857  35.4759521  18.5445499  68.8104935
  40.0961342  71.1426010  27.4046440  39.8517952  70.3821106  26.8772144
  39.9613647  70.8600235  28.3091984  76.2804108  68.5792694  36.1916695
  75.8327179  68.6898193  37.0304642  77.0926819  68.1232986  36.4119835
  32.6076927  15.3479128   8.1514225  31.8516159  14.8153639   8.3983479
  32.5029259  16.1583004   8.6499491  35.3692322  23.5164623   8.1048145
  35.3200989  24.4696102   8.0318298  36.0836296  23.3600483   8.7223911
  46.6330605  33.1139755  82.8119431  46.8380737  33.8160782  83.4293976
  46.3468132  33.5680275  82.0193939  22.8894424  13.1072350  40.0283890
  23.6234684  13.0132027  39.4212685  22.9009304  14.0315866  40.2767334
  83.5882492  20.0125484  79.2455215  82.6467361  20.1846027  79.2587433
  83.8924255  20.4073486  78.4283066  10.8173361  55.6480446  32.1188660
  10.3206978  55.3187981  32.8679810  11.7331905  55.5718536  32.3865166
   6.9432192   6.1325884   4.8980193   6.5661206   6.0295997   5.7717595
   7.8735352   5.9397244   5.0144119  48.2807541  70.6661606   3.6261086
  48.7356949  69.8372116   3.4774168  47.4550438  70.4152832   4.0402250
  29.8002968  26.2111530  11.2505274  29.9815559  25.3630047  11.6555214
  29.3698883  26.7181911  11.9389267  79.9387741  69.1070786  55.7359390
  79.1889572  69.6693726  55.9304466  80.3028412  69.4649200  54.9262238
  10.7970991   5.3061705  29.4098892  10.2069616   5.9343281  28.9934902
  10.2838764   4.9346671  30.1273975  49.2467880  57.2897873  70.4089203
  50.1409683  57.4083977  70.0886078  48.7599869  58.0259361  70.0383224
  84.6358871  42.3829002  43.6742821  85.2023773  42.7084541  42.9747543
  83.8812332  42.0109520  43.2177925  30.6641464  53.9753571  10.1141434
  30.5150127  53.0319366  10.0513258  30.3603878  54.2079620  10.9915590
   6.3825369  48.7879715  50.9850807   7.0385809  48.4151115  51.5739861
   6.6101565  48.4409752  50.1225166  74.4194489   8.4160004  72.0295105
  74.5550537   8.6792622  71.1192703  73.4744949   8.4911146  72.1623306
  53.6355515  32.5782852  62.3874397  53.1357956  32.1064301  61.7212334
  53.0849457  33.3278694  62.6136971  65.7255630  55.4351387  12.4238749
  65.4509125  54.5181885  12.4224100  66.5733566  55.4305191  12.8682346
   8.1422749  35.3334160  61.8243294   7.6637902  35.4756050  61.0075874
   8.5004120  36.1932487  62.0449066  68.4258575  35.4857864   4.6433215
  69.1652908  35.7259331   5.2017088  68.1886749  36.2987709   4.1971889
   8.1024504  18.8699932  86.1758728   7.4505324  18.5656357  86.8072205
   8.0192776  18.2677498  85.4365387   0.4205502  35.7320366  61.3973122
  -0.1891375  36.3980637  61.7149925  -0.1206638  35.1432762  60.8713074
  30.3128357   0.8603055  13.9951038  29.4864159   0.7216763  14.4577522
  30.9726562   0.8924052  14.6878071  80.2990494  63.9928131  68.8711090
  80.7622757  64.0138550  68.0337219  80.5667953  64.7984543  69.3132401
  84.1641541  22.9250126  51.0124512  84.0612335  22.5630875  50.1323090
  84.0709839  23.8704090  50.8950691  35.7506638  45.3628845  81.3597336
  36.0448418  45.7818336  80.5509186  35.0229225  45.9071426  81.6604080
  65.5352097  52.9661217  33.3142586  64.7016296  52.5322342  33.4962730
  66.1891403  52.2716980  33.3941574   4.8756099  65.4364166  60.9632797
   4.2901020  65.2385635  61.6942139   4.8901057  66.3925323  60.9200478
  21.7600956  66.7381439   3.5139973  21.3477154  67.5863190   3.3503582
  21.5090866  66.5189209   4.4113088  62.6364136  50.0059547  39.3133698
  61.8126144  50.4784737  39.1937218  63.3082390  50.6875496  39.2956467
  79.7653656  11.0062695   3.6608324  78.8376770  11.2388906   3.6997087
  80.2258377  11.8348904   3.7934523  56.7890892  18.3857822  47.9184761
  57.1704483  17.7503300  48.5242805  57.1521568  18.1504536  47.0646400
  41.7617073   7.8566957  66.5253448  41.7975159   7.3508940  67.3372040
  41.0707130   8.5018682  66.6753922  35.0703087  64.8059998  45.5571861
  35.4067230  65.1704712  46.3758545  35.7628288  64.2189026  45.2539406
  55.6384315  20.1684132   7.3948045  55.4453659  21.1034603   7.4629707
  54.8135452  19.7367001   7.6171150  14.9166679  39.6934624   6.2634773
  15.4595938  39.5157509   7.0315151  14.2684689  38.9891472   6.2602229
  28.3824863  59.1478615   7.3132005  27.9460888  58.4903069   7.8548732
  27.6669178  59.6310196   6.8999810   2.6156931  50.0750427  54.9373932
   3.5308206  49.8603668  54.7565956   2.1628623  49.2320442  54.9143486
  30.7016926  39.0611420  83.7209854  31.0054798  38.9441833  82.8208389
  31.3010807  39.7075539  84.0939713  86.5875320  53.3874092  67.5936279
  85.7154922  53.5730171  67.9419632  86.4946899  53.4929657  66.6468048
  41.9096451  15.1267433   9.7323666  41.2069244  14.5610781   9.4123144
  41.4722290  15.9476490   9.9582262   7.5710545   1.1652007  38.8634338
   8.4535189   1.4917200  38.6877251   7.0438695   1.4966803  38.1365013
  23.0528584  24.5725975  76.5017929  22.4537430  25.0087357  77.1076660
  22.9390011  25.0400600  75.6743011  36.0606880  42.8077660  31.7902832
  35.4525642  42.7153320  32.5236816  35.8353424  43.6508827  31.3970852
   6.4408765   2.8081150  27.6702824   6.0285506   2.0418847  27.2713947
   5.7595825   3.4803636  27.6579437  42.6227798  52.1116409  63.5662346
  43.1084747  52.8645439  63.2293816  41.7178535  52.2708588  63.2979240
  43.5351753  42.9748993  18.7589493  44.3567238  43.4660225  18.7496319
  43.4834213  42.5781708  17.8893757  14.7407007  16.5239830  81.1063766
  14.9362154  16.9389153  80.2662354  14.6501226  17.2540627  81.7187576
   3.5821998  58.7620201   7.3313999   3.3497088  58.7867470   6.4031925
   2.8496201  59.1912842   7.7733183  74.4169998  48.1471291  75.9533920
  73.8994370  48.0916519  76.7566833  74.3823929  47.2644463  75.5847321
  35.4147110  27.4161015  74.7855835  35.2960815  28.3512802  74.9517212
  36.1855392  27.3692036  74.2200241  37.5418663  70.4478073  10.6312904
  37.3738632  69.5111313  10.7344694  38.4949799  70.5153427  10.5743427
  24.8143997  58.3732071  20.6312771  24.1151981  58.3381042  21.2840519
  24.3593388  58.5067863  19.7998276  57.1645966   1.0651793  81.6882248
  57.3167343   1.4457403  82.5532455  56.2979240   0.6638980  81.7521591
  67.4823303  14.2073889  30.9832172  66.5658417  14.1966276  30.7072430
  67.6622009  15.1265459  31.1807785  82.0231400  48.4123726  81.7781677
  82.0633850  49.3686638  81.7889481  81.7109756  48.1956749  80.8996277
  84.1986771  61.9662704  39.8188057  83.8406448  61.3224792  39.2075920
  84.7154083  61.4487228  40.4363480  17.8998032  65.4157791  17.3492851
  17.2398262  65.8159943  16.7831650  17.8595181  64.4823151  17.1413097
  63.9799118  11.1977053  26.6412964  64.4132767  11.3412428  25.7999744
  64.6964111  11.1442776  27.2737541  11.8815708  68.8892975  77.6199875
  12.6139994  68.3729172  77.9563370  11.1266022  68.5939331  78.1289215
  39.6110115  21.2222233  74.0130234  40.5385818  21.3826771  74.1865234
  39.5582275  20.2815933  73.8437347  27.8256035  56.5085411  60.2655411
  27.1338387  56.1560516  60.8253975  27.8754978  55.8957672  59.5318832
  10.8554964  25.7828255  68.4974365  11.6103182  25.8370609  67.9113159
  10.8760090  24.8862476  68.8320389  28.4018021  23.9437103   3.1785197
  29.2416477  24.3122196   3.4525471  28.6286583  23.3121014   2.4959948
  10.7936811  53.5103073  54.7800026  11.6017475  53.4396172  54.2718086
  10.2424841  54.1054916  54.2718964  84.4452133  17.7398186  71.2634583
  85.0569992  17.5872917  71.9836578  84.8541336  17.3171234  70.5082474
  15.8965654  59.3157616  16.9507484  15.5690022  59.5774651  16.0902576
  15.1125536  59.2516785  17.4961395  14.7570257  57.6103210  47.9510422
  15.0757284  58.0197945  48.7553978  13.8970890  57.2608070  48.1846657
  45.0899696  43.9594994  48.8912544  45.6971893  44.5540657  48.4507942
  45.4849167  43.8064613  49.7496452  16.2773247  67.1831131  72.2749405
  15.7214127  66.7335587  71.6384735  17.1543999  67.1491394  71.8930817
  65.4352875  49.3745346  71.2317123  64.9148483  49.6075935  70.4629059
  65.9113998  48.5868530  70.9688339  61.7593994  27.7152462  68.5594330
  60.8716850  27.3633022  68.6252441  61.6427231  28.5929394  68.1957397
  24.8758793  48.7264175  29.3229218  25.1818085  49.3388634  29.9919109
  25.3189354  47.9037704  29.5307331  50.5837250  17.7086945  15.5587645
  50.6863365  18.4784813  16.1183472  50.9614525  16.9909744  16.0671253
  75.1685410  71.1056366  83.9998779  74.5974731  70.3381958  84.0336151
  75.2014313  71.3391113  83.0721664  75.7207947   4.8939581  50.2205009
  75.5550537   4.2310443  49.5501976  74.8513184   5.1310472  50.5430374
  81.6585159  71.4617462  63.9146652  81.7523727  71.6572418  64.8469772
  81.6904297  70.5063248  63.8658905  49.1187897  24.2616291  32.0253296
  49.6744919  23.7385101  31.4476013  49.5729713  25.1009884  32.0990105
  57.2565575   1.0469899  54.2674828  56.6089172   0.8485360  54.9438057
  58.0852165   0.7338795  54.6301384  20.5046463  59.5719757  54.5772133
  19.7025928  59.2988358  54.1318588  20.6070614  58.9442444  55.2925453
  37.1167297  15.0325565  82.2612762  37.0328102  15.7820148  81.6717834
  38.0194664  15.0757685  82.5766068  56.7816277   1.7564518   0.8166674
  57.6937828   1.7417642   1.1064730  56.2726173   1.7484848   1.6272714
  34.7933502  38.3569794  22.2809143  34.4820404  37.5193443  21.9378662
  34.7264099  38.9590721  21.5398102  68.9007950  54.3979149   4.6238623
  68.3032608  53.8745575   5.1579823  68.9710693  55.2311554   5.0896969
  50.6953316  38.4276237   7.7534866  50.3888397  39.1737328   8.2688684
  50.0290642  38.3149643   7.0755277  58.1052437  48.4466591  68.2070694
  57.9681244  49.1450615  67.5670166  58.3277626  48.9048080  69.0175095
  72.6908417  59.6689606  69.4674911  72.2173462  60.2938652  68.9183655
  73.6105042  59.7924995  69.2325821  73.6909409  43.1237679   9.9676905
  74.0192413  42.8233109   9.1202383  73.3298721  42.3374825  10.3771114
  63.3320122  27.0924740  83.7274017  63.4222374  26.7209396  84.6049271
  64.1216888  26.8106670  83.2656403  11.7206211  14.4739437  76.1803131
  11.1267328  15.1505432  75.8551407  11.9919167  14.7878132  77.0429382
  69.8181610  35.4502220  63.6561432  70.0360031  35.6164474  64.5732803
  68.8617401  35.4771919  63.6284561   3.0440524  44.3458214  11.9502306
   3.5043330  43.5214958  11.7925501   3.4354911  44.6888428  12.7535639
  37.7551041  32.4461517   6.4004111  36.9489937  32.3561478   5.8921642
  38.3845787  32.8239632   5.7862024  69.9187241  71.0381851  86.7149124
  69.9380264  70.1028671  86.9174805  68.9878540  71.2473679  86.6377029
  41.7296906  22.2706375  19.9440250  41.6001053  22.7436981  19.1220436
  42.6336174  22.4646072  20.1920662  33.5445404  53.1184654  10.3368006
  34.4025154  53.3468704  10.6944904  33.0065422  52.9310608  11.1059990
  74.4301147  42.6858101  73.3114014  75.1670532  42.6783562  72.7005920
  74.5040894  41.8579102  73.7861023  79.6478043  42.4147873  10.5257187
  79.3256302  42.3115273  11.4211359  79.3098145  43.2655830  10.2461824
  50.6597290  70.9153442  58.6530380  50.8790550  71.8345871  58.8050804
  51.5069427  70.4758682  58.5800552   5.8632479   4.4027166  21.8715000
   6.5651727   4.0362420  21.3336983   5.5510058   5.1590767  21.3748550
  28.7596588  69.5968933  33.2173157  28.6954155  68.9709549  33.9386368
  28.2170296  70.3358841  33.4924240  84.7857971  38.4396744  24.7374783
  84.4218063  38.6040001  25.6073856  84.0341263  38.5003662  24.1479511
  44.3441315  24.5410290  26.3847332  44.0107155  23.6720982  26.1610622
  43.9251671  25.1277161  25.7550507   2.5778234  25.6123409  41.9005547
   1.7510505  25.3461666  42.3028336   2.9773035  26.2008743  42.5410843
  29.1421909  23.4958820  85.4301834  28.9343758  22.9926567  86.2174683
  28.5650082  23.1361008  84.7566528   1.5772430  41.2708435   0.6137323
   1.5433075  42.1762886   0.3051060   2.2187614  41.2837944   1.3240268
  59.0541916   4.5433450  36.5457726  58.3468666   4.9263115  37.0646744
  59.3176994   3.7653985  37.0372963  54.9896049  66.7123108  85.7182999
  54.4542503  66.0384140  86.1372299  54.4087219  67.4697723  85.6471939
  32.7311325  41.9392776  16.7506809  32.9358215  42.5055962  17.4947338
  33.2999458  42.2527122  16.0475140  10.5911055  23.9890499  21.7825069
   9.7013206  23.6387939  21.7396736  11.1543694  23.2154484  21.7599888
  42.9802361  33.0026588  30.4602566  43.7450829  33.1231728  29.8974800
  42.2567215  32.8517075  29.8520050  14.4284010  65.1112900  66.4186783
  14.3088274  64.5148315  67.1577148  15.3683434  65.0853500  66.2396088
  67.3268890  13.5952921  63.0364037  67.4260864  13.2789001  63.9343414
  67.5517273  14.5245094  63.0836601  28.0793381  45.8392487  59.4338875
  27.5140991  46.1423950  60.1444054  27.6308918  46.1180534  58.6355133
  70.5333252  21.0353127  81.3643646  70.7554550  21.6617947  80.6755905
  70.7942429  20.1858120  81.0086823  41.5961151  15.3350325  17.0203819
  41.1002350  14.5294828  17.1667557  42.4275894  15.1898241  17.4718170
  66.4110565   5.1380138  17.8205929  65.9768448   5.6030746  18.5357227
  66.0224838   4.2633176  17.8329029  49.8797569  39.0335045  68.4581223
  49.8931084  39.2498169  69.3904648  49.1660347  39.5613060  68.0999908
   0.0867113  68.3319778  44.4852753   0.0633585  69.1707611  44.0247040
   0.4715246  67.7231750  43.8547974  53.5882683  66.6116409  28.1172371
  54.4382019  66.5991745  28.5573425  53.5756798  67.4436874  27.6441975
  84.7340240  17.8742619  20.6361256  84.4898605  17.1941948  21.2639179
  83.9096375  18.3125343  20.4250851  14.5408878  59.7523422  12.3662872
  15.4303474  59.9502449  12.0731525  14.2811632  58.9915619  11.8466825
  12.5587473  65.8207626  11.1342554  12.6350384  66.6583176  11.5913286
  12.9157724  65.9902802  10.2624588   8.7883167  18.6197605  21.7840500
   8.8685894  19.2992306  21.1146412   8.9524422  17.8013649  21.3155174
  14.2070999  70.6234360   4.2659950  14.1272345  70.7470322   3.3201735
  13.3434992  70.8502274   4.6109457  22.9981346  59.6159821  52.9023705
  23.2876568  58.7155991  52.7550049  22.2095947  59.5293808  53.4380341
  23.5015278  17.2970257   2.0151279  22.5983143  17.1178951   1.7536926
  24.0341492  16.8768101   1.3398749  81.3452988  18.2323418  22.7092514
  81.6480026  17.3266697  22.7752781  81.8946533  18.7141685  23.3275414
   7.3244348  44.2030907  31.3000908   6.6135268  44.8364639  31.3984814
   7.4334011  43.8276978  32.1738396  39.7518501  41.2123909  16.7731514
  39.4583778  40.3172417  16.9428864  40.6793976  41.2092361  17.0095444
   1.5167018  35.3304710  74.6430206   2.3690901  35.0059357  74.3526001
   1.0925646  35.6393394  73.8424301  68.5578766  41.5971756  32.5464439
  69.1016312  41.8089180  31.7876816  67.6621323  41.7643700  32.2533264
  86.7102356  66.8650970  86.5543442  85.7842789  66.7651596  86.3333359
  86.9402618  67.7371368  86.2336273  10.2501888  71.0340576  41.2160416
  11.1739826  71.0356445  40.9653740   9.8322353  71.6296692  40.5941124
  30.4654408  48.0496178  61.4166145  29.5509148  48.3175125  61.5066643
  30.5342884  47.7314301  60.5164795   8.2969313   1.1874070  72.6179428
   8.8024788   0.6113786  73.1913910   8.5592127   0.9344348  71.7328186
  76.8982391  13.9001055  54.8381310  77.2179565  14.7412767  54.5118752
  77.4951630  13.6777906  55.5526123  49.0154266  62.6871719   5.8734450
  48.0611877  62.6220245   5.8357935  49.2504768  62.2811661   6.7077951
  61.4877815   1.8917699  11.8212519  62.4189873   1.7233971  11.9652472
  61.4270897   2.8430421  11.7339048  76.5218048   4.6586628  58.1290436
  76.6153030   5.0245304  57.2494812  76.6675110   5.4019117  58.7143517
  24.3306103   5.0308404  83.1669922  23.7339516   5.0056725  83.9150543
  24.3165894   5.9439139  82.8800583   2.9662626  44.6343307  85.9267654
   2.3963435  45.2631760  85.4840698   2.8546281  43.8214989  85.4337463
  68.5247498  62.0120544  81.8851089  67.8159180  62.5270348  82.2705841
  68.9623337  61.6082001  82.6345444   6.1484599  70.6812668  81.5972977
   5.7109179  69.8365479  81.4912872   6.4867225  70.8868332  80.7257767
  40.7353516  25.0818443  85.2519836  41.1014824  24.6544685  86.0262756
  40.7045441  26.0102615  85.4829025  23.4909172  20.4126892  15.5028801
  24.1511822  21.1053562  15.5251255  23.9427719  19.6634579  15.1146603
  56.3027115  59.2259407  19.3180161  55.9077454  58.3540535  19.3111496
  56.4869881  59.3981361  20.2413902  40.6905098  65.7588577   5.6924620
  40.7866211  65.9438934   6.6266756  40.3579636  64.8619080   5.6589274
  32.2617111   8.7653246  37.9929199  32.0039368   8.3019094  38.7898102
  31.5549068   8.5866032  37.3726616  68.7152786  57.0765457  33.8338585
  68.7680435  57.8981514  33.3455811  67.7978210  57.0143700  34.0996323
  68.5303268  48.0635300  83.8703384  67.5736694  48.0924644  83.8845367
  68.7832184  48.0482712  84.7934036  85.7162628  27.2557449  20.2614288
  85.0650787  26.9760418  20.9048195  85.5295944  26.7264309  19.4860516
   4.6361918  55.1805038  80.0485992   4.5836215  56.0948524  79.7703247
   3.7275865  54.8794594  80.0549469  58.0748863  29.4013424  68.5246658
  57.4886131  29.9019012  69.0920792  58.9187355  29.4199390  68.9761047
   0.8891687  16.8449898  14.8913555   1.2709835  17.0689316  14.0426512
   1.4181447  17.3273754  15.5267448  27.3246574  17.8384132  81.4299469
  27.8478661  18.6285896  81.5644989  27.9026318  17.1212273  81.6903687
  32.5497055  62.8890686  71.6712265  33.1634407  62.2400589  72.0152435
  31.7005634  62.6284065  72.0279388  49.8269806  65.1216354   4.9101672
  49.2636032  65.8427277   4.6293478  49.2192078  64.4454041   5.2094278
  53.3745346  70.2977142  24.9625931  53.5928154  70.3331757  24.0312901
  52.6758270  70.9431534  25.0695782  54.1770210  30.3025398  13.2883377
  54.2546425  29.4118767  12.9463949  53.2459679  30.5096741  13.2079248
  59.0905304  65.9944458  34.3704338  59.6482086  65.3572769  34.8167992
  59.6788940  66.7179184  34.1544571  14.9874487   5.6667523  70.9720154
  15.3878021   4.8042240  70.8625031  14.5498457   5.6214972  71.8221207
   4.1829386  29.2521877  72.6371841   4.7599549  29.5215664  73.3518295
   3.4941645  28.7429981  73.0644379   7.7089925  53.0827065  10.0246763
   8.3933449  53.5642471   9.5599012   7.3570933  52.4770584   9.3723068
  81.5293350  48.3775024  60.0747414  80.7117538  48.8698807  60.0014801
  82.2117767  49.0483360  60.0967751  85.0461197  32.9828186  21.2836189
  84.5544815  32.3363571  21.7901917  85.7561111  32.4823914  20.8814869
  25.4064770  41.8184357  83.7362061  26.3342781  41.9803467  83.5653229
  25.2810879  40.8941460  83.5212708   5.6610341  59.7169838  85.5388947
   5.9628434  59.1395035  84.8377075   5.3009620  59.1244850  86.1988373
   9.8411875  27.6068249  83.3008804   9.7314196  27.8882923  84.2091599
  10.6147394  28.0805168  82.9951630  57.6689606  63.7613525  30.0443363
  58.2883072  63.0474281  29.8928375  58.0954895  64.3134308  30.6997032
  18.2252464  71.0524445  76.0523376  17.6362171  70.4042435  76.4384842
  17.6833324  71.8339844  75.9439087  35.0700798   0.4059671  76.8983459
  34.7259102   0.3157364  77.7869568  34.7655449   1.2663205  76.6097565
   9.2507448  42.3554039  42.2279778   9.4497061  41.6706734  42.8665657
   8.3642244  42.6398811  42.4502068  41.6360817  15.3910141   0.3246355
  41.0301666  16.0045204  -0.0909483  41.0754318  14.6929655   0.6632136
  86.2986679   3.5825601  25.1451702  85.7718124   2.7998486  25.3064556
  86.9831314   3.5524843  25.8136330   7.5672050  56.0458527  34.4345589
   7.5745873  56.7160645  35.1179276   8.3794746  55.5576439  34.5691071
  25.5571651  45.8396492  83.1605835  26.3469658  45.7568321  82.6261826
  25.8102093  45.4949684  84.0169754  75.4551010   6.3998928  88.2937927
  74.6434174   5.9826684  88.5824661  75.9665527   5.6881490  87.9089966
  66.0002670  12.4357834  68.7988739  66.3810730  11.6279306  69.1432495
  65.5531006  12.1667280  67.9964523  85.6350861  13.6079502  65.6710358
  85.6243744  14.5382862  65.4461060  86.3030701  13.5340023  66.3526230
  42.6943893  38.1017570  29.4877853  43.3879242  37.6357346  29.0208092
  42.6071396  37.6324692  30.3174763   6.8882461  51.9683685  66.5054779
   7.7118945  52.4542580  66.5472565   6.4207497  52.3527641  65.7639160
  72.8311005  40.9228287  52.0816612  73.6340256  41.3994713  52.2922668
  72.1996841  41.6056137  51.8550644  84.1403198  54.6565170  86.1044388
  83.6160965  54.9241791  85.3496017  84.8355255  54.1135445  85.7328110
   4.5810056  42.3707466   5.1924157   4.7508488  41.5458527   5.6473169
   5.4258971  42.8206100   5.1887431  45.0953369   3.4597540  73.2538528
  44.6506195   3.7123895  72.4447632  45.8710899   4.0196042  73.2856293
  62.2733994  45.1395302   1.2242718  62.3228073  46.0795364   1.0505534
  62.2956390  44.7342606   0.3573834  46.1154099  31.6539021  67.8997726
  46.2660217  31.0656357  68.6397018  45.4779739  31.1936760  67.3537903
  41.0045395  39.9895363  20.3234921  40.6594887  39.7146759  19.4740086
  41.8108826  39.4846916  20.4291954  58.6849861  67.4832077  38.8338127
  58.2673454  67.1763611  38.0290451  59.5063553  67.8785095  38.5417099
  25.7400208  48.3257141  23.1549587  26.3350220  47.6850357  22.7654266
  26.2739658  49.1124878  23.2650700  16.4496212  60.2674713  55.6260223
  16.1583443  59.8141365  54.8348999  16.7823467  61.1081047  55.3116074
  54.5976028   3.0618477  44.1070786  53.9787560   2.6352031  43.5144272
  54.4019089   3.9953370  44.0262527  33.9659920  68.5937653  12.8708506
  33.3086967  67.9903946  13.2174606  33.7124481  69.4491501  13.2176371
  62.7023621  37.9941444  69.9123077  63.2520256  38.5791359  70.4337311
  63.2800865  37.2675591  69.6787720  36.1766129  41.8814659  56.2589302
  36.5212326  40.9938278  56.1611252  35.4488602  41.7894440  56.8738594
   0.7424963  20.5839863  64.9691162   0.8167614  20.0611515  64.1707611
   0.6675206  21.4862499  64.6584244  21.8800926  22.4261112  17.0907097
  21.0028591  22.3705215  16.7117596  22.3003922  21.6023960  16.8435802
  61.2543297  44.7134628  46.8033943  62.1757088  44.6123047  47.0422668
  60.9155731  43.8187828  46.7714119  82.2048264  57.2389832   7.1272702
  81.4155045  57.5870514   6.7124743  82.6731567  58.0135117   7.4387178
  64.3746567  16.8425751  17.7301598  64.3676605  17.4969997  17.0316525
  64.4379807  16.0043221  17.2723885  84.0562820  11.9521313  49.1685219
  84.5752411  11.4592485  49.8041153  84.5150070  12.7877073  49.0812378
  71.1017227  37.3147621  44.3815651  70.3803711  37.2861557  43.7530289
  71.5730209  36.4932632  44.2428093  62.0288734   0.5212912  36.4731064
  62.9499893   0.4893626  36.2147331  61.6039238   1.0300529  35.7825890
  13.5136118  57.1866875  24.1859493  14.0395937  57.5202713  24.9127884
  14.1326952  57.1036301  23.4606438   3.0960119  49.6846542  80.9165268
   3.7744784  49.0602684  80.6595078   3.1851044  50.4053421  80.2929077
   7.5263901  14.1755543  16.6446247   6.7064991  14.6274433  16.4451084
   7.3693905  13.2681141  16.3835983  23.9680157  33.6892090  76.5254745
  24.9089909  33.5360489  76.4397964  23.6475086  33.7211838  75.6240921
  81.6294327  21.2572021  46.2085037  81.9899216  20.3711205  46.1747932
  80.6810760  21.1313152  46.1767616  57.8165817  33.2928123  28.8290920
  57.8581924  33.8357811  28.0418911  57.7456360  33.9196930  29.5489655
  46.3879967  37.7547569  38.4779892  46.7187576  37.5394363  37.6059418
  45.5468826  38.1821060  38.3163414  42.0106392  70.0775528  69.6341858
  42.6859512  70.5629196  69.1602631  41.8439026  69.3070602  69.0912476
  45.2495651  30.7018299  82.6072693  45.7176437  31.5271988  82.7333527
  45.2800941  30.2758808  83.4639282  14.8225822  65.7366638  28.3497791
  14.8492136  65.6407547  27.3977680  14.1704006  65.0974960  28.6367474
  32.9592934  56.1499367  18.4904594  32.2649612  56.0831718  19.1459560
  32.5973892  56.7245750  17.8158913  44.1761627  10.7828293  40.5183258
  45.0172348  10.6592789  40.9582901  44.1108475  10.0430984  39.9143677
  85.1676941  68.1648331   3.4952104  85.3819656  69.0087967   3.8927608
  85.6895142  68.1385040   2.6931858  61.0963554  56.9994507  72.3460159
  61.3743820  57.5426521  73.0834885  61.2807541  57.5327377  71.5728226
  23.2230682  52.3919945   0.5739092  22.3076553  52.2826767   0.8313981
  23.3175488  53.3317451   0.4184180  48.7760811  64.0104065  68.0518799
  49.5261078  64.2381973  68.6012497  48.6823616  64.7526245  67.4547577
   1.6806765  61.3760223  18.6649990   1.5078055  62.0856743  18.0463409
   0.9076601  61.3564911  19.2291775  11.0215178   8.5014410  61.8507347
  11.9177771   8.6943836  62.1259155  10.8522291   9.1169033  61.1374474
  53.7763977  47.1286583  85.2060165  53.1289978  46.4343681  85.3287582
  53.2811699  47.9402504  85.3169098  50.7752800  65.3047104  46.3242836
  50.6352348  66.1214371  45.8451500  49.9482765  64.8307724  46.2366219
  27.1369019  38.8383369  70.7063675  26.9072418  38.4859505  69.8465347
  26.4480267  39.4753189  70.8959427  46.0243263  65.5781860  42.3855896
  46.3551445  65.9850311  41.5847969  45.4322586  66.2310715  42.7589912
  77.8553467  59.6488304  27.6304913  78.3888245  59.5860023  28.4227600
  78.0281219  58.8332787  27.1601105  21.2974701  64.7764587  43.0839081
  21.9515896  65.0675888  43.7192039  21.7484455  64.1117630  42.5632973
  85.4215927  20.0658894  50.8549042  85.2835693  20.2586002  51.7822914
  84.7025909  19.4781895  50.6228027  78.5886459  67.4950867  40.9307365
  79.1682587  67.9551849  40.3236198  79.1765060  66.9604797  41.4644432
  28.6171112  33.5215149  82.6413498  29.2549438  34.1105042  82.2382355
  29.1052780  32.7141457  82.8028412  53.6900864   9.2664366  21.9291744
  53.1395187  10.0331554  22.0880795  54.5461311   9.5089741  22.2821541
  84.7640076  40.7808189  89.0984116  83.9967880  40.2208595  88.9798279
  84.5156326  41.6149330  88.6999207  52.0775108  46.5150185  56.5754509
  51.9693069  47.3761940  56.9790611  51.3265495  46.0090294  56.8857231
  83.0775833  28.7391033  79.7132721  82.9005661  27.9724827  79.1681213
  83.5331345  28.3886566  80.4787064  10.1850786  36.8692017  23.2245979
  10.3621321  37.1389771  22.3234291   9.8777590  37.6658936  23.6571178
  69.5563126  60.8711014  70.9261551  70.3640823  61.1799850  71.3364410
  68.9069672  60.8933258  71.6290741  67.7683334  53.0413933  25.9816208
  67.0299454  52.4336624  25.9407578  68.1543808  52.8915596  26.8446083
  19.6906090  36.9307709  21.8404140  19.9437695  36.7082748  22.7363148
  19.9382401  37.8502274  21.7428837  56.1716805  16.0012226  18.0920010
  56.7562828  16.1753750  17.3543377  56.2662544  16.7669525  18.6585236
  40.0702553  15.4376993  68.1055527  40.9631653  15.1007042  68.1788940
  39.5720863  14.7149725  67.7238159  57.4246483  36.7995224  73.8288727
  57.0746498  36.9495735  72.9506836  58.0378075  37.5210991  73.9688492
  56.6780243  22.7492466  51.8778572  56.5669975  21.8618202  51.5367126
  56.4106750  23.3184509  51.1562157  84.5944824  63.3006516   6.2198505
  83.8335037  63.7976837   5.9196744  84.5337296  63.3231430   7.1748557
  52.1674118  12.3623152  17.5423737  51.4226341  12.7583704  17.9947872
  52.9290466  12.8394480  17.8717556   2.0646086   0.9072463  74.8613739
   1.9679089   1.7516366  75.3016968   1.9688898   1.1100353  73.9308090
  66.8997192  36.8428230  44.1647911  65.9575577  36.9044533  44.0074310
  67.1160736  37.6448059  44.6404495  85.2288055  70.8569336  59.6775398
  84.9397888  71.2249756  60.5125542  85.6726685  70.0429077  59.9154015
   3.9833055   7.4983459  24.9838371   4.3081303   8.0393114  24.2640629
   3.0359380   7.6350493  24.9775639  20.8586922   7.4277258  81.2273483
  20.0852566   7.9841037  81.3193970  21.4332047   7.9123702  80.6346512
  80.1210251  38.9879723   3.1310120  80.1919708  38.9845886   4.0855727
  80.8721466  38.4747925   2.8331916  80.9104691  15.5668669  17.3326664
  81.1921082  15.7819195  18.2218571  80.0546875  15.1532907  17.4459171
  19.1261444  14.2353640   7.3688259  18.5362606  13.5009785   7.5389609
  19.8978519  14.0517931   7.9045525   4.9493713  60.1273880  36.7846947
   4.6504207  60.9841957  37.0892296   4.6802044  60.0921402  35.8667984
   0.2110945  42.7468681   3.5309863   1.0404539  42.3702316   3.2368085
  -0.1675758  43.1370468   2.7432039   2.3145807  13.9319305  59.2001915
   2.8775198  14.2035122  58.4752274   2.5040452  13.0006809  59.3146896
  29.5956898  70.8512573   6.9098244  29.3989220  70.0496902   6.4250550
  29.1006527  71.5332870   6.4559479  77.2728348  13.4665136  13.7066860
  77.1339417  14.3436832  14.0637751  76.6593018  12.9118519  14.1885128
  84.6875839  22.1342640  11.0884609  85.0575485  21.5718307  11.7689180
  84.9935455  23.0133266  11.3117771  44.7027473  40.8520088  88.4502106
  45.0530128  41.7251968  88.6265182  43.9198570  41.0100212  87.9226227
  33.9161797  42.1569824  53.6069603  34.1798630  42.9460907  54.0802612
  34.0237503  41.4493256  54.2424812  36.2022057  61.5033264   8.1152849
  35.7105865  61.8572388   8.8564281  36.0907936  60.5551796   8.1848087
   0.7038506  35.8031387  19.4422989   0.6373333  36.2416954  18.5940781
   0.4541573  34.8965569  19.2634315  14.7786732  41.1195946  83.1056519
  14.0931101  40.4963913  83.3461761  14.3458147  41.9729881  83.1298676
  65.8870926  49.4416466  19.5106678  65.5120544  50.0191078  20.1755867
  66.8292542  49.6045189  19.5558357  16.1798840  13.7146673  65.2885056
  16.3138771  13.0727720  64.5911942  15.8021479  14.4743843  64.8453598
   6.0699525   5.3865538  67.9735107   5.7998066   5.8698130  67.1926727
   5.8601575   5.9713869  68.7016525   1.5451757  64.9224625  85.2174911
   1.9733906  65.6988525  84.8568192   0.7917849  65.2658463  85.6978302
  79.2072144   0.3173478  51.8484192  78.4625473   0.5714855  51.3033295
  78.8568268  -0.3528125  52.4352303   3.3819833   7.8701868  64.2688599
   3.0868568   7.2033882  63.6487694   2.5794687   8.3137350  64.5435715
  29.8575592  56.9305611  33.5125237  30.2786369  56.1889572  33.0778389
  29.8557301  57.6248741  32.8536186  29.5219173  48.0093498  86.3201752
  28.9779091  48.3073845  87.0491943  29.7580338  48.8113365  85.8540268
  44.0173454  37.6093826  12.9899063  44.2555313  36.7825584  13.4092636
  44.6486588  37.7069817  12.2770615  34.7230682  71.8397064   7.6129932
  34.7197838  71.0834656   8.1997824  34.3017464  71.5243149   6.8134627
  43.7883377  57.8632202  42.1268997  43.3812752  58.6320724  42.5261459
  43.1460381  57.5575829  41.4863777  41.9590569  54.1727371  56.9916382
  42.0296135  53.4703598  57.6381035  42.2112923  53.7629089  56.1641998
  25.3144913  45.7712822  88.3075333  24.5897331  46.3475037  88.0647812
  25.8274803  45.6803551  87.5045395   8.0547771   6.8089809  81.9986954
   8.4851379   7.4341650  81.4154510   7.5846581   7.3543115  82.6294327
  36.6324654   3.5243335   4.4627790  37.1148834   3.4167106   5.2824860
  37.1677170   4.1276708   3.9472971  13.5387650  67.1519699  82.9556198
  13.2692719  66.2373047  83.0392303  13.1853361  67.4294968  82.1104584
  48.1458092  42.7029266   5.9842401  47.7368355  42.8671341   5.1345277
  48.9304848  42.1949272   5.7782102  17.6034489  59.6273575  30.9427319
  16.9828987  60.2999382  30.6620464  18.4558468  60.0620651  30.9166527
  25.5018177  15.9314041  39.1943779  25.3879108  15.0138273  38.9467697
  24.9150810  16.0526505  39.9408836  81.3658752  52.7586823  52.4909782
  81.8327713  53.4938583  52.8881683  81.1640244  53.0545959  51.6033287
  17.2572651  13.9026470  12.6180201  17.4270992  14.7714291  12.2538681
  17.6953754  13.3008718  12.0162239  22.1244259   0.5195124  31.2074528
  21.4296818  -0.1211558  31.3594532  22.8521767   0.0052587  30.8579445
  49.6253357  31.3675137  14.8369331  49.0036163  32.0635414  14.6242294
  50.2075043  31.7574368  15.4890604  34.9077187   9.1642694  38.7671776
  34.8161774   8.8777962  39.6759033  34.0731544   8.9347391  38.3584595
  54.3882294  57.0370674  11.3109322  55.2139626  56.6534653  11.6063023
  54.6305847  57.9022598  10.9808683   5.9690375   6.9049087  27.0649776
   5.4917645   7.1283441  27.8640518   5.2940769   6.8587723  26.3878288
  17.2093277  10.7831392  65.4590225  17.6979465   9.9915771  65.2333832
  16.3646412  10.4615297  65.7741394  70.5163956  31.1241112  52.9515991
  71.4460602  30.9032764  53.0081596  70.2051697  30.6539688  52.1780777
  18.5509510  26.3305855   1.8146820  19.4940681  26.4859219   1.8659761
  18.1997623  27.1217995   1.4061733   0.9252406   3.2734079  54.9834595
   0.7596874   2.8879640  54.1230774   1.0357399   4.2082276  54.8098717
   5.0292578  33.4986038  77.2711563   4.2818561  33.6819115  77.8403854
   5.7940421  33.7313919  77.7976074  75.2625885  58.1396828  19.3643627
  76.0039139  57.8158607  19.8760319  75.5883255  58.9387398  18.9500675
  12.2426853  15.0830774   2.9804680  11.7941895  14.5626068   3.6469464
  12.2988720  14.5028992   2.2212129  47.4273949   4.1740661  85.0017929
  48.2959938   4.4480171  84.7073059  47.2508392   4.7203293  85.7677231
  31.1063061  60.8403320   6.7458248  30.4507103  60.1458931   6.8104897
  31.8997211  60.3939018   6.4501476  51.0275879  26.3891888  31.7323990
  50.7915077  27.1219864  31.1636219  51.7551689  25.9607601  31.2815037
  10.6532907   7.3230019  73.5584488   9.9110394   6.8772812  73.9666519
  10.8918972   6.7632852  72.8195190  52.6475029  61.0656281  81.2126465
  52.5507545  61.0263481  80.2611542  53.3068848  60.4016113  81.4139633
  72.3203735  33.9626846   0.5464836  72.8803940  33.6317825  -0.1557417
  71.5261993  33.4313431   0.4899920  84.1454239  35.6587448   3.2774978
  84.2104645  34.7373314   3.0265024  83.3190308  35.7186623   3.7567923
  47.5254631  32.4954033  74.8843842  47.4221001  31.8262749  75.5610046
  46.7236176  33.0154724  74.9373703  77.2803497  18.0897350  24.7716045
  78.1066437  17.6778240  25.0241833  76.6231689  17.6670322  25.3244820
  66.1976471  67.8483047   2.9956415  66.9125137  67.2183609   3.0871353
  65.7981262  67.6363297   2.1520324  23.4839325  45.3244934  63.6994972
  23.7951336  45.3178864  62.7943230  23.5108395  44.4063339  63.9687309
  77.1147308  63.6127968  38.2849197  77.0148849  62.6809502  38.0901642
  77.9669800  63.6774368  38.7158699  26.2148075  44.6830025  77.0648193
  26.3288651  45.2946167  76.3373871  25.9730148  45.2364655  77.8074112
   1.2536188  33.4421616  12.3967009   1.0189139  34.1834412  11.8384476
   1.0583869  33.7401466  13.2851381  51.5498886  42.6848412  51.1750832
  50.6988945  43.1207199  51.1298256  52.1361923  43.3424034  51.5493736
  10.9824390   1.5446941  25.3815174  10.0686903   1.6137140  25.6581593
  11.4799519   1.5322695  26.1991711   5.8743181   0.3257637  66.9598923
   5.1597857  -0.2750126  67.1714172   5.9761186   0.2521912  66.0109711
  37.1975098  32.4007263  67.2506943  36.9594345  31.7984715  66.5458298
  38.1239471  32.5896950  67.1015778  85.7766724   8.1596661  75.3725739
  86.1497726   7.2790618  75.3330536  85.1291351   8.1140909  76.0760269
  72.6954041  36.3662567  57.1195564  72.8435898  36.8838768  56.3281403
  71.7451324  36.2590637  57.1612053  79.9945068  20.6325836  24.0518894
  80.0166931  19.9640102  23.3672371  80.7027130  20.3886852  24.6478672
  36.2130699  12.2640371   7.6501617  35.6092224  11.8445158   8.2630243
  35.6761360  12.4627295   6.8830538  85.1213455  70.2125702  45.9244080
  85.2674179  69.9882126  45.0054092  84.2904816  70.6878510  45.9257812
  17.2263813  50.7309418  13.0255184  17.0739288  50.2250214  13.8236637
  18.1351337  51.0229874  13.0969753  77.4918671  15.3255129  61.2662506
  77.4700546  15.6974792  62.1479530  76.5802612  15.1027069  61.0776711
  65.8965302  59.7459679  71.4280167  66.0246582  59.6884842  72.3748550
  66.4732437  59.0727043  71.0669708  56.4758911  33.7020187  69.9908752
  55.5767784  33.5457649  69.7020645  56.6485367  34.6132851  69.7541962
   6.5873284  46.7570152  72.3876877   7.5261378  46.8232536  72.5622711
   6.5189190  46.7811089  71.4332352  86.3920975  45.3116837  73.4141998
  86.2895432  46.0741577  72.8446884  86.9057236  45.6334572  74.1550598
  63.1843910  33.4348412  82.9316864  64.1154327  33.6518440  82.8836975
  62.7852592  34.1873779  83.3682785   2.5402882  10.8434086  62.9061775
   2.5656550  10.3471766  63.7243118   2.3660386  11.7445316  63.1779251
   6.1740642  52.0403519  83.9667587   7.1304517  52.0141106  83.9961853
   5.9729075  52.6403465  83.2485886  84.4266586  42.6226692  53.5469360
  85.0276489  43.1593704  54.0636520  83.8234711  42.2511826  54.1906662
  13.9607382   2.5996964  59.2821007  14.1881046   3.4911358  59.5464363
  14.7789478   2.2332897  58.9466743   5.3241129  52.7116928  45.3056450
   4.6313281  52.9477272  44.6887398   4.8666515  52.5584335  46.1323662
  68.7185059  56.1576042  59.5016708  68.7471924  56.3988113  58.5758057
  68.8848877  55.2150040  59.5088768  62.0806198  40.1697311  77.3292999
  61.4367981  39.8183517  77.9443207  62.8251953  40.4174004  77.8774719
  77.9435196  29.5256233  87.3100128  78.4513397  30.3067131  87.5296783
  78.4977112  29.0446625  86.6953735  24.6098423  65.5317154  66.5726471
  25.0639610  64.7380447  66.8556442  24.8443794  65.6255722  65.6493912
  34.2410469  17.7755604  25.2046394  34.6710281  18.2053509  24.4652977
  34.8141327  17.9521923  25.9506989  52.5327911   6.4208484  10.8502674
  52.2124138   7.2751164  11.1397772  53.0716248   6.6145124  10.0832043
   1.6367409  39.4273224   4.1018658   2.3331375  39.1233482   3.5197461
   0.8362651  39.0538368   3.7331142  32.4201508   1.9819819  38.4194412
  31.6373405   1.9434845  38.9689484  32.1585999   2.5123949  37.6667900
  82.1049957   5.1642470  54.8579979  82.9516678   5.3977213  55.2386246
  81.6786346   4.6326256  55.5301781  86.8220367   1.7938342  80.7527618
  87.1638565   2.6387382  80.4603119  85.9034195   1.9657528  80.9596863
  57.8211861  13.7517576  78.9189911  58.4531631  13.5290394  79.6025314
  57.6927071  12.9352074  78.4363174  39.6210365  16.0004311  82.8173141
  40.1598473  15.5048094  82.2006454  40.0829659  15.9261799  83.6523819
  61.0559235  56.2775421  40.2902565  61.2450752  55.3509674  40.4382782
  61.8564034  56.7306824  40.5550690  80.4505386  45.8221664  70.2357407
  81.3869629  45.7180214  70.4045563  80.0661926  44.9839821  70.4925613
  43.3728790  10.6490726   5.3466787  42.5347786  10.2479572   5.1166258
  43.2750931  11.5680122   5.0972414  30.6755009  53.2104416  77.2045746
  30.0132980  52.6250076  77.5719833  30.5496311  54.0369530  77.6706924
   8.5514650  46.0601807  82.1697998   7.8613954  46.1314507  81.5102844
   8.1800508  45.4919624  82.8446426  69.8956070   0.9513531  19.7768002
  70.4683762   1.7169592  19.7319527  70.0187302   0.5105447  18.9361095
  68.7581177  19.9850559  74.7887039  69.5093002  20.3750095  74.3416061
  68.3405304  19.4384060  74.1231003  29.6555786  45.0080261  56.5653725
  30.5377750  45.3573380  56.4391174  29.6268806  44.2253075  56.0151367
  19.9887295  51.9197693  26.1486111  20.0547104  51.3494682  26.9145336
  19.9199600  51.3181763  25.4072685  51.8166428  12.4163752  37.5615616
  52.7106972  12.0750494  37.5814743  51.9118462  13.3487663  37.7560196
  34.6170959  49.5487900  80.1721725  35.3792877  49.2056313  79.7057648
  33.8673820  49.2554512  79.6543808  82.4456787   6.0435638   9.2474604
  83.3676834   5.8151298   9.3655891  82.4476395   6.9932661   9.1279039
  71.8072662  24.4449539  81.4294968  70.9675751  24.2850876  81.8602905
  71.7867889  25.3745937  81.2023773  79.2289200  48.3872986  73.8486633
  78.7583542  49.1767235  74.1162643  79.4612961  48.5455589  72.9336853
  33.4991570   2.3772047  46.4744453  33.5979156   1.8566588  47.2716331
  34.3816872   2.4215345  46.1064682  86.5407639  61.6814537  49.7123680
  85.6661301  62.0073090  49.9246368  86.5591736  61.6504021  48.7558479
  23.5411453  10.3027878  23.5546417  23.8477631  11.2054090  23.6411953
  24.1953754   9.7818956  24.0203533  41.0230293  70.8810425  78.4412842
  40.3428688  71.5403061  78.3034821  41.0356255  70.3763046  77.6280746
  60.9428520   3.5746086  63.5270538  60.9712257   4.3587604  64.0752640
  60.7108459   3.8989785  62.6568871  57.7553711  31.4836578  72.9905396
  57.0146637  31.0112076  73.3705063  58.5257759  30.9977303  73.2847977
  66.0799484  32.8100471  87.9818268  66.4976730  33.2449570  87.2384644
  65.4593582  33.4559288  88.3193741  41.0423927  71.2035675  45.1114731
  40.5128021  70.5216904  44.6981773  40.4843254  71.9811401  45.0984077
  21.2465172  68.3023529  86.4452057  20.4571552  67.9189224  86.8274612
  21.0705261  68.3248596  85.5045929   8.1234570  45.8275452  26.2180481
   7.9530873  46.7694511  26.2141018   7.5335951  45.4802551  26.8871422
  78.3915939  36.3131790  85.5214157  78.1966248  35.7300682  84.7877960
  79.1689529  35.9323845  85.9300003  85.3585205  66.7870102   7.7268925
  84.5205688  66.5694733   7.3185511  85.1410294  67.4514465   8.3806906
   5.7085280  57.3049774   0.1534534   6.4272304  56.7954559  -0.2208266
   6.0611539  58.1909256   0.2370384  20.1997890  11.9234552  75.9909286
  19.6081429  11.4692440  76.5908279  19.6864986  12.6609163  75.6608963
  80.7678299  64.7514420  55.1637192  80.3862839  64.0311966  54.6618195
  81.1541748  64.3300858  55.9314651  18.4889832  66.8945694  87.2660828
  17.9705639  67.5078125  86.7451172  18.3108673  66.0387802  86.8760300
  33.1273003  16.1824760  11.6609240  32.7411499  15.3324499  11.8720522
  33.3963356  16.5401306  12.5070534  83.3614960  50.2080841  42.2804985
  83.0411453  50.9529800  41.7718430  82.8470078  49.4645424  41.9663734
  45.6461601  31.3473549  20.6283379  45.7320976  30.9334221  21.4871216
  44.7061272  31.4971085  20.5276260  26.1914082  48.9219856   7.8567758
  26.2592335  49.3024979   6.9810805  26.5067406  48.0242043   7.7528949
  36.5089607  49.7860756  84.9497452  36.9519005  48.9396286  85.0094604
  35.6754112  49.5905380  84.5217361  15.2617207  35.5760956   4.3234353
  14.6341038  35.1476364   4.9054594  14.7208662  36.0965919   3.7294743
  14.3796730  42.5761833  20.1223278  13.7003183  42.5556564  19.4483185
  13.9258318  42.3272476  20.9274940  15.4429646  27.7292786  88.2639771
  15.6067305  27.1404228  89.0006332  14.9130859  27.2122288  87.6572495
  76.8556595  32.8387833  37.9120407  76.3506088  33.4415436  37.3662987
  77.5498886  32.5186119  37.3360481  54.2010460  34.2413826  10.9991846
  54.8775826  33.5647583  11.0258579  54.6792831  35.0628357  11.1120110
  16.6734982  47.0740242  38.2898407  16.2407665  47.5206795  37.5621910
  17.4598465  46.6902885  37.9017258   9.6531467  35.3170395   1.4064332
   9.9221687  34.5124016   0.9632456   8.7033434  35.2363892   1.4936171
   9.1260252  41.9759979  83.5170135   9.4789925  42.8654251  83.4932785
   9.0315142  41.7806244  84.4492798  26.9871655  54.5030060  40.7618904
  27.8236523  54.9544220  40.6490021  26.4062328  54.9110527  40.1198273
  67.6340790  21.0691566  37.9873886  67.9232864  20.2531376  38.3956795
  67.4752808  21.6615391  38.7223053  69.3565521  64.5548248  43.3759575
  68.8107834  64.4556046  44.1560364  70.0066757  65.2133713  43.6206741
  48.2660484  41.0131798  84.6468124  48.2045975  41.3839417  83.7664795
  47.3768044  41.0754356  84.9955292  23.5524006  70.7646866  76.3239594
  24.0001640  71.6103592  76.2997818  23.7596512  70.4085541  77.1879272
  30.2641201  21.2567730  14.7702026  30.4015388  20.7425213  13.9746571
  29.3579483  21.5585384  14.7067890  66.0106430  48.8261795  51.0467339
  65.7372437  49.6964798  51.3366661  66.9199600  48.7519341  51.3363342
  22.2784882  30.8019943  86.7031937  21.7614594  30.1211967  87.1338043
  21.6279354  31.3956947  86.3283157  40.8706512  36.9348984  73.1010971
  40.9800568  37.3948021  73.9334106  41.0673141  37.5941277  72.4355316
  58.8396912  25.4349957  14.8972273  58.5717278  25.2032948  14.0079908
  58.3703651  24.8169079  15.4575224  78.4593735  58.1580696   9.5717659
  78.6476746  57.4347076  10.1697016  77.6893539  57.8695564   9.0818071
  74.4756851  40.5457268  49.0085869  74.3753967  39.8516006  49.6600189
  73.5791855  40.7830734  48.7715454  44.4996986   8.5857735  21.5537472
  43.6458282   8.9876442  21.7138634  44.3257828   7.9045687  20.9041748
  21.5565624  68.5263672  64.3231277  21.7983322  67.6033173  64.3990097
  20.8190994  68.6310043  64.9243164  45.1684494  12.2546940  84.4774704
  44.8788071  12.7602091  83.7180023  45.9762154  12.6850471  84.7577286
  38.8123283  58.7390366  73.3210602  39.5367241  58.6414299  72.7030334
  39.2341499  58.9586258  74.1517639  69.3629990   3.0897658   9.3256187
  68.9547501   3.9554520   9.3378544  70.2456970   3.2459528   8.9899282
   8.3148270  35.5139961  26.3842525   7.4052334  35.6939850  26.6218987
   8.7176199  35.2045822  27.1955814  56.5334206   7.5567927  21.1585922
  56.1026306   7.8820410  20.3681068  56.5375137   8.3058081  21.7545719
  82.2980881  26.0901680  87.7766418  83.0717163  26.6341286  87.9244156
  82.5230179  25.2438183  88.1630783  48.2796898  70.4106750  88.3590851
  49.0248718  70.9995422  88.4781265  48.4243622  70.0117111  87.5011063
  74.4256287  45.2288208  53.5582809  73.5633011  45.4358902  53.1980896
  75.0376129  45.4480896  52.8556938  12.9902411  46.6092300  44.9244080
  13.8105011  46.9341774  45.2956390  13.2612228  46.0604973  44.1884117
  77.0281982  68.8306427  18.2295609  76.7248764  68.0131378  18.6244259
  77.7610626  69.1053467  18.7806320  46.9567833  27.8539791  19.0010796
  47.7849960  28.2342205  19.2938461  47.2088394  27.2161922  18.3333015
  82.2655106  29.8255444  41.7744141  81.7754364  30.4373646  41.2251091
  81.9461212  29.9913368  42.6613960  20.5301075  57.2594299  45.3737831
  21.3599682  57.2510452  44.8968239  20.5644970  58.0581093  45.9002457
  18.4925594  19.9083099   6.5686283  19.4041862  19.6672077   6.4041972
  18.3857689  20.7533131   6.1318235  56.3763504  34.7587585  63.7560310
  55.9681969  33.9490395  63.4494438  56.1045837  35.4199181  63.1194458
  80.3473053  62.4896774   3.3332632  80.3647003  62.4469795   2.3771741
  79.5626755  62.0003891   3.5806282  61.3342857  68.8663940  52.3562088
  61.7478676  68.2176514  51.7867126  61.8991013  69.6364899  52.2917099
  27.3410320  49.2817268  84.4542389  26.7386436  49.9875870  84.6890259
  27.0823479  49.0311623  83.5673752  63.7145348  56.9126930  69.5724487
  64.0283203  57.3644257  70.3558426  64.5047913  56.5494614  69.1727142
  72.2599640  13.0762405  71.2278900  72.7472305  12.3120670  70.9199295
  71.3998718  12.9938278  70.8159561  33.8847466  44.3290024  37.4533234
  34.0841637  43.5058441  37.0073700  33.0050163  44.5571480  37.1529007
  68.8700027  41.6489830  43.6561852  68.5244904  42.4726982  43.3121719
  68.9855499  41.8102074  44.5926056  22.6963615  60.1667252  70.6051254
  21.9448586  59.6216698  70.3719025  22.3106880  60.9830627  70.9230576
  44.8014183  56.1818123  26.0649223  44.3521843  55.6419678  26.7152996
  44.1876907  56.8922310  25.8781796  68.3922958   1.5797788  77.9597702
  68.2196884   1.7878056  77.0415344  67.8036346   0.8506547  78.1549225
  32.6702919  55.0685310  39.8578568  31.9705582  55.6342773  40.1842575
  32.2952805  54.6449318  39.0857430  55.1654472  50.6041679  26.9549217
  55.4441605  50.9560471  27.8003407  55.9551888  50.6255722  26.4144764
  34.8088875  13.2411070  18.1334667  34.2978630  13.1188631  17.3333778
  35.7191505  13.1456852  17.8531971   3.2830126  20.0831528  77.6732101
   2.7928088  20.8814869  77.8696671   4.1683235  20.2615204  77.9904480
  44.6581192  62.8174210  87.5092545  43.7369232  62.7053490  87.2745972
  44.9073067  61.9829826  87.9065552  37.8318710  26.1970654  81.7829208
  37.9228897  25.9011402  80.8771744  38.5786972  26.7797241  81.9207230
  12.1862049  65.9779663  55.8454285  11.2666855  65.7339325  55.9510880
  12.6706009  65.2894821  56.3010406  37.6796570  44.7402077  53.5858612
  38.4690208  44.2540932  53.3474770  37.5735207  44.5796661  54.5235138
  46.0860710  38.7454109  20.3940182  46.6992264  39.4804344  20.3907394
  46.6303291  37.9786835  20.2147255  72.5586777  58.5841675  27.9243317
  72.7509995  57.8946686  27.2888489  72.9135818  59.3802681  27.5287304
  31.3094864   1.3715699  22.2050533  31.8467808   2.1339071  22.4204350
  30.4891510   1.7412568  21.8785362  43.6730614  51.7127876   0.3301930
  43.7761040  52.3280449  -0.3958030  42.7311211  51.6980286   0.4997811
  40.6327858  31.7467957   5.0677109  40.7745247  32.4841843   5.6613445
  39.8773041  32.0058517   4.5401030   3.5814266  65.5042953  32.8463554
   4.0299916  65.0500259  33.5595589   2.6521595  65.3353271  33.0017319
  17.8221359  49.0213852  39.7538605  17.5075645  49.0574722  40.6571732
  17.3778992  48.2625275  39.3756752  57.1948814  17.6353016   1.8860707
  57.5787811  17.5151653   1.0174984  57.9474335  17.7420120   2.4678850
  54.3939018  67.7967911  15.0334616  54.2697105  66.9139481  14.6850348
  55.2199860  68.0915527  14.6501465  13.0441904  13.6068316  67.3307953
  13.6371193  14.3559933  67.2722778  12.2622604  13.9532490  67.7606888
  30.4320831  44.2648392   0.7747316  30.3245525  43.8583069   1.6346154
  30.0143623  43.6543427   0.1672484  21.7717762   7.6972427  20.2712536
  21.3466988   8.5459394  20.1477413  21.5022945   7.1815286  19.5112190
  17.9525433  31.4872150  14.2847919  17.2661991  31.7923851  14.8781157
  18.5962715  31.0702610  14.8575001  54.9417000  26.1094303   9.9485817
  54.0310707  26.3952484   9.8758249  55.1026726  25.6155186   9.1446104
  48.2131195  60.4000092  63.1072655  47.2834511  60.1892319  63.1939926
  48.5674820  60.2876587  63.9893303  21.4175415  55.7832642  54.9919167
  20.9161930  56.5699387  55.2064476  22.2801971  55.9364891  55.3773766
  43.6187134  36.7640686  81.5603027  43.4783974  37.4686089  80.9277191
  43.7322845  37.2133102  82.3978729  13.4495926  64.1082764  57.3415604
  13.5650396  64.7739105  58.0196724  13.8717089  63.3268929  57.6986160
  36.4806671  58.4628944  59.4446182  36.1086960  58.0125542  60.2029457
  36.3310165  57.8638916  58.7131615   6.9796505  45.7894783  61.7351303
   7.1813865  44.9656601  61.2914391   7.7078323  46.3680267  61.5087166
  32.7767181  30.9241409  76.7129822  32.6338997  30.6402378  75.8100739
  32.0049706  30.6137352  77.1865692  44.8411064  47.2998123  36.1013145
  45.3745041  47.0177612  36.8443909  44.5793953  46.4855270  35.6715660
  46.0875664  56.7778778  59.4774780  46.3710327  56.2871399  60.2488785
  45.6399384  56.1303825  58.9328537  59.8675957  71.0578232  48.8721275
  60.1130257  71.4662704  49.7022896  59.2530861  71.6744995  48.4742279
  65.5573807  11.1707039  52.9274254  65.1178589  11.7973509  53.5021973
  64.9555206  10.4280415  52.8779984  51.8882027  50.8170586  41.8436165
  52.6445999  50.4192886  41.4124832  51.6801033  50.2193604  42.5617294
  57.5486832  29.2045727  26.9867687  58.2292671  29.8696442  27.0903130
  56.7281723  29.6782742  27.1231384  57.6328812  24.2902794  59.1593208
  58.5514412  24.3937321  58.9107628  57.6279030  24.4023323  60.1099281
   8.4687452  36.9893074  33.9158096   9.3937416  37.2232513  33.9925156
   7.9993677  37.7625999  34.2287598  53.5543404   0.9228894  69.2633514
  53.2242966   1.5410429  68.6112900  53.6701851   0.1045447  68.7805252
  58.9198151  41.8379173  62.8623276  59.0828438  42.7804718  62.8975945
  59.7440262  41.4637718  62.5510063  70.2401962  52.0473709  73.2842484
  70.4719467  51.4133301  73.9628601  70.8696594  51.8866501  72.5812683
  56.8657036  39.7991638  68.0165863  56.6494560  38.8953171  67.7873840
  57.7260513  39.7415810  68.4321823   6.5967202  13.6999578  88.7317047
   5.6647115  13.5001278  88.6441879   6.6214199  14.5066252  89.2463989
  73.0565948  71.5901947  45.9256668  73.0141983  70.6499176  46.0997963
  73.9598236  71.7417603  45.6473846  13.4528694  39.5227699  77.6978455
  13.1204205  38.8132477  77.1480331  12.8527918  40.2511253  77.5377350
  49.0104370   5.8205080  88.6248932  48.9155006   5.8611922  89.5765076
  49.3413811   4.9386120  88.4546967  48.0786781  28.0322571  13.1152916
  47.8268738  27.1089458  13.1331987  48.0832443  28.2971535  14.0350962
  36.2104645  70.8603210  82.6127243  36.4133492  69.9723511  82.3184662
  36.3778419  70.8444824  83.5550461  59.7640686  12.6604252  67.2137146
  59.2059212  13.4365044  67.1646576  59.2011414  11.9419422  66.9253922
   4.7974577  47.9180717  79.1275330   5.4712558  47.8821220  78.4486084
   3.9966581  47.6361885  78.6853867  51.7435570  52.9441910  45.5319443
  51.7261391  53.6206932  46.2089043  50.9363556  53.0808220  45.0359688
  19.1888065   1.4666588  30.1404381  19.6009331   1.4484106  31.0041790
  18.9025669   0.5653115  29.9925442  67.9331665  43.7662010  77.2723846
  67.0739975  43.5632286  77.6423416  68.5119247  43.0908928  77.6262512
  18.4415646  48.9144058  81.6626434  19.1643848  48.3180313  81.8578415
  18.6708660  49.3000031  80.8170929  10.2919760  62.1307793  50.9977150
  10.0073881  61.6207237  50.2393684   9.9440556  63.0084953  50.8402557
  74.2737427  66.1762772  75.8210754  74.6673431  66.1694260  74.9485703
  74.4731064  67.0462570  76.1669388  31.4641247  58.6511078  53.9385605
  31.3036804  57.7326050  53.7221184  32.4129066  58.7527809  53.8630066
  60.6403770  27.3996906  72.0130692  60.8426247  28.0105724  71.3044434
  59.7274742  27.1535587  71.8638611  32.7013855  54.5500374   8.3796711
  31.7824936  54.4466057   8.6270008  33.1725845  53.9416351   8.9489269
  43.0013733   3.4161520  28.7069149  42.0982323   3.3432958  29.0155621
  43.4422989   3.9378524  29.3774700  49.9282990  53.7574043  10.8711748
  50.8375549  54.0177727  11.0184689  49.9110260  53.4499130   9.9648733
  77.9746323  44.1722107  51.3840561  77.6855850  43.3022499  51.1086464
  78.9223251  44.1633835  51.2497444  14.8638792  52.4502258  20.7213345
  14.0894928  52.7453918  21.2003307  15.5822983  52.5429268  21.3470440
  57.4432755  69.7136765  29.0912495  57.2477608  69.5509491  30.0140324
  56.6259918  70.0570755  28.7301998  18.1368008   7.2046237  24.2748070
  18.0331211   6.4150214  24.8058529  18.6277046   7.8066602  24.8340893
  53.7259407   3.2810934  64.3781662  53.1863365   3.8755922  64.8993454
  53.1481895   2.5437987  64.1811142  57.4469299  23.2069263  33.4463730
  58.1881104  23.7518425  33.1818848  57.6929626  22.3215275  33.1784744
  26.7659512  29.2450294  14.1151743  26.4697437  29.6696854  14.9202595
  26.5478249  29.8677273  13.4217043  24.4007912  31.9704132   1.6340628
  24.3544254  32.1385994   2.5752299  24.0733681  32.7743454   1.2306794
  19.4277573  56.7284126  68.6363220  19.8452702  56.8370476  69.4907913
  19.3041401  57.6215096  68.3148727  51.9057579   4.7535810  77.0705643
  51.5649071   4.7655206  77.9649429  51.6133957   3.9147594  76.7140045
  86.3403702  38.2752457  57.3610001  85.7448959  37.5771332  57.6335564
  87.2136383  37.8935547  57.4501038  40.9455948  64.9311371  12.9918814
  41.6190338  64.5394745  13.5480385  40.2203407  65.1165390  13.5884228
  56.8380699   9.1396008   5.8777194  57.2378197   9.8944759   5.4457536
  56.9005356   9.3375273   6.8121471  76.2365036  71.0104523  41.0143204
  76.6709213  70.3452072  41.5481377  75.3259201  70.9969864  41.3090897
  27.0981903  44.8900146   5.2225156  27.4041252  44.5058517   4.4008994
  26.1521835  44.9797020   5.1073632  69.1735611   1.7026502  23.5886536
  68.4246826   1.9481863  24.1319084  69.2447128   2.4082785  22.9458027
  81.1992722   5.3429265  70.0867767  82.0822296   5.6978083  70.1901245
  80.6262360   6.0153871  70.4550858  71.0772400  62.5947762  68.9769516
  70.3378525  62.2556915  69.4814911  70.8098602  62.4945183  68.0633392
  69.5697784  18.6364136  88.5854874  70.1573792  18.4667702  89.3218155
  70.1014557  18.4602833  87.8092651  66.8876343  23.8634815  75.5791931
  66.3361588  24.5809822  75.2672577  67.7541809  24.2560463  75.6851425
  70.0201111  11.0367155  24.2066936  70.6819229  11.3745651  23.6032925
  69.8948059  11.7405014  24.8432598  37.5012703  68.8513031  87.8981400
  37.7887268  68.4391556  87.0834427  37.4056969  68.1244125  88.5135498
   3.1231689  27.5195808  46.2608948   2.4297328  27.8348789  46.8405190
   3.4960237  26.7673435  46.7206230  63.6567192  46.2337227  47.5397224
  64.4006195  46.4912033  48.0842857  62.8879967  46.5154839  48.0356102
  23.1120892   3.3739634  77.4143600  22.2625446   2.9878120  77.6274185
  22.9115124   4.2804928  77.1815414  29.8515930  55.5373878  61.5557594
  29.3850803  55.2752953  62.3494263  29.1649990  55.6374207  60.8963547
  29.0267487  29.6300850  19.6901474  28.6104736  29.7950497  20.5361595
  28.5863361  28.8492165  19.3547173  73.6742554  33.1118126  24.1937027
  73.4306641  32.6872749  23.3711071  74.3620224  32.5537758  24.5567455
  62.6314087   6.7145863  52.6134071  62.0544853   6.2712736  51.9914207
  63.5133247   6.4474659  52.3543663  54.8939514  69.6707535   7.0743995
  53.9698982  69.5536499   7.2949643  55.2529411  68.7834473   7.0678558
  51.0735931  20.7360096  31.9384785  51.6091309  20.9388218  32.7054863
  50.8176498  19.8217068  32.0600395  61.0215492  64.9857712  84.0505981
  61.1957130  65.2721634  83.1540070  60.0806351  65.1184921  84.1659241
  73.8646622  20.3054981   1.1844521  74.2744751  20.2790680   2.0490835
  73.3381958  19.5070877   1.1444238  64.2512741  70.0426559  88.2533112
  63.9175301  70.0370407  89.1504288  64.7062988  70.8808823  88.1722870
  30.5882778   5.4706073  40.9071274  30.7698307   4.6100435  41.2848816
  31.3515987   5.6582847  40.3609123   4.1303744  39.8606796  42.9694328
   3.7460191  39.1663628  42.4342461   3.8607812  40.6719742  42.5389061
  57.7806435  51.8346214  58.1659393  58.5875320  52.2202530  58.5071945
  58.0183716  51.5119095  57.2966995  62.6005936  55.0116272  47.4090614
  62.4780312  55.8345718  47.8823128  63.0181351  55.2680893  46.5867958
  22.1613979  34.0945244  24.1720161  21.8620377  34.9392357  24.5082874
  21.4850159  33.4747047  24.4450836  10.0389347  40.5721855  55.7760239
  10.2715321  40.5284424  56.7035027   9.0841036  40.6393394  55.7714615
  66.0013809  20.3397083  44.2828026  65.1585312  20.2986145  44.7346230
  65.9622269  19.6332817  43.6380844  67.0052185   6.3078671  44.3024101
  66.2464142   5.9977574  43.8081665  67.6343231   5.5882058  44.2519569
   2.6293826  64.9091110  11.2135601   2.3038266  65.5474396  11.8482056
   1.9442862  64.8636322  10.5466223  33.6637764   7.6208944  82.2160187
  33.5434341   7.3739977  83.1329651  32.8377151   8.0369978  81.9696198
  11.3385334  68.7035446  56.3847275  11.5405970  67.7818756  56.2237206
  10.7944317  68.6954422  57.1722031  73.2877197  41.6948433  80.8181229
  73.6360626  41.7758636  81.7060013  74.0547409  41.7773857  80.2514648
  30.1746845  22.9886456  76.0320206  29.2800598  23.2520866  76.2476044
  30.1912498  22.0448284  76.1906586  58.1122932  11.1285744  32.7945633
  57.4978905  11.1519575  33.5281754  58.5709152  10.2941542  32.8927498
  22.8923492  25.4331017   8.4538002  22.9390430  24.7868824   7.7492056
  22.4719315  26.1941071   8.0533609  73.9067535  23.1968231  15.2531080
  74.1228638  23.6902504  14.4618683  72.9531784  23.2510643  15.3162336
  78.1952972  27.9588413  34.3499451  78.4282532  28.8752308  34.2009583
  78.9168701  27.4624462  33.9637299  75.4959412  35.0676804  48.4203720
  75.2148972  34.5872803  47.6416168  74.9807739  35.8742371  48.4031372
  69.6352005  67.7776413  38.1647224  69.0420914  68.4791565  38.4336548
  69.0569611  67.0815582  37.8527260  81.9086609  27.0956936  20.4449902
  81.7624283  27.3021278  21.3681545  81.0446396  26.8492641  20.1148853
  11.0788279  53.1686478   9.9512539  10.6747494  52.7365074  10.7037220
  11.1848125  54.0792847  10.2264643  62.4451599  21.1378269  26.1187553
  62.9673538  21.1159458  26.9206696  61.8046951  20.4353371  26.2307568
  22.0375519   3.0588377   1.3302822  22.8901005   3.4275959   1.5613837
  21.5974579   3.7577784   0.8465137  33.4812660  17.4197979  14.3007326
  34.1926384  17.9485035  14.6621885  32.9476776  17.1850643  15.0599527
  83.2544403  66.4881363  33.8294067  84.1255951  66.8409882  33.6482391
  82.7528763  66.6685028  33.0343399  26.3522224  66.9049759  37.9782143
  27.0256519  66.4565048  38.4896812  25.5735855  66.3565979  38.0743484
   1.7247850  16.7681198  33.7883263   2.4373806  16.2137833  34.1063652
   1.9505588  16.9483604  32.8757629  73.3024063   0.5256770  38.5857544
  72.4442368   0.3505909  38.1995888  73.1075516   0.8549119  39.4631767
  16.4820805  63.6491966  72.9159927  17.0087566  64.2560730  72.3958511
  16.4919338  62.8335724  72.4150925  58.5860252  35.1239777  75.6443024
  59.1843719  34.5326157  75.1876755  58.2200241  35.6753349  74.9527206
  43.1453552  30.2598972  69.6564255  42.7115822  30.6303978  68.8877869
  42.4287987  30.0268440  70.2467346  76.4807816  32.8182793  14.9281778
  76.6171265  31.9741955  15.3584843  76.0560532  32.5985680  14.0989847
  74.4178772  25.8042030  61.8100433  73.6564713  26.3133869  62.0879326
  75.1523438  26.1929855  62.2850685  16.3595219  45.7014465  27.5492039
  16.5382347  45.3365974  26.6824989  15.8664818  46.5031013  27.3745956
  35.6052284  43.4063454   4.8286858  35.6643753  43.1698914   5.7543330
  34.6658058  43.4762535   4.6588964  53.8449440  58.7164993   6.2146497
  53.6934662  59.5027351   5.6901298  54.4622879  58.1989517   5.6976728
  82.7902679  66.0131531   3.7189050  83.2832794  66.7535400   4.0724506
  82.3807068  65.6105576   4.4846783  64.1136017  25.3491306  35.7087135
  63.1892738  25.1975937  35.9059181  64.3389206  26.1351814  36.2062912
  83.9811172  60.8788376  89.1568069  84.6925354  61.5033455  89.2985840
  84.0390167  60.6567421  88.2275314  85.9059067  69.9943008  83.0655136
  85.4572067  69.2856140  82.6043549  85.3906631  70.7753448  82.8637314
  36.1368713  57.9606895  72.9835205  35.9854240  58.0448761  72.0421295
  37.0672607  58.1561737  73.0948563  44.2240982  50.6099739  40.0354958
  44.0457268  51.2923164  40.6826591  44.3201332  49.8095818  40.5516129
  17.8794918  69.0547333  22.3866043  18.5817928  69.3445358  21.8043518
  17.5203342  69.8641510  22.7500172  50.8901863  69.6250000  48.5370636
  50.5367126  69.4621887  47.6625481  50.6037521  68.8727570  49.0550499
  65.7112427  52.8550453  70.4706802  65.1461334  53.0835648  69.7326660
  66.4764252  52.4442520  70.0682068  29.4090099  68.8602676  87.4797592
  30.1579323  68.3811417  87.8344269  29.3574200  68.5813904  86.5655441
  14.2249184  57.8885040  73.1300964  14.1824551  58.7755890  72.7730103
  13.7376490  57.9377899  73.9525146   4.0706010  63.4624939  71.7961884
   3.7065902  63.8513451  72.5914993   5.0178256  63.5596390  71.8939667
  21.3062057   5.7655931   0.9347597  20.5881367   6.3984509   0.9447446
  22.0887184   6.2936983   0.7766085   3.8321159  27.9450817  43.0225143
   3.1950243  28.6505013  42.9096870   3.8368118  27.7749863  43.9644699
  24.5109825  54.6525879   5.6072230  25.0984020  55.3694267   5.3678250
  25.0740089  53.8788033   5.6294184  43.7009354  18.2530308   3.8949261
  43.4829063  18.5482578   4.7789712  42.9371414  17.7480907   3.6158442
  58.3921471   3.5279276  15.2034092  57.8530197   3.7983150  14.4601288
  57.9077988   2.8036330  15.5996857   0.1869844   7.7624125  71.2235641
  -0.1745756   7.4507818  70.3938751   0.9762133   7.2365999  71.3534546
  75.7127838  12.7006636  50.6421127  75.6137314  13.2847681  51.3939400
  76.3166428  12.0220718  50.9439392  10.0671091  48.9811668  15.9984894
  10.0325918  49.8941345  16.2840252   9.1536684  48.6950645  15.9999399
   3.7546613  34.4220505  24.0499401   4.2704759  34.7064819  24.8044376
   2.8679116  34.3129234  24.3934498   3.9059300  45.1029396  69.3460083
   4.6133962  45.7069283  69.5716629   3.2417660  45.6553421  68.9337387
  68.9613953  33.4598770  81.4484711  69.0623779  32.9575768  80.6399384
  69.1978226  34.3550148  81.2054443  43.4193687  27.8198433  23.0684853
  44.1057205  28.4716835  23.2108040  42.8713112  28.1956272  22.3795338
  85.8317413   4.3555102  78.6635818  85.8415909   4.3514128  79.6207199
  85.0099335   3.9235172  78.4306641  83.7760391   3.1940830  86.1677628
  82.9821701   3.6301758  86.4773254  83.8107376   2.3776731  86.6662674
   8.9699879   1.1606044  27.5351334   9.2163601   0.8925877  28.4204006
   8.2610750   1.7906948  27.6642132  81.8023453  66.8808060  61.4036522
  81.7912292  67.8374023  61.3715668  82.0099182  66.6741180  62.3149300
  55.2585297   4.2833238  18.4173641  55.9808693   4.2424645  19.0440903
  54.6234665   4.8742285  18.8220329  37.6516991   2.4288390  28.7253437
  37.4883003   2.1468914  27.8253212  36.8833733   2.1315277  29.2126980
  45.4081573   5.7844911  69.5483856  44.7787628   5.4240670  70.1730423
  44.8780365   6.0350585  68.7918015  77.3660583  46.6957245  47.6591072
  77.1917877  47.5912132  47.9488564  77.1891632  46.7096252  46.7185020
   8.5383358  42.2763519  26.8993320   8.7223978  41.4051857  26.5480156
   7.6476450  42.2123337  27.2440109  71.8744431  12.1159334   4.6449218
  72.0224228  12.1438503   5.5902023  71.1534348  11.4962749   4.5335598
  63.5864258  23.4011097  63.9948921  63.9967308  22.5443611  64.1126404
  63.5126381  23.5029488  63.0459900   2.3161616  28.1722240  26.6171436
   2.1204367  29.1080360  26.6638260   3.2560084  28.1152153  26.7893944
  55.6517754  22.5479507  63.5439339  55.6309013  22.0841732  64.3810196
  56.5098457  22.3381786  63.1752319  14.0412979  38.4073029  65.0314941
  13.5718994  37.9165268  64.3569336  13.4192162  39.0761719  65.3176041
  60.2884827  67.5248718  67.8369064  61.0129852  67.2620468  68.4045715
  60.4524384  67.0676498  67.0121002  70.7347031   4.9660749  81.7208328
  71.4690704   5.5728879  81.6274567  70.7233582   4.7453065  82.6521530
  81.7240982  15.8726149  50.1531792  82.0368042  14.9681387  50.1340027
  81.2197189  15.9688330  49.3453560  77.8404541  45.0830803  83.3102188
  78.7108307  44.7092323  83.4477539  77.9759293  45.7726173  82.6602783
  25.0787926  55.9735031  38.9333115  25.6903286  56.6860123  38.7473412
  24.5502987  56.2958870  39.6633759  60.0600281  20.4445686  10.8664865
  59.2461891  20.1729183  11.2908697  60.0487289  19.9990025  10.0193892
  60.3405037  51.3724060  39.9309502  60.3815346  50.7863045  40.6866188
  59.4050102  51.4668579  39.7516136  13.5891657  58.9563599  37.4214401
  13.4839611  59.7063866  38.0067787  12.8220978  58.9892082  36.8498116
  41.3308449   2.4747927  43.5845490  41.4179306   3.2641511  44.1189270
  40.6684036   1.9517777  44.0360527   4.5734906  51.2995949  88.0134354
   3.8222318  50.7641335  88.2686310   4.8257699  50.9638557  87.1532822
  60.2571640  67.3208084  54.1402130  60.6373291  68.0603409  53.6660881
  59.3801079  67.2238388  53.7692604  68.2268143  30.9265137  28.2596893
  68.5866013  30.2656841  27.6680069  68.6133118  30.7215767  29.1110706
  47.8785324  47.0038872   7.8607030  48.4400444  47.5437012   8.4170647
  48.3974609  46.8538246   7.0704961  83.3974686  50.1829224  30.7775345
  84.1512146  50.4640160  31.2962742  83.3947067  49.2289886  30.8565025
  71.5712280  64.4083176  17.1235847  70.6576309  64.4010010  16.8380852
  72.0057526  65.0115814  16.5206814  74.1293640  59.9769440  14.3278389
  73.3593140  59.9071350  14.8920851  74.5302353  60.8112144  14.5718288
  84.2023010  56.3717041  45.0160599  83.8626633  56.1032791  44.1623421
  83.5998459  55.9789734  45.6477585   7.8986688  59.4527130   3.2922854
   7.8309579  59.5149384   2.3395131   7.7370996  58.5289421   3.4840615
  75.7510376  34.2269020   1.8199612  75.5608978  34.0291634   2.7370090
  75.0675964  33.7699471   1.3297254  48.7435760  34.8097916   1.3152616
  49.6843681  34.6333809   1.3196613  48.6789360  35.7647896   1.3211527
  42.0670547  63.4495964   7.4374547  42.0189285  63.3297310   6.4890094
  42.9603233  63.7552338   7.5952234  43.0979347  23.0160542  68.6698761
  44.0112305  22.7811909  68.5056763  43.1309128  23.9353008  68.9347000
  19.3071232  67.7595062  26.6144085  19.9876156  67.6113510  25.9577408
  19.7779388  67.7762985  27.4476452  61.8685646  37.7509842  21.1878815
  62.5511322  37.9209023  20.5386791  61.0651588  37.6669998  20.6743469
  28.4043350  46.5477219   9.9343262  27.9545612  46.4266014   9.0981045
  28.3614178  45.6894226  10.3558893  68.3142853  21.0125370   0.1124080
  68.8228683  20.2045155   0.0440637  68.9689713  21.6963940   0.2536817
  24.5489902  43.9700089   6.4067187  24.6835117  44.2689285   5.5073948
  23.6034260  43.8386230   6.4765353  17.5268211  59.6608925  69.4417801
  17.0675449  60.4815941  69.6199570  16.9769497  58.9870415  69.8415298
   4.0272117  58.5239983  73.0250626   3.2021673  58.9817810  72.8639069
   4.5739784  59.1673622  73.4760208  45.7844810  38.5416031  64.5772781
  45.4655457  39.4019852  64.3047791  46.6080704  38.7237473  65.0297699
  48.5886078  49.4309654  36.5394745  48.4441910  49.2524948  37.4687347
  49.5305481  49.5858841  36.4688988  50.3803711  41.3125343  72.9744797
  49.7955170  40.6243477  72.6573410  51.2338333  41.0924034  72.6011429
   0.3514137  53.1139069  34.1067619   0.6659396  53.6832008  33.4044724
  -0.5340933  53.4273796  34.2907372  75.3924179  28.9332199   9.8588104
  75.2447739  28.5143890  10.7067575  76.2216797  28.5667343   9.5518093
  59.7443123  66.4672318   8.2365627  59.5360260  65.5522156   8.0478821
  60.6977119  66.5152817   8.1661625  27.0332718  33.0448303  88.5211868
  26.3589344  32.3950081  88.3231201  27.7091427  32.5538368  88.9884720
   3.9565761  32.4783707  12.1497049   4.6699567  32.8589554  12.6620264
   3.1807904  32.9718933  12.4158268  47.2761002  12.4139385  44.2664719
  46.9547768  12.8238907  45.0695419  47.2879066  11.4773769  44.4638138
  51.1523209  11.0304546  65.9013824  51.8016586  10.4024067  66.2178421
  50.3089638  10.6229944  66.0987549   7.7371278  20.9758816  57.2278633
   6.9672432  21.5103645  57.4223824   7.4102488  20.0762253  57.2275124
  68.2681351  68.8807678  41.1777306  68.1762009  69.3469849  40.3468132
  68.8826904  69.4121933  41.6838264  40.9390335   0.8125762  47.8108826
  40.2221375   0.3918049  48.2854805  41.0768089   0.2571989  47.0435448
  35.8261032  32.4271812   4.4516373  35.7012749  31.7533550   3.7833493
  34.9632225  32.8296471   4.5500679  23.9957027  59.0558853   7.0866928
  23.3029079  58.4752197   7.4014845  24.3648434  59.4411163   7.8814034
  85.7595444  20.3839874  81.5798492  86.7121429  20.4677448  81.6219864
  85.5290909  20.7061329  80.7084503  55.5089226  67.0630951  55.2418633
  56.1518021  67.7692795  55.1767311  55.8352661  66.5065842  55.9489861
  61.7353516  62.0553207  75.5616379  60.8481750  62.3025360  75.3008118
  61.6125031  61.4974365  76.3296890  74.5068130  67.8965302   8.9621983
  74.8971405  67.7987518   8.0936861  75.1809769  68.3370743   9.4795542
  74.4963608   4.1828842  33.1867752  73.6752930   4.4994388  33.5634384
  75.1635361   4.7739291  33.5357361  69.0425339  61.2665405  56.2891502
  69.3451309  61.7372627  57.0657387  68.3573990  60.6827507  56.6147575
  58.5461464  43.8577766   4.8095269  58.1553841  44.2595673   5.5854802
  58.6095772  42.9278908   5.0275087  51.8966103  41.2686577  33.2735176
  51.8363724  40.9222603  32.3832283  51.1810837  41.9016609  33.3331528
  33.6674156  54.7461319  78.0245590  33.1510468  54.3316727  78.7157974
  34.3354950  54.0974274  77.8030014  71.9643631  67.7869644  18.7967396
  71.2505035  67.8598862  18.1632404  71.9950485  68.6436310  19.2226639
  63.3672600  43.1242447  68.6191025  62.9445724  43.4823685  69.3996887
  62.6461220  42.9533234  68.0133133  61.8969421  40.2376366  22.9696102
  61.9737740  39.4554634  22.4232273  62.0778770  40.9646721  22.3738651
  28.9154453  14.8276138  77.9061508  28.1451569  14.9548464  77.3523483
  29.4780540  14.2394018  77.4024506  65.4198914  61.6222000  57.9590797
  64.5744095  62.0695801  57.9237823  65.5056381  61.3437347  58.8708572
  85.1551132  44.8398933   8.5501385  85.1177597  43.8884926   8.6484690
  84.2819595  45.1411095   8.8013296   6.6134210  40.3323059  31.8647747
   6.4674549  40.9283676  31.1301727   7.1101470  39.6056900  31.4885807
   9.1573935  16.4087448   8.4468937  10.0797129  16.3835163   8.1920967
   8.9311724  17.3387623   8.4357100  62.3861542  31.7003136  35.5507889
  62.3686180  32.4015770  36.2020607  62.7683449  32.1057701  34.7724800
  19.3737392  20.3711109  30.4155941  19.9348087  20.1321907  31.1533947
  19.6198692  19.7611637  29.7201672  64.6319199  44.5869751  66.7964172
  65.3044586  45.0004921  67.3376389  64.2011795  43.9652710  67.3830872
  14.7502604  13.4007483   4.3124623  14.1415348  13.7047062   4.9857340
  15.2549725  14.1791925   4.0768313   9.3428478  23.2342548  58.3157997
   8.8889494  22.3943157  58.2471657  10.1169729  23.1341438  57.7617798
  29.8163681  65.3311157  57.3748970  30.6748962  65.2772522  57.7947350
  29.4734974  64.4383469  57.4154320  42.9419479  52.6263695   4.3384690
  42.0928421  52.6331520   3.8966496  42.8146095  53.1776352   5.1105595
  80.0259094   5.5910611  10.7060661  79.6826859   4.7811532  10.3285990
  80.6330719   5.9246740  10.0455456  83.7731171  62.3220787  18.9319267
  83.5282974  63.0239677  18.3288956  84.3384476  62.7468796  19.5770416
  18.7291870  67.0751419  70.0832214  18.0411835  67.1793137  69.4259262
  19.5451679  67.1891937  69.5959854  84.0067673  17.2179184  47.2562866
  84.8733749  17.4718266  47.5737038  83.8735809  16.3358135  47.6032524
  47.4075317  33.7610245  26.2883434  47.3622284  33.2353973  25.4896603
  46.7019463  34.4009705  26.1942539  68.8334351  68.7260590   1.1518596
  68.9113007  67.9760056   1.7414328  68.3918533  69.3960648   1.6737002
  19.7367344  30.5731239  21.4627800  19.5772705  31.4364281  21.8442364
  20.4524937  30.2094650  21.9840031  19.8309364  58.4030151  29.3094082
  19.7540054  57.5189743  28.9505444  18.9808960  58.5712471  29.7160568
  21.2614079  54.6937866  17.0887527  20.7851315  55.2549057  17.7007484
  20.7256908  54.6956596  16.2955093  48.4185295  66.2257004  17.4414272
  47.9159889  65.4212723  17.3126793  49.2209091  65.9395752  17.8779430
   9.2314825  48.1508904  56.1567459   8.3838768  47.7132835  56.2361107
   9.7119102  47.8865204  56.9413033  30.7492428  14.0270786  15.7267084
  30.4543743  13.5328226  16.4915581  30.9247227  14.9060564  16.0626221
   4.5137076  62.3226089  53.2323647   4.1907229  63.1727791  53.5309029
   5.4651947  62.3850250  53.3160820  40.3091431  10.1788368  12.0673027
  40.8550682   9.3925800  12.0677290  40.3800621  10.5191774  11.1754665
  68.7068100  13.8843994  81.5578766  69.1062164  13.0173321  81.4878922
  67.9643631  13.7591038  82.1488953  70.8206482  70.0409241  20.6838894
  71.7055740  70.2506027  20.9825211  70.4016800  70.8925552  20.5597191
  24.9828491  59.4040031  46.0625572  24.6667747  60.3067131  46.1005058
  25.7197514  59.4337006  45.4523735  44.3826027  46.3327827  28.0529423
  44.4935799  46.6203461  28.9591560  45.2702942  46.1362152  27.7536201
  73.3670807   5.8079281  77.9778595  73.5398483   6.7395053  78.1140442
  73.5656891   5.6601639  77.0532227  55.0723610  59.9836235  44.0211296
  54.1392365  60.0598030  43.8218689  55.3696327  60.8875275  44.1251640
   7.6267781  12.9992008  19.2733440   7.2478805  12.1206264  19.3011799
   7.4064164  13.3275633  18.4016514  64.0750198  44.6916313  21.5519238
  64.7693710  45.3474312  21.4884529  64.0129547  44.4982834  22.4873352
  27.2927303   5.2740555   0.5512579  26.5933056   5.1986742  -0.0978605
  27.3301754   4.4113617   0.9642826  15.2117214  71.3801651  27.9953384
  15.6454563  70.6525726  27.5495701  14.6557083  71.7752533  27.3237801
  18.0450325  27.7336998  87.4725494  17.1814842  27.9823895  87.8022003
  17.9691639  26.7983284  87.2839813  22.2290592   0.4857320  84.3237152
  23.1259670   0.1863900  84.1747894  22.3220444   1.4040059  84.5774078
   2.5979922  52.7599144  67.4090118   3.1969767  53.5051270  67.3631363
   1.7537464  53.1452866  67.6434631  38.0132904  65.0358810  79.7191849
  38.8437080  65.4602737  79.9348984  37.4183540  65.3038025  80.4195404
  84.2715454  45.1699867  -0.0489379  83.5336609  45.7763863  -0.1124615
  84.5569763  45.2347031   0.8624213  68.9005966  13.3717604  45.8196564
  69.3843994  13.4791422  45.0007324  67.9799194  13.4153185  45.5614128
  17.2377110   9.5288391  76.4120712  16.6436691   9.2354078  77.1028976
  18.0858345   9.1546173  76.6505585   3.4951916  53.2082596  28.8873844
   2.6718955  53.0501976  28.4253979   3.7475832  54.0951080  28.6304302
  35.6813965  64.2449570   5.5455046  35.0651703  63.5339966   5.7216711
  36.5159607  63.9301186   5.8927994  26.9658623  39.1377792  64.7247925
  27.4548569  39.8506737  65.1357651  26.8751068  38.4806404  65.4148407
  50.3900986  48.2147026  76.4815369  50.7025032  47.7775955  75.6893387
  49.6034355  47.7286835  76.7288818  66.9326248  19.5845623  80.9184952
  66.0270691  19.7232361  80.6410828  67.2208862  18.8190956  80.4213028
  31.0106964  24.5290909   3.5464566  31.2379608  25.4583111   3.5127945
  31.6349792  24.1521435   4.1664691  83.4501343  53.6601105  68.4746628
  82.7390518  54.1489220  68.8889694  83.5972137  52.9132080  69.0549545
  53.3840446  33.3205643  83.9832764  54.0766525  32.8604889  83.5090866
  53.1490364  32.7286034  84.6978302  72.7815323  25.7336998  31.7572365
  73.5450363  26.3002205  31.6461506  72.9591904  24.9794102  31.1953487
  30.8469563  60.4200401  76.7501755  31.4451389  60.1164513  76.0673599
  31.4195213  60.6810532  77.4714737  32.9332695  49.8114700  47.7788429
  32.2835770  49.7621803  47.0776291  33.0758514  48.9010239  48.0376778
  38.5419998  68.3875122  56.4180679  38.5944252  67.4580917  56.6409111
  38.0832291  68.4069366  55.5781975  53.1539764  59.6537094  41.6907616
  52.7262993  58.9315033  41.2306061  52.8872948  60.4363518  41.2084961
   9.8847513  19.7494755  14.9769049  10.4748707  19.0400963  14.7224007
   9.8011618  20.2859478  14.1885900  31.7902565  45.8128586  36.5096130
  30.8771610  45.6977959  36.2464676  31.7668114  46.5219841  37.1521263
  65.1911316  13.5103283  54.5700722  66.1174698  13.4343262  54.7988510
  64.7640457  13.7744417  55.3849792   9.0691786  55.7633934  41.2884026
   9.9683046  55.9722137  41.0350304   8.5972738  55.6907883  40.4587860
  65.1444778   5.5781198  12.4245539  65.6047668   6.4173727  12.4201088
  64.7017136   5.5432916  11.5766277  24.2218800   4.0192385  72.1369400
  24.9490929   4.2947283  72.6950607  24.5648041   4.0870829  71.2458572
  24.3378963  67.0167465  50.8304825  24.4606991  66.2096863  51.3302879
  24.6991539  67.7031403  51.3913689   2.7386584  21.1914597   4.8131766
   3.0182366  20.8137436   3.9792709   2.2618673  21.9847145   4.5689468
  44.9447174  22.3661919   0.1408599  44.4099007  21.6668472  -0.2347971
  44.4935188  22.6039658   0.9508689  34.0065536  33.9532623  19.7304630
  34.8204918  33.4670219  19.8620300  33.6143570  33.5576248  18.9520760
  56.0402527  28.9233685  42.6634026  55.9224396  29.7628860  43.1078796
  55.7683525  29.0899601  41.7608795  57.1677666  21.2509594  55.3202209
  57.3475914  22.1398029  55.0138664  56.6816368  21.3724766  56.1357841
  77.3703995  55.5742874  38.3581543  77.1851273  54.9049950  39.0169067
  78.2511673  55.3662033  38.0464325  67.1420746  37.0659904   7.3811865
  67.1979294  37.9986191   7.1730580  67.6306000  36.6344757   6.6802106
   3.7192926  30.7697449  88.0139999   3.6827831  31.7221432  87.9254761
   3.2454529  30.5862656  88.8252029  45.9057388  64.8297729  22.0504570
  45.3055077  65.5082474  22.3596897  46.6397247  64.8615494  22.6640472
   4.3168969  23.6423550  86.2309647   5.2583065  23.7666740  86.1104431
   3.9139681  24.3012829  85.6655502  25.8115578  50.3979187  31.1619015
  26.4611645  50.6243515  31.8274632  25.6131687  51.2280769  30.7286434
  36.8204956  53.4919395  75.9072189  36.8021278  53.7533798  76.8278351
  37.3787918  54.1442413  75.4840851  13.0468607  35.2940636  46.4786034
  13.1202335  35.7508430  45.6406288  13.9340258  35.3084526  46.8377190
  63.7578163  50.9630241  28.7075634  63.4602356  51.0943909  29.6077976
  64.0730209  50.0594025  28.6889515  77.4672241  46.9235573  85.6074829
  77.5273361  46.4835892  84.7595139  77.0464554  47.7611351  85.4134445
  21.4170113  27.7403126  20.8108463  21.8195229  28.0859375  21.6075649
  21.4849930  28.4556236  20.1784382  78.1288605  61.4988937   4.5303025
  77.6391068  60.6787949   4.4685946  78.6294556  61.4184074   5.3421874
   2.5543950  41.3918762  23.7926521   1.9978631  41.8164940  23.1398106
   3.1511688  40.8463745  23.2802868  33.3658752  47.5413551  34.9666367
  32.8481865  46.9560928  35.5195389  34.2507591  47.1774979  34.9953613
  77.3613586  43.3883629   6.9410357  77.7166061  44.2228813   6.6350865
  77.8711319  42.7257347   6.4749026  47.2461929  27.3481827  36.3630104
  46.7269707  26.6139011  36.6908379  46.8069611  28.1252823  36.7085915
  77.8685074  11.8272228  11.7383385  77.9573669  12.0672102  12.6606951
  77.2747574  11.0764341  11.7423315  23.5002384   8.0179844  83.3564148
  23.7802143   8.6319084  82.6774826  23.9368668   8.3243837  84.1512146
  48.0061569  65.8061447  48.0265694  48.0585480  65.2292557  47.2645416
  48.6761284  65.4746323  48.6244545  32.5565796  35.3231468  83.0411148
  32.3912086  34.6353188  83.6859207  31.7426434  35.3833046  82.5409927
  17.5976524  68.4185410  14.0070734  17.2548046  68.8240967  14.8034468
  18.4868717  68.7635117  13.9263382   0.9333807  40.8668671  48.9404297
   1.2842326  40.1564674  49.4775200   0.8440645  41.6030502  49.5456505
  52.2530098  66.5706940  69.5324631  51.6950951  65.7970657  69.6128693
  52.9768066  66.2870178  68.9739990  76.7589264  30.7019691  16.8500786
  76.6997375  29.7750645  16.6186085  75.8797379  31.0452576  16.6906681
  59.6012611  69.7529755  87.9414291  60.1556206  70.5108566  88.1272812
  58.7848396  69.9333801  88.4074097  19.0395374  16.3264847  72.6029053
  18.9423904  17.1087627  72.0599136  18.2246323  16.2792263  73.1028366
  47.2441978  49.6336365   4.8107934  47.2070084  49.7594910   5.7589545
  46.9466934  50.4673805   4.4466629  62.1404648  51.3484459   4.0871620
  62.4141846  52.2641182   4.1406059  61.3063622  51.3200493   4.5558825
  73.1754074   9.1843281  83.4163971  73.1775589   9.4912958  84.3230362
  73.7472229   9.7974968  82.9545670  57.1715775  62.5947838  80.6051559
  56.6436768  63.3084145  80.9633179  56.6426277  62.2411575  79.8900375
  11.5342417  50.7796135  40.9371872  12.2506647  50.5861549  40.3325844
  10.7508221  50.7823029  40.3872070   8.4579525  69.4275665  54.1324120
   8.3590736  69.5454483  53.1876564   9.3187943  69.7960281  54.3309555
  62.0605316  44.5922127  73.6655579  62.7428131  43.9539299  73.8736954
  62.0550919  45.1894875  74.4135361  85.0170135  37.7989159  78.0402679
  84.9295425  38.3007851  78.8506470  85.9611359  37.7471390  77.8913345
  53.4713745  64.2847519  17.4287624  54.2706108  63.7611351  17.3714905
  53.3476486  64.6304245  16.5447769  53.4506454  63.2181625  55.7390366
  54.2684784  63.2086868  56.2363243  53.7265129  63.2967682  54.8258286
  52.3129730  69.2027206  16.2797089  52.6311417  70.0976944  16.3980808
  53.0468864  68.7389679  15.8765507  54.3868980  54.5193977  58.8427048
  54.0148926  54.5633087  59.7235641  55.2703476  54.8753548  58.9377899
  41.2414093  41.4119720   1.8590020  41.6162376  40.5795212   1.5713108
  40.5353622  41.5847015   1.2361913  86.0817947   5.6086903  15.5841150
  85.8627396   5.0256972  14.8572283  86.5014191   6.3621120  15.1687813
  86.8956451  24.9872780  42.9573097  86.0526581  24.7899914  42.5490341
  87.2683640  24.1300716  43.1634903  37.7313538  47.6024323  57.9097443
  37.0465164  47.2681732  58.4889679  37.3969498  47.4437752  57.0270004
   9.6735458  41.6822090   4.3578663   9.2982283  41.1579552   5.0653453
  10.5096798  41.9913712   4.7064781  86.0615768  54.0574226  82.1614914
  85.4439926  53.9138947  82.8785782  85.9867020  53.2716522  81.6200180
   3.1336265  47.6526108  76.7804794   3.1402342  47.1110535  75.9912338
   2.2120862  47.8772087  76.9091339  13.5297832  70.1989822  15.3291969
  13.6991148  70.8283081  14.6281233  14.3971100  69.8819046  15.5810709
  70.0799561  64.1782532  62.6975899  70.1627426  65.1029892  62.9304771
  70.8788986  63.9820404  62.2082748  55.8135490  37.3249321  35.8347130
  54.9957466  37.6335564  36.2248192  55.6122093  37.2246017  34.9043198
   2.9332945  35.9154167  65.5745010   2.0238097  35.8755760  65.8702698
   3.4096317  36.2914352  66.3147354  66.4003983  62.8187485  26.9545727
  66.8997345  62.4746895  26.2139511  67.0506439  63.2699776  27.4929066
  64.7939682  21.5459595  86.2659912  64.8722458  20.6124401  86.0694046
  65.3494492  21.9751644  85.6152573  74.7737045  49.1504135  36.2715569
  75.3152542  49.7313080  36.8058968  73.9414444  49.6145706  36.1813927
  70.7749176  52.4138374   3.5463462  70.3275528  51.5676689   3.5559249
  70.1021347  53.0434113   3.8056316  44.0234528  22.6600285  21.6643295
  43.3928757  23.2769299  22.0358677  44.2029800  22.0440807  22.3746891
  82.8640671  67.8257599  36.1733017  82.4512405  67.2582626  36.8242645
  82.9680862  67.2689667  35.4016838  20.6215000  16.3769855  38.1349792
  20.5746670  15.8605433  37.3304138  20.4605713  17.2769985  37.8515892
   5.9502931   3.3135276  10.3128967   5.6673651   4.2178216  10.4486771
   6.8884940   3.3802152  10.1352358  31.5722198  -0.2763882  24.6055889
  31.4150639   0.5419240  25.0766506  31.5388336  -0.0307498  23.6810474
  34.3331528  49.9341354  43.3606224  34.3282928  49.8483887  44.3139610
  33.8808784  49.1508369  43.0473824  79.4105759   9.2010603  46.0481796
  79.5438461   8.2793274  45.8270912  78.8464050   9.5354548  45.3509560
  41.7268486   3.8078272  83.6850357  41.2381401   2.9918101  83.7923355
  42.0412216   4.0161834  84.5647964  33.8563690  31.3576069   1.7396969
  33.8222542  30.5748253   1.1898570  33.7268448  32.0842400   1.1302204
  50.4373932  63.1656227   1.8460903  50.6773529  62.9232712   2.7404704
  50.5187531  64.1191559   1.8263087  54.8036880  62.3038101  78.9134369
  54.1187286  61.7732887  78.5064926  54.3311958  63.0182686  79.3406754
  50.2630005  24.0767727   4.7757101  49.6113663  24.3708344   4.1392083
  50.1415710  23.1284409   4.8220887  43.4515419  57.8579941  19.2743759
  42.6820107  58.3451195  19.5689201  43.1216888  56.9789696  19.0879860
  10.8741865   1.0029142  46.5780563  10.5867567   1.1416795  45.6756363
  11.3630600   0.1804530  46.5499229  76.8945541  64.3338470  86.7705765
  77.4491653  63.5639992  86.8969421  77.2870941  64.7925110  86.0277634
  28.0588036  67.1295242  70.3552628  27.9307308  66.7584305  71.2282562
  27.2237282  67.5492249  70.1485519  44.5194778  17.1100578  18.8331642
  43.9273720  17.7099476  19.2867851  43.9580383  16.3889275  18.5485783
  56.2652588   1.0592636  87.4493027  55.9218864   0.1669017  87.4942322
  56.2738228   1.3586541  88.3584366  61.2013817  67.8296356  37.9400101
  60.9662361  68.4254456  37.2287102  61.9660034  67.3558655  37.6127052
  61.5918732  16.5181160  51.8490639  61.9336433  17.2776680  51.3773613
  62.0700722  16.5160561  52.6782532   1.1278083   8.5664539  25.1010284
   1.6295575   9.3815594  25.1100712   0.5197524   8.6513386  25.8353958
   2.5880811  21.5018082  21.7403793   2.4230058  22.3094368  22.2269173
   2.6521399  20.8250580  22.4142761  62.5395813  45.1008301  19.1278496
  62.9553452  44.7506981  19.9157448  62.5500832  46.0497513  19.2530155
  45.2414780  50.0401001  25.1623554  45.8241653  49.4770050  25.6718884
  44.3937416  49.5965767  25.1917114  62.0327072  40.5748367  55.4396553
  61.4851913  41.1134338  54.8683662  61.4452705  40.2978363  56.1428032
  20.5890331  65.6625366  12.0888252  21.3783035  66.1990433  12.1625891
  20.7599144  65.0862503  11.3438931  52.6297264  45.6818428  62.9492302
  52.5645447  45.5553169  62.0026703  52.7329521  46.6272278  63.0579567
  10.2546835  27.4794941  15.7892570  10.0667553  27.0947857  14.9331532
   9.8018703  28.3227348  15.7775230  16.1616154  55.4656868  46.0219536
  15.7570972  56.2160301  46.4573669  16.7781696  55.8530769  45.4006462
  40.4072266  39.3241005  88.1243896  40.0016632  38.5293884  87.7777176
  40.0927086  40.0231590  87.5511322  17.4874744  18.6590595  81.6849060
  18.1448936  18.7192574  80.9917908  16.6780033  18.9630013  81.2742844
  22.7700787   4.3952413  74.2909698  21.8912964   4.0390506  74.1601944
  23.2211723   4.2299242  73.4630737  28.0869884   0.9366795  83.4723892
  27.8415012   1.8584183  83.3926086  28.8438568   0.9402500  84.0583649
  32.1891022  57.0002823  35.5351982  31.5000801  56.8219719  34.8951302
  32.9574127  56.5427246  35.1937714  73.0352631  47.8909073  58.8560104
  73.7816086  47.7536964  59.4394226  73.3953705  47.7795219  57.9761581
  68.6329422  24.0157471   3.8353870  68.9353409  24.7290916   3.2733140
  67.9870224  23.5498066   3.3044226  20.0959091  68.8014145  66.7478943
  19.6045513  68.0277252  66.4718475  19.4247017  69.4593353  66.9291687
  53.6229553  36.2202072  55.4840317  53.0901337  36.3363342  56.2706985
  53.1179848  35.6160583  54.9397545  25.6517124   2.1061218  68.3705750
  25.7566261   1.8595723  67.4516449  24.7387104   1.9000943  68.5710983
  53.6359138  29.8164177  34.1978416  54.4733734  29.3570614  34.2601891
  52.9913025  29.1219139  34.0622864  68.0607300  34.8960075  58.1230812
  68.2742767  34.6973534  59.0347633  67.2055740  34.4893150  57.9833031
   1.2966579  29.0150108  43.5071869   1.0547287  28.5097427  44.2833366
   0.7923680  28.6187267  42.7966347   1.3712271   7.1300864  62.2963219
   1.8487794   6.4073529  61.8890953   0.5975816   6.7188888  62.6818352
  17.2488651   6.3157177  81.0532608  17.0837879   5.6676564  81.7380905
  17.6842995   7.0376096  81.5065842   6.1104021  63.1771126  82.6745377
   5.8103905  63.9692688  82.2287674   5.7828679  63.2672386  83.5694351
  83.1274033  30.4286728  66.0526810  82.9081497  29.7250996  66.6635284
  83.7951965  30.9416103  66.5078506  45.9518471  14.1319017  69.0339432
  46.6071091  14.5304289  68.4611969  45.6726379  13.3444347  68.5668564
  60.0293694  46.4771614  30.4389400  60.3480148  45.8141556  31.0514107
  59.2968712  46.0556793  29.9894581  69.2988205  29.8111649   8.0556183
  68.4968185  29.4774590   8.4576988  69.1020126  30.7254486   7.8516922
  77.5019379  68.4389572  77.5577545  77.8608551  69.0316849  76.8973846
  77.4571533  68.9672089  78.3547363  48.4870834  61.1528931  43.4483986
  47.8972397  60.4045639  43.3571892  48.3977356  61.6302223  42.6235313
  32.2458725  60.2936592  74.1143570  33.1652145  60.1054382  74.3030777
  31.9877090  59.6199875  73.4852676  34.8729973  26.6891003  89.1374207
  34.5448685  25.9338646  89.6254578  34.7628708  26.4464149  88.2180634
  70.4370880  44.3221092  13.1734533  70.3260193  43.4343452  13.5136995
  70.0035095  44.3075790  12.3202047  21.0362453  48.5243645  25.3710346
  21.4156685  48.0918922  26.1360435  21.7133236  48.4575005  24.6977406
  10.6570539  62.5466652  83.8852768   9.9273024  62.4540405  83.2728119
  10.2415724  62.7430458  84.7249451  66.4352188  30.5236073   9.6250095
  65.5082245  30.5963860   9.8521852  66.5219574  29.6469536   9.2505980
  14.2942896  69.3871078  23.9425087  13.9233074  69.0929489  23.1105995
  14.3561306  70.3382187  23.8542061  85.2497482  12.5835619  60.7188950
  85.9360275  12.0127029  61.0643883  84.5049438  12.4436703  61.3036423
  45.1884232  32.3570175  71.7804413  46.0434036  32.6817703  71.4979935
  44.8052292  33.0852165  72.2694473  84.6029739  46.8882828  36.9468536
  84.7313004  46.6562309  37.8665924  84.4469299  47.8326187  36.9576187
  44.2843475   0.7576126  56.5068207  43.7138023   1.5085560  56.3431358
  44.4147301   0.7580749  57.4551010  70.4154053  53.1967354  82.2964630
  70.1577988  53.0555153  81.3854599  71.2323685  53.6923676  82.2402725
  28.6352177  40.6673889  66.2904587  29.1183414  41.2923889  66.8310089
  29.3127861  40.1197014  65.8940048  71.7297516  31.0368004  45.2304573
  71.9194870  31.6619301  44.5308533  72.5888672  30.7151585  45.5037498
  82.2035904  34.1702194  38.9129028  81.3764191  34.5695801  39.1822128
  82.0634613  33.2300415  39.0254211  69.2477646  45.3610573  38.5963364
  69.0148544  44.4715576  38.3302994  68.6566162  45.5561028  39.3234825
  31.4041805  57.3357315  80.7276917  31.1719131  57.2806129  79.8007355
  32.3494148  57.4865913  80.7292023  84.0953827  28.7330189  24.9373112
  83.3475266  29.3155823  25.0698280  84.6990585  28.9530544  25.6468086
   4.7480731  48.5896492  26.6961594   4.6716328  49.5380821  26.8003712
   5.3047781  48.3128242  27.4239483  46.0144653  48.3870125  78.4274139
  46.3170319  49.1987801  78.8345032  45.9707260  47.7592049  79.1486435
   9.8948460  66.7944717  47.9490128  10.3538132  66.1794434  47.3768921
   9.5823860  67.4815979  47.3604088  33.2874527  21.8494511   4.0107093
  34.0151482  21.3074284   3.7059047  32.5863533  21.2254620   4.1986675
  50.2898293  18.1843700  31.8038921  50.4232635  17.7690277  30.9518852
  50.0628204  17.4620705  32.3895378  10.7843761  22.9348354  30.1808109
  10.5774403  23.7995205  29.8262272  10.0964451  22.7694321  30.8255005
  61.0723648  65.1054382  81.1347046  61.5419083  65.6760712  80.5263062
  60.7003212  64.4191895  80.5807419  15.0040655  33.9156303  79.0037613
  14.2994289  33.4574509  78.5457382  15.1070423  34.7373962  78.5238419
  59.7941132  57.7922668  55.5385246  59.3328247  58.4152565  56.1000671
  59.6444588  56.9415970  55.9510765  24.7317772  36.7691383  19.0858421
  24.8322506  36.5334015  18.1635799  23.8275700  37.0748672  19.1577740
  25.7528229  15.9575996   9.3137245  24.9399738  16.4502678   9.4267883
  26.4354630  16.5434742   9.6408091  26.8224010  70.6538162   9.6452723
  26.2994614  70.3829422  10.3998547  27.2812271  69.8587418   9.3740225
  74.6648026   7.8346639  13.9691229  73.9508896   8.1574783  14.5189838
  74.2265091   7.4331613  13.2188377  81.4106293  49.8125763  33.3799667
  80.5305557  49.5558929  33.1046257  81.9833298  49.4871483  32.6854630
   9.7399254  65.4360504  21.2423592  10.1244116  64.7028198  21.7227497
   9.5028095  65.0669861  20.3915939  82.6146622   6.8032889  79.2020340
  82.7673111   5.8980517  79.4730988  82.2617264   7.2307072  79.9824066
  57.4698029  13.7454462  11.9920311  57.2058640  13.0996780  12.6474314
  57.4916725  13.2565937  11.1693668  53.9017105  45.4398537  18.0253162
  53.0463066  45.1592865  17.7000542  54.1682587  46.1378975  17.4270477
  27.7726746  61.9955826   3.7481787  27.7885380  62.5908318   2.9987414
  28.4973907  62.2874107   4.3012185  70.0539169  57.4088326   7.9646301
  70.4451447  57.4155998   8.8381987  70.3113861  58.2468643   7.5803876
  26.4127464  57.6946144  49.2105331  25.8333321  56.9397583  49.1070786
  26.8087845  57.8126640  48.3471375  46.1114883   7.0691085  39.3961868
  46.3091316   6.3772583  38.7649078  46.6409111   7.8132715  39.1095390
  42.6104584  57.9052353  11.0491009  41.8676262  58.4813843  11.2293396
  43.2394447  58.4618874  10.5900269  10.8611593  30.8405571  22.2327766
  10.4862881  30.1136303  21.7355042  11.7746420  30.5902519  22.3710842
  82.0003662  43.7027512  71.9608612  81.6224670  44.1976204  72.6878586
  82.3614120  42.9157448  72.3688965   5.8800797  46.2152977  12.9435186
   5.3982453  46.3594398  13.7579451   6.5562797  45.5785065  13.1747799
  37.7618179  36.0709534  26.3970833  37.8908615  36.7130928  25.6990585
  38.3991508  35.3818779  26.2094421  58.1624985  12.3368988  41.2053185
  58.4187737  12.7787800  40.3958168  58.9172363  11.7929535  41.4305458
  24.5980434  45.8935165  41.0422516  24.2361526  46.7143936  40.7084503
  24.5103073  45.9621353  41.9929466  78.1936264  65.6614990  17.2677822
  78.0842743  66.2710342  17.9976730  77.3861542  65.1475067  17.2619495
  59.9183083   8.9584866  82.5442886  59.8916855   9.5644751  83.2847595
  59.7468834   8.0998983  82.9311600  77.5432281  36.8922844  80.8922195
  78.2534790  37.2214432  81.4430542  77.4728851  37.5325165  80.1841354
  74.9921265   3.0761046  18.1204395  74.2304153   3.0248318  18.6978436
  75.7127151   3.3310511  18.6966267  18.5070839  40.0525322  40.6938438
  17.7836685  40.3264122  40.1300240  18.5512810  39.1028633  40.5824471
  55.0237503  68.5290985   2.0760643  55.2399292  67.9588699   1.3382699
  55.7118416  68.3595047   2.7194932   9.9953957   1.6273136  13.9556313
   9.5693483   1.7337514  13.1051102   9.2833109   1.3996035  14.5533895
  39.7243805  16.6850452  21.7279339  39.6482925  17.0378704  20.8413906
  39.9992218  15.7769070  21.6015263  30.6747799  32.6425552   5.2941093
  29.7899647  32.8540306   5.5917878  30.5870457  32.5223656   4.3485470
  61.2053909  25.1739445  25.8391724  60.6740875  25.9303703  26.0877056
  61.9665260  25.2152481  26.4181347  75.3192596   2.2233453  60.6853638
  75.1965942   3.0550609  61.1430054  75.5107651   1.5935637  61.3802986
  17.0576229  12.0453386  14.6337194  16.8083324  11.3030653  14.0831594
  17.1445847  12.7776356  14.0234652  82.3332291  51.3836174  35.6500282
  82.0260239  50.7646484  34.9876595  82.2992172  52.2358475  35.2155380
  39.3527679  12.7600126  88.2169342  39.9864998  12.4203758  88.8488083
  38.7007523  12.0641460  88.1340027  65.7301178  17.8760300  10.5122099
  65.6913376  16.9275875  10.3889894  65.1275253  18.2275429   9.8568096
   0.5666528  35.9120560  10.9316778   0.9386098  36.3877449  10.1889811
  -0.1961290  36.4295273  11.1897850  55.9685631  34.0482445  86.6649857
  56.6082039  33.3789749  86.9082336  55.2393227  33.5565491  86.2872543
  46.5431099  71.7357712  45.0466042  46.9637642  70.9134521  45.2977638
  46.1661720  71.5585175  44.1847839  46.3267860  42.6332359  28.1871319
  45.7871780  42.2961464  27.4719925  47.0783272  42.0413246  28.2196484
  80.2750854  46.2016029  67.4811630  79.7096863  45.5711708  67.0349350
  80.4156952  45.8244514  68.3496170  11.0142107   1.4701598  52.5159760
  11.3742352   0.8410711  51.8907852  11.7827740   1.8677921  52.9251595
  23.9846802  49.1604691  89.1859360  24.5265694  49.0747147  88.4015732
  24.4689026  49.7667389  89.7464752  81.2670288  52.9862556  45.2193031
  80.8587494  53.5744972  45.8545265  82.1214523  53.3800468  45.0428848
  67.4568558  43.6179123  28.5967751  67.2320251  43.1695633  29.4120464
  66.6633301  44.0985146  28.3610382  61.7759743  19.6876316  57.6188507
  60.9608459  20.0726624  57.9406471  61.6874123  19.7011967  56.6658554
  48.3939438  42.6609917  87.7817078  48.3610611  43.3378983  88.4576874
  47.8583717  41.9482803  88.1301880  34.5831985  15.6449919   6.1875086
  35.3231506  15.0725107   6.3899193  34.1051712  15.7196150   7.0134339
  82.7396011  39.7004776  82.4615021  83.4367905  39.8851776  83.0908279
  83.0868835  40.0049896  81.6231079  38.4138565  51.9287682  34.5448875
  38.5105362  51.2266083  33.9015694  38.7568398  52.7062187  34.1042442
  32.4762077  66.5410233   2.1822133  32.7547112  65.6370544   2.0355749
  32.1185188  66.5404129   3.0700705  78.7658005  41.3346519   3.4703262
  79.3413239  40.5931396   3.2827935  78.5871124  41.7218704   2.6133769
  61.0551376  21.7928295  19.9117031  60.7313461  22.3943100  19.2411728
  61.6138954  22.3341522  20.4693699  43.6149483  27.7677116  79.7786636
  43.1429176  26.9900455  80.0764084  43.0005531  28.2116451  79.1941299
  23.8564262  35.5510330  12.9968424  23.5074577  35.8257065  13.8447866
  23.5927200  34.6345367  12.9148235  42.1310272  59.9379425  84.6058807
  42.0547180  59.4779892  83.7699051  42.6061440  60.7415924  84.3945847
  67.1268158  69.6258316  23.4433537  67.5497513  70.3194122  22.9370861
  66.3017044  69.4644318  22.9857788  45.0526886  18.4429779   1.4409758
  44.9793434  17.5302162   1.1621909  44.4659843  18.5112381   2.1942017
  50.9052887  54.8798981  32.7657661  50.2423973  54.6350517  33.4114113
  51.7321167  54.5859909  33.1481361  44.8325081  70.5728226  51.3448601
  44.0237656  70.9913330  51.6398430  45.2780190  70.3167343  52.1524353
  83.2308426  57.4797058  73.4991379  83.7144012  56.6669235  73.3515167
  83.1552429  57.5438805  74.4511871  44.1152115   4.1769466  80.0756760
  43.5638161   4.9471521  80.2134399  43.5077515   3.4961715  79.7862473
  18.9118195  36.9952354   9.7029057  19.4464149  37.3308144  10.4225063
  19.3121338  36.1551781   9.4786654  35.2165031  54.5065498   1.5183867
  35.1978951  54.2704887   2.4458346  34.6185837  53.8862495   1.1013110
  74.5306168  28.4620094  79.2410736  75.1257401  27.9230156  78.7199707
  73.7445145  28.5417480  78.7007828  53.9723701  29.9262943  48.1236954
  54.6687775  29.8374043  48.7743492  53.3346138  29.2534676  48.3620262
  60.2719574  10.0457277  86.2276764  59.8431435  10.7039757  85.6808167
  59.7516823   9.2524719  86.1000519  62.7347450  18.8523293  50.8498764
  63.4865990  18.2709160  50.9634628  63.0907822  19.7317867  50.9764709
  56.8377686  26.3699932  11.7955990  56.2038689  26.4806137  11.0869598
  57.5214729  27.0130749  11.6079149  19.2452869  68.9821243  51.9162827
  18.5951729  68.4899216  51.4149590  20.0544815  68.4806213  51.8166046
   2.8136723  50.0190353  68.9959793   3.2303665  50.6185379  68.3769531
   1.8781294  50.2055473  68.9172058  27.0976200  33.9126396  16.6260490
  27.0311470  34.8365517  16.8672962  28.0385246  33.7383690  16.6024036
  34.5444183  20.5158539  10.4042435  34.8791656  21.4110355  10.3510714
  34.8448448  20.1979790  11.2556715   1.7590690  27.2400227   1.9403555
   1.9425230  26.4867268   2.5017123   2.4526196  27.2218380   1.2808944
  61.3713417  52.8645287  83.4906311  61.2399292  53.6577492  84.0100250
  61.9525566  52.3224754  84.0241089  32.7725792  52.4057922  26.0449448
  32.4592323  52.5568047  26.9367085  33.3954735  51.6838684  26.1289787
  66.3934784  61.0087395  19.0328770  67.0184708  61.7285233  19.1196594
  66.7392578  60.4763641  18.3164635  49.3081207   3.4418526  46.3850784
  49.9149704   4.1245089  46.0988121  48.6646957   3.9034758  46.9227943
  70.5808640  68.6281433  66.0416565  70.6096725  69.5814819  66.1225128
  71.4429703  68.3905640  65.7002411  83.1807556  64.8816986  60.2019806
  82.6160507  65.5892029  60.5130692  83.1499329  64.2265167  60.8991280
  17.1527023   8.4972715  71.2456207  16.2115192   8.3548460  71.1450119
  17.2451744   8.8793955  72.1183548  13.0299454  33.1807823  70.4254303
  12.6447468  32.3325500  70.2055359  13.4175892  33.4875221  69.6057434
  73.4207840  20.5645351  84.7468796  73.6619492  21.2909241  84.1720505
  74.2448807  20.1068649  84.9131165  32.2523880  18.7042751   4.5135140
  31.8653717  19.2818413   5.1714411  31.5028496  18.3506470   4.0345860
  25.9214649   1.5028293  65.6551208  25.2900200   1.3849618  64.9454575
  26.0331993   2.4511831  65.7212448  11.1887617  35.5945053  12.0048723
  10.6083879  34.8827133  12.2745924  11.3004808  35.4684525  11.0626087
  36.8872337  62.3999252  29.8762379  36.2830696  62.1922035  29.1634483
  36.5989952  63.2560844  30.1926880  67.9187012   2.4427736  88.4683456
  67.8994522   2.7275414  87.5546875  68.1719437   3.2253823  88.9578552
  21.1895771   2.5557089  62.4637642  22.0748692   2.8328810  62.6997032
  20.6381893   2.8858702  63.1731300  50.8536072  40.2719765  44.2088318
  50.9664917  39.6355515  43.5028229  51.5339890  40.0483856  44.8439026
  71.7044296  25.0726147  60.0196991  71.0597992  25.0472698  60.7268333
  71.9021835  24.1529236  59.8427963  75.9035950  44.7536736  48.7941132
  76.0359039  45.2196045  49.6197243  76.6393509  45.0251617  48.2453079
  47.4631538  67.5632629  14.4967461  48.3453712  67.2720795  14.2662430
  47.5826416  68.4558868  14.8210545  13.1033459   9.4490576  20.5334969
  13.0625744   9.9107494  21.3709984  13.7178860   8.7310905  20.6854649
  57.0676155  65.0595856  23.2828999  57.7464752  65.7071304  23.4728107
  56.3183708  65.3363113  23.8104267  22.2389946  39.5083160  27.4797688
  22.9130363  40.0972595  27.1405792  22.4974861  38.6420288  27.1651974
  50.5311050  27.3035145  76.0199814  49.9018974  27.5966187  76.6790848
  51.3846893  27.5448227  76.3796997  71.4942017  11.5508165  33.5829048
  71.1334000  10.7818537  33.1416054  71.8625183  12.0815105  32.8765488
  40.4774971  26.5977173  11.4279070  39.9891663  26.5895691  10.6046829
  40.4649773  27.5139198  11.7047577  57.0249481  71.8840332   4.0137501
  56.9449615  71.1886597   3.3608429  57.2234955  71.4247284   4.8297453
  31.8198128  51.5903778   7.0804195  31.8968258  50.8079109   7.6263566
  32.4536171  51.4543610   6.3761287  80.3856583   3.4466779  20.0410118
  80.3673325   4.0735965  19.3179150  79.9532089   2.6668882  19.6929569
  35.6185913   1.6459697  81.0137482  35.8424225   0.7656193  81.3155975
  36.3309135   1.8840282  80.4203186  68.1057510  60.9027290  73.2477188
  67.2107773  61.2014923  73.4089432  68.6323013  61.3581848  73.9046326
  56.6628151  30.9071293  70.1204224  56.2243729  31.0088596  70.9652023
  56.7681046  31.8014908  69.7959824  73.8324966  56.8608360  45.8817940
  73.4757385  56.2696533  45.2188759  73.6121445  56.4462509  46.7159386
  71.5309372  35.0415535  36.1288910  71.9801407  34.7880859  35.3225365
  72.1913147  35.5191002  36.6309738  17.2383385  21.0192165  13.8369656
  17.3344116  20.2260914  13.3097515  17.4553089  21.7331200  13.2373838
  38.8029556  68.8286743  66.6062164  38.8041458  68.2698441  65.8290787
  38.0224686  69.3740234  66.5078735  83.6318054  50.0102425  85.2214508
  82.7209320  49.8090172  85.0068359  83.9990082  49.1759109  85.5134811
   4.0980830  36.4765320  77.8129425   3.8227203  36.4439278  76.8967819
   3.8488088  35.6234779  78.1684647  73.3043518  56.9165421  14.9267330
  73.7563934  56.2706718  14.3838282  73.9352570  57.6294937  15.0261641
  20.4485397   4.5807862  51.2325935  19.7946148   4.0067463  50.8337288
  21.2842484   4.2702475  50.8841858  51.3664513  62.6103134   4.1611466
  52.0215836  62.1673470   4.7004180  50.5418396  62.4775085   4.6287026
   0.0497012   7.7727609  53.3027954   0.6137803   8.0021105  52.5642509
   0.5499015   7.1199226  53.7925224  72.0009232  68.5961456   9.7641964
  71.9958649  68.9253159  10.6630030  72.9288406  68.5040131   9.5480871
  35.2723923  53.7165718  68.5359955  35.9309425  54.3670921  68.2923355
  34.5974731  54.2185249  68.9928894  68.1798248  24.1111012  48.1749916
  67.5898056  24.8641586  48.2067719  68.0108337  23.6398258  48.9908180
  79.7077484  56.6580925  40.4360924  79.5234451  57.4871407  40.8776131
  79.4075851  56.7934837  39.5373116  57.7459183  67.9934769  23.4833832
  57.6586685  68.4602280  22.6522617  56.9484291  68.2118912  23.9656067
  49.1559639  15.6965294  33.3052521  48.4656181  16.0449753  33.8693810
  49.8999825  15.5622072  33.8922997  48.3007507  14.0439415  88.4392242
  48.2034302  14.6405630  89.1813889  49.2456818  13.9142904  88.3584518
  59.7241096  18.3649235  76.1334763  59.9880600  17.5169296  76.4905014
  60.1001472  18.3817921  75.2533951   9.7118387  69.0237045  79.4765549
   9.5976830  69.7568283  80.0813141   9.6320868  68.2445984  80.0268936
  32.5530434  31.3935413  73.9063034  33.3720589  31.7503529  73.5625992
  31.9301147  32.1173058  73.8403168  83.8819962  57.1986351   2.1933560
  83.4012680  56.5091057   2.6512673  84.8035812  56.9915199   2.3483148
  43.7971725  49.3787994  58.0500488  42.9485664  48.9920769  58.2657928
  44.0512505  48.9563637  57.2295494  61.5758209   3.2742994  67.9172134
  61.6745110   4.2263541  67.9080353  61.0473709   3.0808058  67.1429214
  78.8782349  30.9043751  49.9726906  79.0381470  30.5516300  50.8480339
  79.1743011  31.8132477  50.0229492  41.6349030  46.3360062   1.3339628
  41.9172020  46.9459801   2.0154850  42.2031517  45.5737000   1.4444650
  51.7055244  31.8291016  22.6399708  51.6931458  30.9603958  23.0417557
  52.3048210  31.7416439  21.8987389  75.3553925  35.8226547  57.8908615
  74.4860992  36.1697235  57.6906204  75.9608383  36.4606934  57.5132713
  32.4827080  61.6786346  11.6583223  33.3206444  61.8277168  11.2202921
  32.0121651  61.0803185  11.0779448  50.5893860  21.4889278   8.4321671
  50.2528076  20.6087856   8.6003923  51.2597160  21.3646450   7.7602715
  62.2046585  33.2391701  77.1755676  62.9995804  32.9871788  77.6455002
  61.6599846  32.4521294  77.1870346  40.3387527  35.9760628   0.1757670
  41.2686195  36.0743446  -0.0289792  40.3252220  35.4945107   1.0029038
  67.6797714  37.2119408  54.4591103  68.1167297  37.8040924  53.8470192
  66.7504425  37.2863464  54.2422180   2.8850446  66.8178864  64.9829178
   2.6557183  66.1919022  64.2960510   3.8355832  66.9088898  64.9163971
  28.5097103   3.0733862   9.8526802  28.5245495   2.4309967  10.5621500
  29.4171314   3.3687522   9.7779951  27.7779751  56.5243950  14.7867117
  27.6069927  55.5914612  14.9156742  28.6961746  56.5648918  14.5193195
   0.4681211  65.2357330  14.8047037   1.0887750  65.0507584  15.5095463
   0.0193085  66.0337067  15.0840616   7.7512970  36.9921951   3.0071292
   7.0815225  36.4932747   3.4747939   8.3056393  37.3550873   3.6979604
  40.7400398  57.7876778  71.2281265  41.2255211  57.6774559  72.0456772
  41.2039909  57.2365112  70.5978928  72.4882660  17.5721455  20.5855122
  73.2392654  16.9797249  20.6212463  72.5391464  18.0727539  21.3997803
  80.4870605  38.2042427  45.2759895  80.0777817  37.3804016  45.0113983
  80.2656555  38.2948494  46.2028160  52.6484642  20.8919697  16.2047710
  52.5303612  20.2037048  16.8594265  52.7565041  21.6934986  16.7167397
  52.3635178  64.7084045  38.9028664  52.6164703  65.3203583  39.5940704
  51.8232040  65.2287292  38.3082581  76.8777695  69.3901901  50.9237404
  77.0044327  68.8564758  51.7081757  76.5273209  68.7811890  50.2737122
  64.6017075  56.6497536  36.6568222  65.0873489  56.5445938  35.8386993
  63.7758102  56.1900291  36.5058899  12.8068094  70.6182098  47.9231033
  12.5677671  69.9449081  47.2861099  13.5703812  71.0500183  47.5400467
  75.4984512  56.5042572   5.7382102  74.5528946  56.3618240   5.7813034
  75.8002090  55.9042625   5.0561671  51.3150902  28.9899998  81.8476028
  50.9194946  28.2615643  81.3689423  51.0170670  29.7719517  81.3828812
  54.7555466   8.5577850  28.5241585  55.2557411   8.1749144  29.2448845
  55.3652115   8.5640221  27.7862549  59.9527168  70.3775558  30.1440525
  60.1122780  70.9919205  29.4275818  59.2617073  69.8018494  29.8164864
  27.3644295  59.6517448  29.4315491  26.9005852  60.4833832  29.5287876
  26.6705494  59.0025558  29.3161583  59.8615761  40.4874535  50.4579391
  59.7572823  39.5904846  50.1404419  59.1092606  40.6269379  51.0330925
  30.9997253  67.7272797  62.9193878  31.1513481  68.6466827  62.7004128
  30.1560383  67.7247467  63.3715134  58.6392784  62.5074310  14.0323782
  58.8332748  63.0855904  14.7701664  59.2233047  61.7589607  14.1546030
  83.6380234  43.1271973  28.6902046  84.2495117  42.3950996  28.6105480
  83.8296814  43.6826515  27.9345779  69.1216888  34.8314438   8.7638645
  69.8599472  34.6625023   9.3492441  68.4487610  35.2094650   9.3299885
  28.9034004  52.9484901  88.9913254  28.1812744  52.4323692  88.6330185
  28.6355038  53.8581200  88.8608093  43.5419846   5.7023282  82.9519119
  44.3052177   5.1441817  83.1008453  42.7992668   5.0985212  82.9559021
  11.2079830  18.7178745  82.1942596  11.2994890  18.5971203  83.1393967
  10.6605883  19.4979439  82.1043549  32.3074379  61.2961426  44.8973122
  33.0918884  60.7722321  45.0597610  32.6422081  62.1505470  44.6249962
  49.1890564  57.3763924  61.5868607  48.3929329  57.3857651  62.1182060
  49.0340767  58.0368042  60.9115295  85.7823944  20.6895351   8.7623682
  86.4979706  20.3078861   9.2708292  85.5450668  21.4835110   9.2414370
  35.5377541  19.4296112  12.7335634  35.3434868  19.1750774  13.6356192
  35.8869705  18.6348152  12.3303499  54.3482018  56.7686119  87.8902740
  54.0352478  57.3085861  88.6160278  53.7472382  56.0238724  87.8693466
  85.4735413  40.0887604  14.2838993  86.3748398  39.7693596  14.2405891
  85.3394241  40.3028793  15.2071533  84.7776566  47.1625977  21.3847771
  84.4919586  47.4117928  20.5058498  84.3242950  46.3378029  21.5591373
  49.0933800  59.1860313  34.6323433  49.9533882  58.7682228  34.6776581
  48.4719849  58.4583702  34.6570892   8.0688419  11.0644169  78.8747787
   7.5392504  11.6210098  79.4457169   7.4326630  10.6299381  78.3066788
  82.8351440  26.6724586  36.3959007  83.3151855  27.0579624  37.1288261
  83.5167160  26.3470001  35.8078766  49.0083923  14.0005293  71.3838348
  48.1534615  13.5724792  71.4296494  48.8056488  14.9279222  71.2610779
  77.2525177   4.8172226  77.2842178  76.6570816   5.4698644  77.6526566
  77.9456253   4.7289467  77.9384613  40.4723358  66.0677567  80.7398300
  40.6510391  66.0096741  81.6784058  41.2454758  65.6854630  80.3246994
  79.4346313  53.8303185  80.5415268  78.6697845  53.6559143  81.0899963
  79.1073456  53.7600327  79.6447678  48.3003082  50.7863846  76.9141998
  48.4887848  51.0896645  77.8023071  49.0807037  50.2947121  76.6583328
  30.2438622  53.8613586  45.9785347  30.3315697  54.1495171  46.8871078
  31.0491581  53.3746796  45.8028183  46.5746651  61.1537590  36.2365570
  47.3661041  61.3151474  35.7229347  46.8796806  61.1233101  37.1433487
  26.1618290  68.9653320   4.5631738  26.0698738  68.1228790   4.1181507
  25.6996994  69.5857086   3.9994297  20.3475246  63.2804146  82.9317017
  20.5030174  64.2199936  83.0278168  19.5532837  63.2221756  82.4006424
  23.1753349  26.2287083  73.6058273  23.2291031  25.3296547  73.2817230
  23.7927494  26.7169743  73.0611954  39.5992241  56.2089195   4.2097006
  39.4155045  56.3853683   3.2870178  38.8268700  55.7374382   4.5217977
  66.3475418  45.3760757   9.4853287  66.4624405  45.6012230  10.4085512
  66.5056686  44.4327927   9.4473639   3.6850281  29.5606518   4.8615670
   3.9473147  28.6936913   5.1711087   4.5058050  30.0479736   4.7903299
  36.9343681  53.8529739   7.9855957  37.8818550  53.9209976   8.1033688
  36.7000656  54.6285896   7.4759316  62.2356987  17.4700813  37.5851212
  61.4055786  16.9939785  37.5637398  62.4798164  17.4844189  38.5105553
  82.4120026  10.9956093  35.3416176  82.8410416  11.5261345  34.6702766
  82.3403854  11.5781898  36.0977287  80.0849304  45.3923950   8.5084229
  79.7030945  45.7924805   9.2896814  79.4080048  45.4829636   7.8377495
  56.5092659  61.4370232   7.8026791  57.0878525  61.3441544   8.5595465
  55.6507759  61.1589813   8.1219254  17.0262051  50.1418037  23.3004894
  17.8739357  50.5819092  23.3628693  17.1699772  49.4327812  22.6737118
  83.7174759   9.9460754   2.1820972  82.9194489   9.4242373   2.2661316
  83.8875427   9.9737129   1.2405308  49.2641716  46.0259285  38.8710098
  50.0457115  45.4733772  38.8817711  49.4843903  46.7406845  38.2736359
  14.6777248  62.1622429   8.0453253  15.1066141  61.8620567   7.2439671
  15.3719301  62.1585541   8.7043371   0.3260266  -0.0661452  76.6912918
   1.0313573  -0.0995785  77.3375244   0.6449229   0.5367234  76.0196609
  58.4011459  64.7997284  55.9205742  59.1416130  64.8653259  56.5236015
  58.2824707  65.6898956  55.5892868  47.7942467  40.3430061  31.4440098
  47.7121239  39.4870682  31.8645630  47.9321404  40.9534760  32.1682625
  66.9759216  48.9294662  78.3173904  67.2990112  49.5163574  79.0010605
  66.3947144  49.4755020  77.7879791  63.5750275  36.5700607  80.7513504
  64.0891037  35.8872948  80.3203201  63.7206306  36.4252586  81.6862640
  18.4187489  30.9626999  85.8250427  18.8024769  30.0926800  85.7152786
  19.1507473  31.5655212  85.6945953   8.7656803  67.7400208  25.5093956
   9.5330830  67.3283463  25.1121006   9.0125742  68.6592560  25.6108265
  65.9498138  31.5057449  38.5540886  65.6346512  31.0573483  37.7693291
  65.8668213  32.4367218  38.3476181  72.5007782  16.5381641  35.6371498
  73.0604248  17.1282558  35.1323547  72.8168945  15.6618128  35.4173470
  23.5211811  70.6836166  13.8744631  23.1613388  69.8542175  14.1888552
  23.3386154  71.3060608  14.5783558  41.7798386  69.0188980  41.6155014
  40.9097900  69.2975082  41.9011993  42.3087769  69.8160782  41.6464539
  64.1855850  49.0438385  82.4259644  64.0664139  49.9929123  82.4619217
  63.2976837  48.6934929  82.3544617  73.2131348  14.7859783  81.5346603
  73.5865631  14.8846292  80.6588440  72.8638840  13.8948555  81.5471344
  77.5751877  53.3595238   5.8970256  77.1189117  52.8176041   5.2533112
  77.3717194  52.9531898   6.7394772  46.3926620   3.4989138  55.3692245
  45.5548401   3.8210435  55.7016716  46.1883354   2.6418691  54.9951172
  54.6248436  38.2419548  12.0834045  53.9219627  38.4274101  11.4606705
  54.9609299  37.3861046  11.8173332  19.8555164  52.3262901  13.5891638
  19.5375233  51.8883209  14.3786545  19.9937572  53.2344284  13.8582439
  41.0707207  61.2998886   1.5787657  40.7247505  61.3921661   0.6910594
  40.2931938  61.2395782   2.1337860  61.6481171  28.3601589  19.4790783
  61.8684273  27.6226883  18.9100151  61.5729294  27.9749126  20.3520985
  16.8113556  12.7691059  23.6092777  16.7552090  13.7237129  23.5668068
  16.5162067  12.5509157  24.4933109  77.2181625  29.2560196  29.2248058
  77.8894196  29.8852501  28.9607849  76.3915024  29.7237587  29.1061420
  55.6437187   8.7947769  18.6986504  55.6332207   8.0713797  18.0718975
  54.8519554   9.2948599  18.5005074  65.7901230  56.0418434   6.5401325
  65.6390305  55.8815231   7.4716377  64.9234467  56.2454453   6.1884832
  66.0419540   5.6215487  69.6074295  66.8723068   5.4890795  69.1500626
  65.5156174   6.1436238  69.0019226  46.9661522  56.2924690  56.1409264
  47.5659485  56.9970589  55.8959160  46.1057320  56.6005859  55.8563690
  85.7810287  55.4392204  70.7092667  85.1118546  54.7552643  70.7346573
  85.3255234  56.2072792  70.3645477  55.9019547  70.9196472  32.6738625
  55.3722191  70.7630920  33.4555969  56.5050430  70.1770782  32.6405640
  45.4299088  41.7649231   6.9327655  45.7840500  41.1826668   7.6049209
  46.1976891  42.0616188   6.4441762   8.0009270  28.3074665   5.0207510
   8.3624468  27.8971233   4.2351599   7.4379687  27.6352139   5.4046597
   0.4326733  36.4948997  83.5983124   0.1533524  37.0569382  84.3210297
   1.0642625  35.8935242  83.9928665  86.2089310  40.5058594  36.5537491
  85.4588242  40.5861320  35.9645805  85.8209534  40.3798103  37.4196663
   3.5243511  69.2423706  20.9636116   2.8796556  68.5354156  20.9922371
   4.3644648  68.8062973  21.1060352  17.1296654  66.2302780  25.4157677
  16.8815479  66.4524994  24.5183907  17.7195129  66.9352875  25.6827431
  51.5776596  34.7326202   1.2051839  52.3144798  34.5948296   0.6099174
  51.7632141  34.1631279   1.9518297  65.4741745  68.4215698  73.8616486
  66.1093140  68.9463654  73.3743973  65.9878464  67.7000046  74.2245789
  37.6607780  15.5845184  70.9800415  37.7301979  14.6338520  71.0674820
  38.5672607  15.8866320  70.9230881  27.4531097  43.7027702   2.6025696
  27.5030804  43.3936691   1.6980306  27.4926453  42.9054222   3.1306822
  59.3421097  42.9772644  69.7250519  58.5321121  43.4761200  69.6188583
  60.0307159  43.6415787  69.7522583   7.5541663   7.8563867  22.0235157
   7.7623439   7.9124970  22.9561176   6.7172608   8.3128338  21.9370403
  80.6526566  64.6973190  15.9123173  79.9992523  65.3355331  16.1986389
  80.3684845  63.8714409  16.3039780  52.8094711  44.2448387  43.2420959
  53.4530754  43.5420341  43.1522293  52.0092239  43.8020859  43.5245972
  28.6650505  35.9115562  73.7814560  29.1593475  35.2172737  74.2172089
  29.1590290  36.0914116  72.9815369  31.4149323  62.9822197  13.7785940
  31.3830757  62.2958145  14.4449768  31.9187546  62.5968781  13.0617218
  27.6721840  50.1026268  52.9336967  27.5549660  50.7001839  52.1951714
  26.8288670  50.1130371  53.3863983   7.6337724  39.7676239  29.0664234
   7.5073571  38.8565598  28.8014469   7.2833986  40.2798386  28.3376522
  73.7699127  53.5872383   2.4351282  74.3234863  52.9549370   2.8933704
  72.8764191  53.2831917   2.5946705  14.8243589  49.4760208  15.9116812
  14.4882660  49.7273750  15.0513945  14.8345327  50.2916756  16.4125156
  50.4575424  64.8864059  36.5419044  49.6287384  65.1169357  36.1221733
  50.9463463  64.4176559  35.8654594   0.3182496  39.7354240  41.6604309
  -0.2665168  39.1075401  41.2361221  -0.0126190  39.8034668  42.5560493
  86.4300232  70.3228989  72.5644531  85.9092941  69.5428162  72.7556305
  87.1695938  70.2714996  73.1699524  64.0599289  66.6121216  43.6073685
  64.7845383  67.2037277  43.4044533  63.6292725  67.0113449  44.3632736
  62.1905632   4.9855590  42.9263725  61.9283066   4.2892818  42.3241692
  61.4600563   5.6038890  42.9102859  60.4477386  60.2465973  34.8523293
  60.2876778  60.2478333  35.7960510  60.2109604  59.3630371  34.5703926
   7.8200760   3.3014584  30.3069363   7.1481504   3.1605632  29.6399307
   8.5558729   2.7584522  30.0241299  45.4626770  41.2762718  64.1583786
  44.9156837  41.8880539  63.6656799  46.1018677  40.9591675  63.5203247
  43.9744682  56.5229645  30.8664627  44.8361092  56.4597549  31.2785473
  43.5046577  55.7475777  31.1735249  46.7174911   3.8201654  36.8323479
  47.0466957   3.2353449  36.1498222  47.1024246   4.6715322  36.6244240
  12.1393061  46.5989876  62.4450111  12.2234087  47.4869041  62.0974998
  11.9840231  46.7220116  63.3814850  10.2251682  54.7913628  50.5248146
   9.6595602  54.8075218  49.7527657  10.0035686  55.5916824  51.0008583
  33.1802177  50.2436829  56.4964752  32.9085159  50.6671181  57.3107910
  34.0232735  50.6457710  56.2871475  73.3430710  16.6511555  69.2207870
  73.2152557  17.5831585  69.0439758  72.4570847  16.3020153  69.3175507
  82.1158981  23.3168964  66.0136566  81.6015778  24.0163078  65.6105042
  82.8136597  23.1387424  65.3830872  45.3829803  41.4984131  33.8785439
  44.5398254  41.9511299  33.8977242  45.1638489  40.5777893  34.0222893
  58.6447411  45.2412338  75.2346420  59.5776787  45.2015648  75.4450836
  58.2042160  45.0393448  76.0601196  75.9732590  68.6583252  22.2264671
  75.0659943  68.7087021  22.5274067  76.4565582  68.3169022  22.9788532
  80.8624420  13.2647820  63.7671585  80.0565872  12.7498198  63.8076744
  80.7227936  13.9775591  64.3906021  39.0316849  54.0637856  68.2889175
  39.7076607  54.1936493  67.6237717  38.6217232  54.9234200  68.3847961
  10.8732500  45.5955315  39.5309792  11.1333809  44.8982964  40.1329994
  10.7090359  45.1469002  38.7015266   1.2224092  71.0656967  79.8889694
   0.8093217  71.9146957  80.0464325   1.8445534  71.2298126  79.1802826
  66.9176636  22.5132675  62.8980827  66.8642044  22.1569252  62.0112953
  67.7097549  23.0506649  62.8929138  47.4877892  16.9299355  87.6136627
  48.0498428  16.2593803  88.0018463  48.0748863  17.4419117  87.0573959
   9.2610664  64.0423355  14.0432320   9.8789730  64.6916275  14.3791628
   9.3547201  64.0923004  13.0919361  23.0528145  58.4894638  67.5313492
  22.7016945  57.7094574  67.9609222  23.4189339  58.1653862  66.7084503
  49.2623367   0.7968339  10.6928625  48.3651695   0.5439299  10.9104853
  49.5455856   1.3347515  11.4322195  18.2470970  24.8972797   9.9110985
  18.3096275  25.6982670   9.3907709  19.1385384  24.7453156  10.2249031
  36.3505516   2.6160662  62.5590019  35.7844391   3.3832312  62.4741020
  35.7974129   1.8800685  62.2971306  30.2200832  53.1776199  34.5407257
  29.2647133  53.1184578  34.5420837  30.5090580  52.3762436  34.1042404
  34.5524750  11.1554451   9.7386093  33.8002548  11.0319614  10.3175306
  35.2780342  10.7286911  10.1943226  46.1703644  25.6683216  87.1805115
  46.4071884  26.1726418  86.4021759  46.4620895  26.2092762  87.9143372
  12.5157480  15.1696920  83.3018646  12.6795969  15.6359196  82.4820938
  11.5620899  15.1556263  83.3829193  68.9477310  48.7427826  51.1189919
  69.7306061  48.2127686  50.9692535  69.1395264  49.5787201  50.6939545
   9.0721712  61.6057739   2.2748270   8.6258411  62.3952599   2.5809815
   8.7290173  60.9059258   2.8304276  74.1787643  55.2709084  50.6419983
  73.8414230  54.8583565  51.4371300  74.5760345  56.0871048  50.9456902
  52.6657333   2.4576893  41.9500732  52.3835907   2.4422195  41.0355301
  52.1766434   3.1825757  42.3393822  73.2779770  37.5925293  87.3198318
  72.5967636  37.6277161  87.9913559  73.8714752  36.9026794  87.6166458
  41.2827759   8.6475897  69.3608551  40.3885040   8.9455194  69.5274353
  41.8022423   9.4511881  69.3360291  47.9580727  50.0687408   7.6455178
  47.0337639  49.8305321   7.7172542  48.4067574  49.4699364   8.2424650
  58.3151207  13.7524242  85.6128540  58.4110641  14.2716932  84.8144913
  58.6952171  14.2985945  86.3009338  57.2350883  36.5267715  45.8988686
  57.8783264  36.1290932  45.3120728  56.5770950  36.9022522  45.3138084
  59.9305687  42.3237877  42.4755440  59.4747887  43.1630325  42.4110107
  60.7802963  42.5415459  42.8586617  14.7953682  47.0083351  60.7146492
  15.0271778  47.5569038  59.9652710  14.1048994  47.4958534  61.1638794
   5.8757100  47.3606682  88.4101944   5.0263577  47.7712021  88.5723495
   5.7303586  46.8035355  87.6455307  14.3601866  58.3689461   2.0359640
  14.3183088  57.7996445   1.2676053  14.9270029  57.9016838   2.6496563
  64.5828171  21.8412170  41.3896255  65.3307190  22.3598557  41.0931625
  64.4961319  21.1493397  40.7338638  47.6169319  68.1939392  47.1677170
  47.7393379  67.2756729  47.4085960  46.8271332  68.4615936  47.6376305
  59.8433037   9.9489565  56.3722496  58.9914780  10.3379946  56.1740685
  59.9014053   9.1907301  55.7909164  68.1872025   2.6506171  83.6475525
  67.3803940   3.1403620  83.8070526  68.2684555   2.6268694  82.6941071
   9.7326021  68.3540344  31.9206352   9.8342762  69.1890335  31.4638309
  10.0213652  68.5337830  32.8153610  67.6546783   9.8789816  69.3499451
  68.1342392   9.8426075  68.5223389  67.7134171   8.9900522  69.7000656
  83.1408539  70.6617432  16.4688206  83.1890182  71.1765518  15.6632910
  83.2240906  71.3070831  17.1708431  11.5349922   1.2961771  68.7201157
  11.7949991   0.9820074  69.5860977  10.7731895   1.8516054  68.8856125
  15.5450506  21.7693348   6.2008052  16.3775673  22.2216778   6.3369465
  14.8822784  22.4531174   6.2977872  22.2027454  11.0778160   7.4134164
  22.9716835  11.5186777   7.7748122  22.3064728  11.1543837   6.4649386
  71.7351761   4.1501126  59.7034492  72.0092850   4.0411320  60.6140633
  72.4931259   4.5429735  59.2705460  49.6914787  62.8190308  77.1100159
  48.8438148  63.0900688  76.7575455  50.2682304  62.7845154  76.3468628
  27.5118732  16.2227287  16.8515892  27.6977329  16.6831551  17.6699371
  26.8612003  16.7696857  16.4114819  50.5792122  17.4478912  82.7674789
  50.0789185  16.8006821  83.2645340  50.6019745  18.2193508  83.3336639
  77.3586044  48.1131668  27.6817932  77.2044449  48.6061554  28.4876633
  78.0341949  47.4767570  27.9158669  64.8179855   1.6845943  42.3395271
  64.7523499   1.5856017  41.3897247  65.5560760   1.1280327  42.5879059
  59.8771553  15.6962309  77.5297089  60.2591896  15.9515390  78.3694077
  59.0620461  15.2517548  77.7626648  16.4459877  19.6857452  58.9737740
  16.8781071  19.2592411  58.2337761  15.7884398  19.0535698  59.2639771
  26.5513515  70.4210510  80.5969391  26.9038830  69.5708466  80.3340454
  27.3166656  70.9942245  80.6415939  36.7341270  58.6858444  18.1105499
  36.7052727  59.4418106  17.5241070  36.0035591  58.8225975  18.7137108
  40.5787468  70.3847961  50.9323120  39.9306107  70.2774963  50.2361565
  40.3125572  69.7589874  51.6059189  76.0945435  56.5035667  88.5083542
  77.0453110  56.6086578  88.4732132  75.9522171  55.5660553  88.3778000
  76.8265839  51.1262360  25.0526161  76.9194717  50.1818428  24.9272137
  77.7248535  51.4463196  25.1356373  60.3054771  70.1050186   3.0120692
  59.6491928  70.4838028   3.5969183  60.8798943  70.8378143   2.7900498
  71.3747635   8.7631006  87.5262680  71.9014130   8.0878267  87.9539108
  70.6036911   8.8556108  88.0858307   4.0624104  22.3487530  10.4488735
   3.4285133  22.7426567   9.8495026   4.7192173  23.0315285  10.5854521
   9.8625813  71.2178497  74.3653793   9.8115292  71.5678940  75.2548141
  10.6893501  70.7359161  74.3447418  64.1826248  66.9508057  37.4652824
  64.9012299  66.3282089  37.3547974  64.1708527  67.1389160  38.4037399
  31.9549294  37.4460373  55.8490601  31.8618317  37.5849686  54.9065819
  32.6929588  38.0009766  56.1012154  60.0945702  14.2950211  62.7616196
  60.3688622  14.9809742  63.3702774  60.1222992  14.7132788  61.9010849
  31.5964642  31.5763683   8.7207422  30.9252987  31.6674480   8.0443745
  31.1997356  31.9564533   9.5045614  12.9598827  37.3938828  27.2374058
  13.2457829  36.4849472  27.1461430  13.1678438  37.7961960  26.3941212
  14.1754446  30.9695187  77.2058182  14.1360722  30.5850143  76.3301239
  15.0807905  30.8350143  77.4859772  25.7597485  37.4648972  14.1791477
  25.5953331  37.4205933  13.2372150  25.0988674  38.0735779  14.5092688
  67.9433823  44.3194656  62.2943687  67.7904739  43.8843307  61.4556160
  67.1900940  44.0748634  62.8319244  35.0957680  25.7183228  81.9945908
  34.6501389  25.2238655  81.3067245  36.0222473  25.6765747  81.7576904
  33.7123756  56.4865990  75.9791489  33.6555977  55.7992363  76.6428833
  32.9778290  56.3125114  75.3906250  86.5056229  49.9156113  19.0445919
  86.7741241  50.3243675  18.2217579  86.1764450  50.6405602  19.5759315
  55.7315826  38.8032837  57.7838821  54.9702454  38.3379059  58.1303215
  55.3721199  39.6112366  57.4175034  12.5521297  21.3109112  85.6157837
  12.1082840  20.7135468  86.2177734  13.1544933  20.7521915  85.1246414
  43.6526566  11.6444216  59.2632828  43.9030304  10.7258444  59.3620796
  44.1245117  12.0977554  59.9619026  16.5327644  50.1489220  53.8241539
  16.4322605  49.2715836  54.1934853  16.3172760  50.0447731  52.8973618
   5.2400150  34.7544594  87.7410889   5.5821705  34.2947617  86.9743805
   6.0192428  35.0711555  88.1979675   9.4241753  63.0216484  86.1701279
   9.6812172  63.2158546  87.0714798   8.6396666  62.4800110  86.2561951
  36.8125343  14.3651066  11.5524864  37.0832558  13.4970360  11.2534971
  36.0367661  14.5674000  11.0295181  63.3935547  32.2071571  18.0701103
  64.3222961  32.0582237  17.8926544  63.2178307  31.7036152  18.8649673
  41.3951530  44.0739250  76.5699234  40.9480629  44.8934708  76.7813187
  42.0692711  44.3248405  75.9383850  48.8707237  40.4732704  55.9635620
  49.4576302  40.5741539  55.2141647  49.0285988  39.5813522  56.2730675
  31.2237720  39.8091774  34.5125046  30.6900139  39.0298119  34.6671944
  32.0515289  39.6245270  34.9562988   1.6003253  29.9963799  81.2041855
   1.5080872  30.0612545  80.2536469   0.9387799  30.5952873  81.5504456
  85.2388611   8.4804926  30.1521969  85.1929550   9.0368071  29.3746128
  85.1966324   9.0922365  30.8871918  20.9671879  69.0302277  49.4061890
  20.8712120  68.5684204  50.2391129  21.8063717  69.4847641  49.4796486
  58.5797157  53.6468658  35.5093651  59.2795753  53.5728416  34.8605614
  58.4020462  54.5858459  35.5639381  80.0785370  19.5904102  26.9683533
  80.7640991  20.2074223  27.2243595  79.2883682  19.9188042  27.3973351
  43.3622322  42.5992584  57.5156250  43.4411240  41.9618111  56.8059273
  44.2332268  42.9902763  57.5842705  65.1267014  32.6126823  21.2912807
  65.8151016  32.1715775  20.7935181  64.4513474  31.9447784  21.4097404
  56.8814392  12.1426134  73.6869812  56.7552643  12.9327974  73.1617050
  56.4508400  11.4503183  73.1854477  79.4785156  21.8985081  53.0041275
  80.0248184  21.9596958  52.2205200  79.7958069  21.1171265  53.4568939
  45.9731979  48.2536316  29.6027088  46.7207909  47.9913673  30.1398869
  45.7632179  49.1388206  29.9003277  38.0211639  65.3302536  57.3764915
  37.2309914  64.9346390  57.0085983  38.7322578  64.7585373  57.0871544
  32.7515373  62.3995438  87.7382584  32.8801956  61.7734489  87.0257416
  31.8209362  62.3315048  87.9517670   1.4044782  62.4503822  57.9651108
   1.4230447  62.1321945  58.8676834   1.8640699  63.2894096  57.9974327
  32.8569946  26.1617432  83.8194656  33.5858688  25.9291687  83.2442398
  32.3118858  26.7450905  83.2914581  29.8540573  46.0781822  45.3313675
  30.7565880  46.3577957  45.4846230  29.9133911  45.4710388  44.5937424
  41.1643791  50.2521820  67.4070740  42.0689125  50.2962914  67.7170868
  40.9798431  51.1328888  67.0806732   4.8893638  31.2814617  42.2038002
   5.3479896  30.8384457  41.4899178   3.9635174  31.0989227  42.0434265
  45.4104538  29.3912888  30.4336987  44.5078697  29.6952019  30.5296459
  45.6848869  29.7219849  29.5783863  69.6152039  60.7876282   9.8284559
  69.3198318  60.7438049   8.9190245  68.8657684  61.1421585  10.3068743
  38.1575470  30.4618530  10.1228657  38.2135735  30.5376129   9.1703148
  38.5994415  31.2446461  10.4517956  34.8725090  44.4215164  85.3651276
  35.0119095  44.6353569  86.2876587  33.9445610  44.6020737  85.2149811
  18.5058136  49.2282372  72.3075104  18.5616817  49.1428108  73.2592545
  18.3646374  48.3346710  71.9947128  47.5876312  57.2553139  53.1542244
  46.7513428  56.8295746  53.3428993  47.5894241  57.3690872  52.2038116
  24.2717972  11.6473522  20.1245155  23.4995518  11.6948891  19.5609474
  24.0295486  11.0256376  20.8108234  59.3195152  44.0210686  80.8219147
  59.1440163  43.4999352  80.0384293  58.4676666  44.1032867  81.2506561
  49.4769554  25.0460281  65.1171417  49.0283051  25.3952141  64.3470688
  50.3910828  25.3043785  64.9994278  78.6225128  20.6406612  29.6566467
  79.5177536  20.3719845  29.8630142  78.2051926  20.7588310  30.5099392
  51.1213608  58.7544937   7.5630369  52.0088310  58.6888809   7.2104440
  51.2015228  58.4591103   8.4699841  45.4760284  67.2949600  54.3685036
  46.1209984  67.0941162  55.0466652  45.9556046  67.8239670  53.7310104
  70.5888519  65.2062531   4.5212569  70.5026550  64.8726959   5.4143081
  71.2700272  65.8761139   4.5804839  46.6108627  52.8991470  78.0485992
  46.6439247  53.5135841  77.3153839  46.2187767  53.4003792  78.7636261
  11.8479519  55.6373405  40.4129333  11.5312147  55.3923225  39.5435219
  12.6823997  56.0766525  40.2488213  53.1317482  51.4576073   1.4274745
  54.0221786  51.1149406   1.3503553  52.9124413  51.3485260   2.3528051
  83.0617752  53.2761002  75.7226334  83.6123810  53.0668335  76.4771347
  83.6224365  53.8069191  75.1568451  50.3723869   0.3392773  44.1017418
  49.8428459   1.0730243  43.7895966  50.2302094   0.3268708  45.0482407
  42.1463280  45.0492210  14.7366390  41.9797211  45.8867760  14.3042326
  41.2755241  44.7030525  14.9318419  37.5843124  23.7374763  83.5840454
  37.6465111  24.2135124  84.4121475  37.6969833  24.4098930  82.9121933
  51.4073601  15.9625940  85.1239090  50.9188385  16.6352406  85.5983810
  50.7368660  15.3548717  84.8119125  69.1166153  48.9765167  17.8532085
  69.7734299  49.5925598  18.1777267  68.9429474  48.3982582  18.5959663
  73.4431229  68.5995865  15.1318035  73.6840439  68.1551590  15.9446220
  72.6581573  69.0994949  15.3557510  79.4318466  48.6258202  87.0954514
  80.2404861  48.6312561  86.5832977  78.8769226  47.9787331  86.6600571
  34.2579002  40.0169182  24.7194061  34.3486633  39.2818718  24.1130199
  35.0601768  39.9974747  25.2411385  82.1742706  18.4555759  59.8825951
  83.0095444  18.2365932  59.4695625  81.5126724  18.1221924  59.2764778
  49.6223907  16.6357899  18.6065006  48.8392181  17.0352306  18.2279243
  49.6855812  17.0160999  19.4826317  77.0419312  67.5092010  52.8926926
  77.0162735  67.4672318  53.8486252  76.8932953  66.6070938  52.6092606
  85.0085373  30.3990231  63.9991455  84.8637009  31.2850895  63.6672707
  84.1288147  30.0511265  64.1450424  10.8057137  33.2689781   0.1730893
  11.3464117  32.6466446   0.6594834  11.2995729  33.4396248  -0.6289179
  46.6567345  16.0355854  45.2157021  47.2552681  16.7452488  45.4488640
  46.2129517  16.3461170  44.4264870  14.1265450  39.9794960  18.2482872
  13.7553625  39.1247635  18.4671268  14.6465101  40.2183800  19.0156212
  64.0806198  26.9379539  49.5428047  63.4963570  26.5462456  48.8936272
  64.3364868  27.7768955  49.1594734  39.0161209   8.8344688  78.0521851
  38.2589989   9.0183802  78.6082230  39.1936684   7.9039426  78.1894073
  72.6709137   9.1324530  80.5511169  73.0331879   8.5688210  81.2347183
  71.7410965   8.9069510  80.5225677  19.4249287  57.6636810  21.1835899
  18.5601826  57.4221230  20.8517857  19.6119213  57.0133858  21.8606281
  18.3916283  63.0712967  67.6915817  19.1407795  63.5768547  68.0068817
  18.7619781  62.2246590  67.4420319  56.9931297   8.5458736  26.9487972
  57.2610893   9.4422941  26.7466583  57.7015457   8.2009144  27.4922829
  47.3134727  37.4771309  59.2708702  47.7207069  37.3857994  60.1322937
  46.3777237  37.5575676  59.4556274  14.0471592  18.5476761  26.9889641
  14.9772291  18.4984951  26.7680931  13.9126854  19.4562798  27.2583790
  17.9196529  54.8746948   2.1498382  17.0537281  54.9940796   1.7597706
  17.7830811  55.0217247   3.0857666  25.9089527  67.6720047  86.3187714
  25.1926136  67.7960434  85.6961136  25.4898758  67.7174835  87.1781540
   3.0321262  37.3579178  42.2845001   3.3517094  36.6113968  42.7912598
   2.4685488  36.9695206  41.6153526  26.0009651  38.4963379  68.1230164
  25.1063538  38.1598625  68.1748581  25.9312420  39.2788200  67.5761185
  26.2976589  13.7069578   7.5977559  26.2939358  14.4570141   8.1924267
  27.1348019  13.2736263   7.7640333  44.1731606  65.3160629  84.6796036
  44.6195183  66.1071320  84.3776016  44.1027870  64.7676697  83.8982315
  52.5410118  11.1856537  85.7819214  53.0834503  10.3972273  85.7626190
  53.1606598  11.9056425  85.6641006  69.3662415  67.3673096   8.9348030
  69.5438080  66.4295731   9.0079737  70.1487961  67.7877808   9.2912292
   4.9858747  60.6845360  74.5963135   5.6471362  61.2971497  74.2743378
   4.8086696  60.9722672  75.4918823  77.2427826  45.7391167  30.9081116
  76.9405899  45.0269051  30.3444958  78.1003876  45.9763412  30.5552959
  83.0570145  63.1549225  22.1878490  82.6014023  63.3459740  23.0076942
  83.5955887  62.3888321  22.3860340  29.4527149  71.6164169  87.5380936
  29.1897869  70.6991043  87.6132202  30.3856792  71.6164551  87.7521210
  82.7514191   8.1160421  65.0384903  83.5943146   8.3002071  65.4530182
  82.9459305   7.4385324  64.3908997  57.8677864   6.8869414  10.4705381
  58.1914177   6.7492452  11.3607826  58.6428604   6.7931185   9.9167404
  49.6745758  61.5147629   8.1971045  50.0123215  61.6592178   9.0810127
  49.9906883  60.6430969   7.9593992   3.4511955  62.1000099  76.9200211
   3.6045642  63.0425873  76.8547974   3.4061430  61.9292145  77.8607864
  82.0413361  18.7636681   6.4231634  81.6500015  18.5500126   7.2701826
  81.6036682  19.5712757   6.1540022  76.1295166  63.9152145  26.8946342
  76.8925781  63.3423347  26.8185616  75.4566116  63.3657494  27.2965298
  15.4834824   7.8636193  20.4522266  15.7186594   8.1547804  19.5712337
  16.2507935   8.0706491  20.9857082  72.8160477  16.7202797  10.4530268
  72.2284851  15.9911261  10.6513777  73.5281219  16.6332970  11.0867548
   1.4093038  44.3835793  52.7584877   1.4192014  44.4048767  51.8015747
   2.3007963  44.1339722  53.0017357  12.6254377  22.1926880   7.2184539
  11.8364763  22.7142963   7.3657517  12.4187737  21.3354282   7.5907817
  11.2817497  16.1805801  18.2555447  11.7253218  15.3379478  18.3527298
  11.8622217  16.8079281  18.6864948  46.9415894  54.5957069  26.7701931
  46.1963730  55.1962433  26.7548027  47.1448898  54.4425774  25.8474522
  10.7610245  55.9641762  29.4108868  10.7081280  56.1506271  30.3482609
  11.4109755  56.5839500  29.0797100  52.7642899  38.9026222  77.5765762
  51.8840523  39.1596985  77.3021240  53.3478050  39.3740005  76.9819794
  71.9008789  62.3712006  65.9767456  71.1504211  62.1187477  65.4388657
  72.4164581  62.9478951  65.4129715  74.7761002  63.9899712  67.3963470
  74.2705612  63.4575119  66.7822266  74.2297211  64.0342712  68.1810379
  25.6592655  27.9300423  84.3565445  26.4825077  27.5100021  84.1073990
  25.7474556  28.8317947  84.0478439  74.6480103  40.6378250  70.2290115
  74.6306305  41.3136826  69.5514069  73.8207245  40.7474060  70.6978683
  19.3189507  25.9405937  82.1279602  19.8387814  26.7405872  82.0503845
  18.9652786  25.7986870  81.2498856  51.5779190   6.3952131  48.1312828
  51.4849815   5.4487772  48.2401581  50.7084427   6.7451835  48.3256073
  21.1682835  33.2009697   3.3632309  22.0254993  33.4455872   3.0145543
  20.6052971  33.9481812   3.1608610  72.3133011  55.9041634  36.8248978
  71.9727249  55.5143623  37.6300659  73.2626877  55.9140434  36.9465294
  67.5581665  51.8016014  37.0479202  68.1498642  52.4058990  36.5996475
  66.6936646  52.2028236  36.9591141  64.1200790  58.5779076  22.1194744
  64.6691589  58.6321297  22.9016533  63.2328300  58.7445984  22.4376469
  73.2640762  12.5275784  64.0153580  72.5679016  13.1781588  64.1065292
  72.8077545  11.6861658  64.0204315  51.1859703  14.6949358  88.2814102
  51.3818398  15.5707035  87.9483948  52.0440979  14.2974854  88.4293442
  73.4814987  47.0623779  66.3363800  73.4403839  46.4855728  65.5736008
  72.9951096  47.8434296  66.0725403  48.2284813  20.5296459  31.0185852
  48.9599152  20.3397713  31.6061096  47.4507103  20.2715454  31.5132389
  30.1132832  23.5890293  12.4504671  29.4688606  23.4520531  13.1448650
  29.9763050  22.8572445  11.8488369  37.1771049  38.6075706  65.1001892
  36.5291595  39.2727242  64.8678818  36.8845139  37.8185577  64.6440353
  17.1189823  66.2272186   4.4449248  17.9473019  66.7018814   4.3755560
  17.3737698  65.3054047   4.4846625  37.4584084  25.0547028  15.7402411
  37.6904716  24.1260586  15.7396002  38.2415657  25.4970589  16.0676823
  23.0596504   0.7763605  15.8506241  23.7022572   1.4809431  15.7678547
  22.9033375   0.7041519  16.7922096  27.4050426  39.8712311  80.9677200
  26.7256451  39.2023964  80.8821945  28.2221756  39.4072952  80.7852707
  36.4414558  40.9817505  15.4265194  36.6803284  41.7887039  15.8825884
  35.7088814  41.2325401  14.8637848  64.6079712  52.2187653  79.2329483
  65.2880096  52.4696999  79.8581009  65.0898819  51.8932877  78.4726486
  35.0974197  67.9305573  38.2226028  35.8149910  68.5305557  38.0193214
  35.2195320  67.1978683  37.6188736  76.9257278  13.0746202  46.0951576
  76.1132889  13.2237043  46.5788460  77.3611450  12.3671036  46.5706177
  60.8421440   7.1479435  42.0740700  61.3067551   7.1354537  41.2372818
  60.1009293   7.7356658  41.9277344  25.9546223  70.4845123  86.0369034
  26.1827850  69.6602173  85.6071243  25.7582722  70.2371597  86.9405060
   5.0431948  70.7567825  22.4700775   4.3907113  70.2865219  21.9510918
   5.5054545  70.0710297  22.9520397  71.3389130   3.7722037  20.3079529
  71.6118317   4.6896038  20.3190422  70.4104004   3.7957308  20.5393486
  28.0020218  57.0300827  30.8434811  27.9174652  57.7712898  30.2437344
  28.0188484  56.2613792  30.2733555  86.3059769  19.8365765  21.7414551
  86.1545105  19.7498856  22.6826115  85.6300430  19.2913628  21.3388557
  71.8917694  62.1157074  29.2633991  72.2327805  61.9402924  30.1404228
  72.6696167  62.1515579  28.7067127  70.2233276  57.6838570  29.0382309
  69.6815262  58.4619675  28.9069939  70.9480286  57.7898941  28.4219494
  20.5462074  64.7306213  68.1334152  21.0010586  64.4078979  68.9113541
  20.4211388  65.6649780  68.2994537  57.6342125  44.0878944  53.3155746
  58.4463921  44.5307732  53.0697021  57.9205627  43.3174171  53.8060837
  26.4967957  56.5612030  66.0334930  25.5752125  56.5133743  66.2877121
  26.5006275  57.1091805  65.2486725  46.7129669  32.9110146   6.9810338
  46.6584320  33.3970528   7.8038487  45.8098907  32.8708611   6.6662693
  28.2789650  61.8518524  60.7290916  28.2727280  62.6968460  61.1787376
  27.5732536  61.3550377  61.1430740  61.5612068  55.9618988  77.1461105
  60.6189880  55.9718933  76.9777298  61.9311676  55.4765968  76.4086533
  84.1351013  39.3389587  12.0959845  84.7528687  39.8360481  12.6321802
  83.6741333  40.0032425  11.5836716  56.6757240  47.9694901  31.3511734
  56.7099266  48.8580971  30.9969902  55.7905731  47.6655121  31.1503296
   7.0000601  59.2947960  66.5295029   7.6043229  58.6526299  66.1570511
   7.5618739  59.8989296  67.0149078  59.7709770  48.1745605  66.1678009
  59.5486565  47.4908409  65.5358734  59.2612305  47.9548721  66.9476318
   2.7360346   2.6234493  56.7763672   2.0572655   2.7993619  56.1247864
   2.2677233   2.2197499  57.5070839  69.7310486  16.3229771  31.9676666
  70.4289246  16.9694366  32.0739288  70.1562958  15.5795269  31.5402565
  10.3856926  24.2478180  79.8319550  11.2002163  24.0006046  80.2697601
  10.4265366  25.2022152  79.7712250  19.4811954  21.6630898  80.9948196
  19.6822128  22.3003750  81.6801605  18.5966949  21.8905640  80.7082062
   4.7283816  28.4910851  40.5713234   4.1467428  27.8707733  40.1318474
   4.6189756  28.3028755  41.5034409  12.6538963  67.7720490  31.4897079
  13.0236979  68.2345886  32.2417297  13.2447491  67.9805374  30.7660656
  81.1415253  50.2507629  56.0267105  81.7951889  49.6525536  56.3887939
  81.5848312  50.6730423  55.2909164   1.3919494  29.8256416   3.4757605
   2.2639186  29.8065777   3.8701434   1.3258872  28.9974117   3.0004683
  19.4232368  68.6303635  72.3714981  20.3423862  68.8249283  72.1883698
  19.0417671  68.4462128  71.5131302  13.2189665  18.9041862  79.7223663
  12.4914188  18.8125820  80.3376007  12.8070602  18.8779716  78.8587189
  53.5827141  14.9077225  72.6298981  52.9383240  15.0443754  71.9354095
  53.2684746  14.1351261  73.0995560  17.4076118  19.5684280  89.2375793
  17.0829773  20.2556915  88.6557617  18.2608299  19.3306351  88.8746643
  50.9449921  53.1628647   0.7139130  50.1391296  53.0249901   1.2117131
  51.5335464  52.4703445   1.0143335  13.9794350  61.0151024  79.0673904
  13.1737423  60.5057869  78.9796982  13.7171640  61.9141769  78.8696365
  79.5824509  63.6053619  63.5219269  79.2112885  64.3633347  63.0703239
  78.9741516  62.8913574  63.3311462   4.0058689  13.4673901  56.9016151
   4.7170310  12.9738712  56.4930573   3.2081053  13.0374241  56.5935020
  61.8979568  14.5104122  67.1569672  61.2765121  13.8387108  66.8761597
  62.5340652  14.5614634  66.4435272  13.8798456  52.0443726  60.1733704
  14.0305595  52.9734497  60.3475342  13.6222858  52.0121002  59.2520370
  73.0918655  42.9961662  64.7843781  72.4414597  42.5582275  64.2353668
  73.3548737  42.3312759  65.4207535  17.6265678  16.7837906  83.8735352
  17.4315510  17.3025208  83.0930786  18.1946449  16.0808964  83.5581665
  18.9797802  11.8124914   3.8307457  18.8097591  12.7537279   3.8681405
  18.3006687  11.4243269   4.3824420   3.8700838  50.5887680  15.9848118
   4.7671547  50.3923149  15.7148066   3.8899071  50.5332069  16.9401932
  42.1571922  60.0822525  33.4006462  42.5797272  60.7959175  33.8785286
  42.7667694  59.3483124  33.4779739  45.9351082  25.4715023  83.7664032
  46.3497810  25.5864239  82.9113770  45.1508293  26.0188980  83.7277527
  16.5835037  71.2810211  62.4488678  16.0365887  70.5670700  62.1211739
  17.4580517  70.8987885  62.5216560  18.5441971   2.6388092  63.7699394
  17.8871861   2.3905613  64.4202805  18.9902267   3.3927293  64.1558075
  72.6619949  17.3726559  38.3660431  72.7806473  17.3839741  37.4162941
  71.8013458  16.9741096  38.4951668  56.5196190  27.4350739  29.5581398
  55.7117233  27.6270084  29.0820141  56.2248039  27.1075802  30.4078827
  75.6267319  35.2629280  66.6821594  75.2771606  35.0609589  67.5500565
  74.8968582  35.6750526  66.2199249  55.7815170   4.5941224  59.2990875
  56.4156418   4.2628870  59.9350166  54.9651489   4.6713552  59.7928543
  24.4706001  22.5911694  21.1478348  24.1926479  23.0319901  20.3449326
  25.1400871  21.9702282  20.8606892  48.1397476  30.4923573   6.5126891
  47.4877357  30.0064430   6.0077133  47.6980057  31.3066711   6.7534876
  52.5253296  26.3052273   0.2785964  53.1654701  26.5798855   0.9351130
  52.9814720  26.4047756  -0.5570215  73.0338058  52.8076668  14.4502707
  72.1786423  52.8150368  14.8802376  72.9142685  53.3491364  13.6700430
  62.8727493  11.6654663   6.3143387  63.2648888  11.9462404   7.1411543
  62.1004372  11.1631041   6.5739431  27.7792835  43.5722198  27.0566635
  27.2424412  44.3141327  26.7780952  28.2385464  43.2975349  26.2630291
  19.3155994  53.7323685  63.6952858  20.0366631  54.3557167  63.7832413
  19.6793537  52.9008789  63.9994888  12.9429159  34.6851730   5.8528910
  12.5474958  35.5079460   6.1408505  12.4413395  34.4372978   5.0762243
  24.8210087  46.3364563  33.3914795  24.9057407  45.9042969  32.5416031
  25.7147789  46.5909042  33.6209602  30.6751995   7.1306558  67.1415558
  31.2210770   6.4600072  67.5520172  29.9422150   7.2459893  67.7462616
  85.5802307  18.2291050  83.3439178  85.7628326  18.6984634  84.1579132
  85.4586716  18.9190769  82.6916885  71.8560562  47.1966705  18.3378983
  70.9337616  46.9600906  18.4360504  72.1345901  46.7485542  17.5392494
   5.4859481  46.8625488  59.4235954   6.0756855  46.7309685  58.6812172
   5.9908504  46.5753593  60.1844063  53.3366432  44.4326782  82.9976120
  53.6725311  43.5492058  83.1489182  52.8981476  44.6656189  83.8159637
  23.5718517  48.4867783  32.0964851  23.9135666  48.1117363  32.9081535
  24.3253670  48.9223137  31.6980419  85.1536865  29.3616371  49.7072487
  84.8131561  29.2193108  48.8240623  85.9467850  29.8815727  49.5772514
  49.9531479  34.5624008  35.6071930  50.7058907  35.0271873  35.2416992
  49.2398338  34.7429619  34.9949760  13.1063690  29.7509689  18.8845558
  12.8271112  30.6132069  18.5766716  13.3481388  29.2788639  18.0877514
  75.2018433  55.7377319  13.1542807  75.1803665  56.5524445  12.6522751
  74.8920288  55.0706863  12.5416660  23.5551605   3.9408987  33.3832893
  24.2682056   4.5794878  33.3817139  22.8956890   4.3196831  33.9645386
  39.1612663  71.2042236  62.3061295  40.0578995  71.3052368  61.9866333
  38.7171860  70.7060776  61.6199226   0.9122344  26.1018353  38.3166771
   0.6490371  25.4636784  37.6535683   0.0999092  26.3226948  38.7722855
  38.4262161   4.8623676  80.9148026  38.9460945   5.5864339  81.2636414
  38.2606049   5.1037145  80.0034485  86.5553055  50.1783295  64.1811829
  85.9641876  50.8870277  63.9271126  87.4004517  50.6075287  64.3144226
  55.3017693  34.2649269  56.8235512  54.6953621  34.9458313  56.5322227
  55.7135468  33.9505768  56.0186539  78.5806122  28.0060654  69.7326279
  79.2358322  27.3342171  69.9211578  78.1149445  27.6773682  68.9636383
  12.4226179  35.3653984  82.3721466  13.1380529  34.7483368  82.5258331
  11.6453371  34.8137741  82.2839661  43.2194786  36.9702606  24.5572357
  42.6073647  37.3432198  25.1916275  43.7288437  37.7190094  24.2471409
   6.6931071   9.6802130  17.6712608   7.5626969   9.6674938  17.2714062
   6.3333621   8.8119297  17.4898796  45.7897491  13.6627111  46.3691788
  44.9685020  13.8661528  45.9215240  46.3193741  14.4537411  46.2691803
  86.7009583  21.4362125  41.5354614  85.8889771  21.2205334  41.9941559
  87.3296280  21.6180153  42.2340012  15.0020580  23.5513611  78.7959442
  14.2307262  23.1008949  78.4519119  15.6379585  22.8529434  78.9511108
  18.7213116  37.9535065   7.1765904  19.0416183  37.6011391   8.0069370
  17.7758656  37.8062668   7.2027106  36.5210800  39.2567825  13.3497868
  35.6165276  39.5287933  13.1947803  36.8607216  39.8987236  13.9733162
  31.0076332  31.4761772   2.5045180  31.5014153  30.6724911   2.3417292
  31.6099377  32.1801987   2.2640691  22.9422245   1.1295375  49.1118126
  22.8210239   1.8602781  49.7180824  23.8453865   1.2181680  48.8073883
  60.3656883  60.5047951  50.0511169  59.7268562  60.8483810  49.4265556
  60.8709755  61.2709999  50.3228683  65.7210617  47.7304878  84.5772476
  65.5003357  46.8015938  84.5089340  65.1092606  48.1663094  83.9839630
  29.5335293  48.5199852   6.0724354  30.3654118  48.3009109   5.6526608
  29.4262657  49.4582596   5.9163475  20.8636951  19.7608528  15.5209360
  21.6896286  20.2395840  15.4510536  20.9878368  18.9874706  14.9707546
  25.5689888  68.3074112  70.3153839  24.9586353  67.8936996  69.7050171
  25.3513145  69.2387543  70.2773972  70.9961472  47.6381989  76.2117462
  70.0982056  47.3145599  76.1397552  71.5330353  46.9406281  75.8357391
  53.4828644  11.0065250  14.9815445  53.7041550  11.8572445  14.6026773
  53.2933998  11.1956005  15.9005585  14.2711716  15.9188833  67.1471710
  14.6363945  16.6783924  67.6010284  14.3183823  16.1488533  66.2192078
  23.7312317  22.3218174   3.2054119  23.5941982  22.9228954   3.9376407
  23.9135895  22.8919239   2.4584463  43.4854202   3.8061018  55.3735847
  43.0157967   3.5328057  54.5855522  43.4440842   4.7622743  55.3575401
   0.4176571  22.4018574   7.0848122  -0.1971230  21.9278030   7.6447687
   0.4257238  21.9071312   6.2654138  33.6568031  58.0571365  56.5004196
  34.4410858  58.1353989  55.9572754  33.6682205  58.8395348  57.0517426
  46.0975227  66.5462646  66.2290039  45.8004494  66.6261597  65.3225861
  45.3725777  66.8916397  66.7499695  49.1734314  48.2627907  86.7688446
  48.2742043  48.1566200  87.0792465  49.7125931  47.8814316  87.4617386
   7.5338521  54.5704460  29.0712070   7.3082347  54.0370216  29.8333015
   7.6953759  53.9352493  28.3735943  67.2664490  64.7936325  45.5149956
  67.0279922  64.2068710  46.2326813  66.6231995  64.6087723  44.8306808
  43.7781754  16.6258564  21.8545914  43.3028679  17.2612610  21.3192654
  43.2182922  15.8494883  21.8584557  17.3023529  28.0053997  11.3702450
  16.5036697  27.7797260  10.8933735  17.1856384  28.9242783  11.6116371
  18.1286583  22.5522346  11.7752609  17.7503204  22.0369778  11.0627985
  18.5966568  23.2619057  11.3352890  26.9899063  42.6553612   6.9164243
  26.3183441  43.2869987   6.6589918  26.8149910  41.8857117   6.3748732
  61.6522141  51.5028305  10.0263271  60.9415627  51.2333298  10.6082001
  61.3078308  51.3586464   9.1449404  50.3962135  24.8600082  11.2479210
  50.2074318  25.0519962  12.1664715  50.6086540  23.9267445  11.2370539
  83.7491684  19.3683586  44.8605003  83.6711121  18.4166298  44.7945137
  84.5352020  19.5081692  45.3885460  42.8969955  71.2903748  11.6395435
  43.2128944  71.7010422  12.4444017  42.0184822  70.9794693  11.8581371
  46.8314285  12.9043541  23.5651989  46.0235939  12.9901152  23.0589581
  46.7794533  12.0307817  23.9530163  25.8014145  49.9295502  42.0378265
  26.7452888  49.8911972  42.1923065  25.5639973  50.8367920  42.2296028
  81.9624786  57.9241524  22.0057278  81.6728592  58.8231506  22.1611271
  82.8664856  58.0125694  21.7037544  22.0290928  46.0429153  12.8592863
  21.5061913  46.7380905  13.2587090  22.0790253  45.3640327  13.5322332
  82.1530228  17.8363914  34.0052109  83.0813293  18.0687332  34.0273972
  82.1115189  16.9756832  34.4219704  71.0266800  59.6639633  43.4109230
  71.2003021  58.7335396  43.5537682  70.4611740  59.9168701  44.1406288
  66.8716125  36.6294365  62.3779221  67.0251694  37.1523247  61.5910072
  66.9273605  35.7223473  62.0774040   1.3494718   9.1868238  76.3794556
   0.7686336   9.9099817  76.1430206   0.8872393   8.7278423  77.0808182
   1.6523211  40.8803825  67.5409088   1.5526664  41.6135674  66.9336624
   2.2135975  41.2209129  68.2374954   3.1573234  10.1899786  84.4925308
   3.0385182  10.1775169  83.5428085   2.3175910  10.4962883  84.8349533
  34.1416016  24.6348610  79.9457703  33.4911995  25.0666122  79.3918762
  33.6744080  23.8930416  80.3300476  32.7297325  68.4894485  47.8174019
  32.5988159  67.5940018  47.5055389  32.5189209  68.4513855  48.7503204
  36.0555038  61.3477898  25.0634480  36.2186127  60.4509087  25.3554001
  36.8809204  61.8054581  25.2230053  72.1342087   6.3317723  22.0342503
  72.0718536   6.5623569  21.1073341  71.2518005   6.0450830  22.2696323
  82.4135208  45.0806694   9.7982903  82.1616974  45.4804840  10.6307364
  81.6031723  45.0564575   9.2893791  45.5297127   1.4638321  68.6623535
  46.2543869   1.1311985  68.1327972  45.8145676   1.3336467  69.5668640
   2.7986157  62.0384560  46.1920128   3.6334238  62.3664093  46.5263367
   2.1407585  62.4243088  46.7704353  19.2544346  16.1352119  80.9940186
  18.6249008  16.8538895  80.9355087  20.0828648  16.5184155  80.7057648
  33.7644081  64.8050842  13.0190344  33.5461311  65.0908203  12.1319380
  33.1636658  65.2928772  13.5824137  34.0391655  59.1554375  53.1714096
  34.7117691  59.2516289  52.4971809  34.5195122  58.8759270  53.9507523
  32.7365036  12.7868299  70.6790009  32.2343369  12.0257378  70.3878021
  32.4652824  12.9194679  71.5873413  21.8142090  35.4815712  77.9395828
  22.4969921  34.9726562  77.5025024  20.9991379  35.0346298  77.7112503
  55.9617386  36.2846107  23.3627377  56.0481110  35.3768082  23.0717640
  56.4401741  36.7926674  22.7075977  16.3171539  14.7816610  27.0731869
  16.0090981  14.9151735  27.9695721  17.2541695  14.9735308  27.1108646
  79.3523102  40.2835922  67.6705093  80.2609253  40.0997391  67.9089432
  79.1084518  39.5664482  67.0852966  49.2384071  64.4080887  73.7027435
  48.5755119  64.8991318  74.1882095  49.7605667  65.0797806  73.2640839
  77.8512115  10.6669035  16.9059811  77.0929871  10.3611622  16.4081326
  77.6049881  11.5426884  17.2036457   1.1849897   7.8091125  81.2100143
   0.4239780   8.2101364  80.7901688   0.8322027   7.0445771  81.6652756
  51.8451805  63.4222488  58.4036102  50.9098358  63.2229347  58.4440193
  52.2302246  62.6733017  57.9485817   3.3676040  26.2839851  85.0940857
   3.3607509  26.8545074  84.3255234   2.4808552  26.3490543  85.4485931
  67.4585800  69.7908249  61.3314209  67.8670502  69.5114059  60.5120850
  67.1826782  70.6923904  61.1662292  19.9949551  67.5998001   8.2284927
  20.5608177  68.3718185   8.2333603  19.1248970  67.9392395   8.4382849
  74.2627258  23.1222000   3.5185752  75.0167618  22.5449276   3.3985353
  74.5955200  23.8428059   4.0535536  83.7793274  54.4474144  31.1598244
  83.3955994  55.1437988  31.6927719  83.1039810  54.2404366  30.5138397
  82.4012604  22.9534760  33.7947655  82.1266022  23.3191547  32.9538879
  81.9172516  23.4609966  34.4462166  49.2164764  21.7587013  27.1482964
  48.9307289  20.9074135  27.4797935  48.4062500  22.2021236  26.8970165
  51.7614784  60.7129211  50.7520447  51.6316185  61.1007919  49.8866386
  50.9143524  60.3240891  50.9698029  16.8264618  44.3113861  25.0922260
  16.8711872  43.3579407  25.1641769  17.6446705  44.5576668  24.6608181
  52.3806839  48.4993782  61.4236298  52.6044464  48.0984955  60.5837173
  51.4293633  48.4127007  61.4845161  68.4481812  12.6987772  53.8778839
  69.2255554  12.1477966  53.9692116  68.4141006  12.9122229  52.9454079
  55.8799553  45.5702896  84.8768463  56.5709686  46.0953140  85.2806778
  55.1308060  46.1633911  84.8199310  14.2408810  68.9147034  62.8475342
  15.0432110  68.4051514  62.9609032  13.6316280  68.5478592  63.4882088
  42.6517677  55.5557518  66.0668030  43.0851974  54.7955513  66.4547119
  41.7239685  55.3208008  66.0520096  32.2390175  38.7278099  67.6245193
  32.2021904  39.3582726  68.3438187  32.0710106  37.8815041  68.0389709
  16.7086372  49.8121605  66.1680756  16.7951260  50.3069382  65.3532486
  17.3573685  50.2012711  66.7545700  22.8712807  62.5202217  40.9177818
  23.3930168  61.7437439  40.7150345  23.5097198  63.1647377  41.2231216
  83.3429947  56.8823433  38.4196358  83.4586487  56.2883720  39.1612892
  82.4358444  56.7486992  38.1449509  45.7329674  48.5768890  73.8461761
  45.8158493  49.4475937  74.2350616  45.1853294  48.0904808  74.4624023
  49.7425041  32.7766838  17.6768780  50.0400391  33.5768776  18.1097736
  48.9007721  32.5805855  18.0882988  12.9733973  45.6927032  26.9599838
  12.9936790  45.8831749  27.8978214  12.1956959  45.1470261  26.8431702
  63.6671448   1.1880358   8.5048103  64.2154541   1.0895423   9.2831974
  64.2778549   1.1173911   7.7711406  51.9595947  17.1128407  59.7697792
  51.1124649  17.1468735  60.2141228  52.1096840  18.0098324  59.4712639
  80.8711014  12.4722605  26.2998924  81.6250153  11.9009237  26.4462719
  80.1128540  11.9261131  26.5072823  35.6714020  26.3545952  77.3758850
  35.7067413  26.7029171  76.4850159  36.4750252  26.6707840  77.7887344
  76.3269119  56.2892456  70.9124527  76.4719467  56.2304459  71.8567657
  75.6706238  56.9789658  70.8134155  71.7740326  46.7634735  55.2774353
  72.0595322  47.6380615  55.0132027  72.4430389  46.4697800  55.8958244
  17.3450832  51.7480774  85.6049957  17.6018353  50.8584290  85.3624344
  17.7723122  51.8991928  86.4481277  68.2327805  54.7837830  67.5824966
  67.7456360  54.3913651  66.8579788  67.7515182  55.5851440  67.7884827
   5.4308987  55.0460701  71.2619247   5.3130941  54.2018623  70.8264160
   5.9203906  54.8386879  72.0579300  56.3663483  43.8010101  50.1723633
  56.1987762  44.0384674  51.0843735  57.3188858  43.8391762  50.0860634
  23.7865639  57.2098808  65.2877655  24.3795490  57.4632683  64.5803833
  22.9162521  57.4462852  64.9669800  83.4097443   0.8124722  18.6683216
  83.9204025   1.2475636  19.3510723  82.9113998   1.5179120  18.2557144
  71.6862335   3.8077650  83.9301376  71.2774582   4.0383320  84.7643890
  72.5082474   4.2981324  83.9225845  48.2774582  63.5053558  41.6318169
  47.4719543  64.0215836  41.6016693  48.6820107  63.6424713  40.7752151
  29.0346355  55.4310150  57.7991180  29.6935596  56.0449295  57.4748306
  29.5122757  54.8654518  58.4059334  76.2276688  35.5447426   7.5903821
  75.9333725  35.5388374   6.6795650  75.5803909  36.0814743   8.0477524
  18.9121799  62.5841751  36.9939919  19.4957790  62.9396706  37.6642609
  19.1910229  61.6742134  36.8917847  17.0227566  12.5520973  86.6082916
  17.7017174  13.0308056  87.0837708  16.4311008  13.2321653  86.2862930
  29.0015736  46.5322800  68.0960617  29.2904472  47.1124001  67.3916092
  28.6182213  45.7801285  67.6449051   8.3484526  46.1035118  75.7799606
   8.8337374  45.4088058  75.3348541   8.5737171  46.8994598  75.2983398
  38.4379959   0.8168274  86.3680496  39.2157097   1.0928547  86.8530273
  37.7134933   1.2701453  86.7991333   3.6802342   8.0045729  86.1027069
   3.5574114   8.8613396  85.6939316   4.6241713   7.8517418  86.0596085
  71.7139816   8.9741173  72.2916412  71.0454788   9.5994730  72.0118790
  71.3634109   8.1198959  72.0393829  27.9558277  45.2677689  81.9296722
  28.2837296  45.2767029  81.0304337  28.7295265  45.0915604  82.4649963
  78.0734711   0.4951563  38.6713028  78.2618179   1.4305356  38.5949974
  77.6646271   0.4025806  39.5318336   6.6959090  33.9259071  54.3188858
   6.4691792  33.0663300  53.9639893   7.4440427  33.7586288  54.8920784
  26.7329235  20.5149136  79.1775284  26.3151283  20.2849159  80.0074539
  26.9706821  21.4368210  79.2764664  68.6603622  66.4649124   2.6330421
  68.2515335  65.6747284   2.2799151  69.2112427  66.1498032   3.3496122
  72.2473526  10.3271818  41.5417557  72.5235901  10.2309628  42.4531670
  72.9048309   9.8452492  41.0400620  12.2195492  12.6574669  71.1811066
  11.9301805  11.7490149  71.0961761  12.7331486  12.6707258  71.9887390
  28.3461552  16.6533031  87.6222305  28.8062000  16.9966850  88.3881760
  29.0436287  16.3990002  87.0179977  82.8150787  44.7700500  37.3891373
  83.3981476  45.5232658  37.2946625  81.9795990  45.0672226  37.0287247
  64.4280777  59.0725365  47.5315475  63.6926804  58.4638100  47.6013565
  64.0704956  59.9137344  47.8157196  69.7956085  69.6933975  62.9724197
  69.7693024  70.1407700  63.8182335  69.0588074  70.0607529  62.4841499
  55.5551605  10.7846842  87.9781570  55.8617935  11.3448677  88.6911774
  54.7352905  10.4117842  88.3021698  59.0110130  23.0531216  35.6975098
  58.8396111  22.1168327  35.7985764  58.1452293  23.4600258  35.7303543
  84.7132568  47.6555214  80.4159851  84.2100372  48.2112007  81.0111465
  84.6337662  48.0838356  79.5636597  42.2244263  15.4661102   5.5607786
  42.0597954  15.8203506   4.6869121  41.9213104  14.5594463   5.5126996
  28.9732876  44.5827103  22.1818829  29.6314659  44.4222412  22.8581104
  29.2800579  44.0825691  21.4255867   4.7514863  70.0625076  87.5933685
   4.4499426  69.3447037  88.1501999   5.6499777  69.8259201  87.3632202
  25.3200321  27.1900940  75.8056870  24.8533993  26.7503757  75.0949554
  24.6399479  27.3971920  76.4466400  84.4676437  68.0502548  77.7852936
  84.9761429  68.6612854  78.3184967  84.9748840  67.9565506  76.9789658
  10.7187853  60.5804367  20.7875996  10.8812580  61.1923599  20.0696964
  10.7803440  61.1167679  21.5780354   9.0979748  10.9186268  31.2051888
   8.7758245  11.8062429  31.0483780   9.5358143  10.9693556  32.0548668
  77.3302383  27.6437206  45.6215706  78.2682495  27.8268566  45.6747894
  77.2795944  26.7080078  45.4263611  22.3139763  56.0287170  69.8551025
  22.4406757  56.2500343  70.7777023  21.6016197  55.3893623  69.8578110
  69.6614609   0.9115449  70.0503540  69.3077698   0.6448622  70.8988876
  70.6109467   0.8576984  70.1590118  74.9735184  17.6235580  15.5371094
  74.2526321  17.3254890  14.9823990  74.7141037  18.5018387  15.8156042
  41.4046707  35.1910324  23.2573071  41.0917015  35.9498215  22.7648449
  42.0791435  35.5437813  23.8377247  12.6927671  70.3987198  21.8826332
  13.1273909  69.9896927  21.1342831  12.0652237  71.0069199  21.4921017
  23.8640194  44.0691452  59.3583984  23.1249485  44.5995026  59.0605278
  23.7660236  43.2386932  58.8925858   2.5372057  65.6731720  80.1623764
   1.7298241  65.2690125  80.4802246   2.3475337  66.6113358  80.1521988
   5.0654907  22.6847019   4.2533951   4.6631489  23.4109402   4.7297673
   4.3540487  22.0565453   4.1288862  26.9333935  26.1925640  86.9549942
  26.4228249  26.7491493  87.5430069  27.4191151  25.6096878  87.5385666
  63.6247215  31.2340145   1.5648687  63.5859795  30.6567974   2.3274636
  63.0578461  30.8143215   0.9177651  24.5931206  29.0948849   1.4821833
  23.7073898  28.9440975   1.1520665  24.6526146  30.0448875   1.5831071
  11.8517580  21.5966167  21.7513638  11.2079773  21.1818810  21.1771049
  12.6533966  21.6280117  21.2292309  86.0756531  23.0546455  16.2658749
  86.8471069  22.7773552  16.7600384  86.3693161  23.8212719  15.7736607
  53.8148193  62.9124985   8.3204489  54.5034103  63.3849869   8.7882471
  53.5726852  62.1974792   8.9089651  25.8089409   5.5103569  17.8688469
  25.7280178   6.2922335  18.4150639  25.3206043   5.7223325  17.0733433
   6.7271457  67.0946426  40.6100693   7.1802874  67.6020660  41.2834358
   6.8446860  67.6028900  39.8075104  40.6983528  34.3187218  68.4473419
  40.6979485  34.2486496  67.4927063  41.6225471  34.4062157  68.6806793
  74.9240570  27.8038483  12.6542397  75.7272949  27.8179092  13.1746759
  74.5504227  26.9371490  12.8138037  62.2972107  31.4035034  74.0815201
  62.7135773  32.0586243  73.5214386  62.9454918  31.2236328  74.7624054
  56.6575851   3.5281117  85.6635895  56.6828156   2.6155198  85.9512863
  56.2320786   3.4974325  84.8067093  18.7492542  25.4771824  15.8085909
  18.8873119  24.8143997  15.1319141  18.0245285  25.1366730  16.3330517
  46.9163132  56.6617661  80.0973740  46.9035873  57.5348816  80.4894638
  46.8190308  56.8194923  79.1582794  71.5235748  37.1159668  15.7412529
  72.0817642  36.3811989  15.4867506  70.6348419  36.7612915  15.7168198
  45.3309669  51.5707512   4.4800167  45.4694366  51.8850937   3.5865707
  44.4149590  51.7762222   4.6669436  81.1915359  55.3785400  10.0357542
  82.0954666  55.5378265   9.7641468  80.6720657  55.9827042   9.5053139
  74.8913040  25.5573578  54.7995644  75.7794724  25.9142818  54.8011856
  75.0026321  24.6369324  55.0375824  85.7551117  37.0639572  88.0137787
  86.0401917  36.1581612  87.8933640  86.3134079  37.3995323  88.7151566
  70.5890808  51.3430367  67.2454834  70.7145386  51.7906227  66.4087296
  70.4932327  52.0502319  67.8833923  41.2389717  50.9663658  38.5971718
  42.1832047  50.9042320  38.7413750  41.0852432  51.8930550  38.4132118
  73.0454330  46.1895370  83.9539642  72.8551025  46.6236534  83.1223679
  73.7297058  45.5547638  83.7416687  46.3202324  60.8833809  53.3959274
  47.1938858  61.1148911  53.7111473  46.1078949  61.5640106  52.7572632
  48.4834671  18.2048473  60.8801346  47.6230049  18.4886303  61.1888542
  48.6866531  18.7989960  60.1576843  82.3574219  59.3886909  29.9607124
  82.4201584  58.5082893  29.5903187  83.2570496  59.7156105  29.9549770
  63.3147545  70.7643967  78.0000610  62.8934517  70.0389252  78.4609528
  63.4918823  71.4113617  78.6829224  72.3842163  53.5240250  76.6563110
  71.4790802  53.2760925  76.4679260  72.3100662  54.2400856  77.2871780
  64.0252686  61.0734825  10.3872471  63.2796211  60.6716423  10.8330822
  64.0849609  61.9513550  10.7640953   9.4488029   4.6400204  80.8324127
   9.2499352   3.7999067  81.2458038   9.1020613   5.2937522  81.4395676
  84.6580963  67.0660248  46.2345695  84.3656311  66.5339508  45.4945793
  85.1326752  67.7940521  45.8333435   9.4715385  36.0701523   7.4833426
   9.1400290  36.0537071   8.3811531   8.9580431  36.7524490   7.0508819
  82.7256393  40.5899849  59.6818657  83.5789871  40.7875862  59.2958946
  82.9262314  40.0336227  60.4345016  66.2343674  33.2470703  23.6758842
  66.7389450  32.4891205  23.9710751  66.1288910  33.1125298  22.7340736
  76.4338379  33.5907898  21.9232712  75.8116150  33.2124329  21.3020496
  76.8953781  34.2623329  21.4210320   6.3677015   9.7908258  76.9997025
   6.2095308  10.6154633  76.5401535   5.4934626   9.4414625  77.1725693
  80.2904816  54.6475868  83.0785599  81.2151489  54.8925285  83.1135483
  80.2271881  53.8710976  83.6346970  42.3621826   4.4366789  45.4267235
  42.7021408   4.8380098  44.6269760  42.1141739   5.1775460  45.9797478
  66.0374756  17.1257267  77.2241135  65.5928650  17.9506187  77.4193115
  66.5859375  16.9618759  77.9912949  31.7990208  59.2114296  48.4082336
  32.2970123  59.9319382  48.0220947  31.7663803  59.4165649  49.3426247
  76.0888290  66.1397476  34.1035919  76.4048767  65.2674866  33.8679810
  76.6325226  66.3985977  34.8476524  37.5122604   1.8779012  18.5775852
  36.6568451   2.1565299  18.2506962  38.0751495   2.6427960  18.4579029
  43.5446930  14.3555470  19.0776443  43.4594269  14.4194956  20.0288906
  44.4853134  14.2614756  18.9272709   5.5277147  69.6673203  11.8036890
   6.4308815  69.3505936  11.7892675   5.0049796  68.8913422  12.0057735
  81.2671814  58.0667877  71.6349030  81.3404999  57.1631393  71.9419403
  82.1052551  58.4671478  71.8663864  56.5652008   9.5370140  15.5799046
  56.6131401   9.4116116  16.5276432  55.9661255   8.8542471  15.2779636
  21.8206367  69.6334076  27.9265194  21.8900661  68.6792679  27.8944302
  21.2295017  69.8060226  28.6593170  24.8530483  27.4379635  88.4828796
  24.0493927  27.8717480  88.1961746  25.3119049  28.1007195  88.9990540
  27.7313118  48.3514748  62.0705376  27.1518574  47.8687401  62.6599731
  27.1640854  48.6288528  61.3511314  56.3651390  35.9038353  60.9031487
  56.0409317  36.8026009  60.9609337  55.6167145  35.3992577  60.5845642
  75.7819748  56.5791016  22.3204079  76.2281265  56.0853767  21.6323586
  75.6651382  55.9481049  23.0306358  86.8577042  13.1936970  36.4888496
  86.1934357  13.0083294  37.1526451  86.9939651  12.3561440  36.0459404
  46.0772285  44.5390587  83.7096710  46.3602524  44.2771873  84.5857773
  45.4467354  45.2429657  83.8620682  63.8552322  43.7493515  12.7182503
  63.9857750  44.6975899  12.7126837  63.8626213  43.5120010  13.6455278
   6.4395738  28.1574440  74.4360657   7.1971469  27.7184086  74.8227997
   6.3971233  29.0017967  74.8849487  52.9272003  22.5630054  74.3901901
  52.0032806  22.7088528  74.5934830  53.3501511  23.3993912  74.5846252
  55.2870331  12.2214031  21.2636051  54.4431801  12.2816906  21.7113895
  55.0724411  12.3112984  20.3351116  25.7721291   9.1573324  14.3878241
  24.9015255   9.1731701  13.9902954  26.0195637   8.2326679  14.3858109
  35.5851364   6.4039602   1.8002516  34.7409859   6.0399580   1.5335296
  35.3612823   7.1015019   2.4163330  28.1092415  49.0540009  28.8065166
  28.2676849  49.5982513  29.5778275  28.2146740  48.1561584  29.1211586
  65.5063171  71.6169052  47.1806793  65.9418869  72.2481308  46.6079063
  65.6534729  70.7700195  46.7595482  71.2823868  14.3610134  39.3855095
  72.1301727  14.1607046  39.7821960  71.4998474  14.7348537  38.5315895
  23.3701916  16.9289780  10.2928610  22.5413933  17.1515789   9.8688602
  23.3688831  15.9726667  10.3340597  13.4897156  21.3673325  26.9417953
  14.2886715  21.8461590  26.7212830  13.0051537  21.3175907  26.1178074
  49.3917122  10.7389498  40.9310074  48.6744118  11.0087547  41.5045166
  49.0945091  10.9698706  40.0509071  14.9361458  59.0637589  58.9934807
  15.5258141  58.3857040  59.3232803  14.1149931  58.9159431  59.4626198
  49.6021729  11.1935015  70.0911026  48.7315598  10.8963604  70.3556213
  49.9824104  11.5611811  70.8888855  26.4418812  66.1819534  75.2307892
  27.0626183  65.7586136  75.8238220  25.6841431  65.5971909  75.2198944
  45.7392731  25.4525204  61.9671364  46.3116531  25.0303192  61.3265419
  45.4955025  24.7502041  62.5700951  39.6863785   5.9124613  84.8854065
  39.1622925   5.1383333  84.6797562  40.1226387   6.1319642  84.0621643
  35.0130615  49.9719734  22.1565590  34.4445229  50.6479797  22.5253525
  34.9312897  49.2342987  22.7610245  46.7710571  10.4061852  70.6177979
  46.9095116   9.4776459  70.8045502  45.9766350  10.4273214  70.0842438
  39.6586761  22.3041191  77.3498840  38.9708252  21.8389912  76.8737030
  39.6575851  23.1841393  76.9733276  61.7747917  13.3493595  41.0061607
  62.2552528  12.9439039  41.7279587  61.1062584  13.8843346  41.4340553
  17.3407269  47.0591545  88.8551483  17.2258472  47.6612816  88.1199722
  16.5188389  47.1165390  89.3424225  76.8257370  51.7925034  79.9800110
  77.0485992  50.8940468  79.7364044  76.1053391  52.0275421  79.3951950
  19.4057808  45.2246857  -0.0001544  18.7180424  45.8868294  -0.0695333
  18.9350491  44.4057465   0.1547176  17.0891972  15.6907759  36.0076447
  16.5724850  15.2548304  35.3300095  17.9616623  15.3049860  35.9288902
  84.4184036   6.1660905  63.8601723  84.8661957   5.8751335  64.6545639
  84.8866196   5.7303486  63.1480446  15.4683418  48.8822212  36.1366081
  15.5641270  49.6820297  36.6536751  15.6176386  49.1616364  35.2333527
  64.4363785  54.4931831  40.8490067  64.2975159  55.4402580  40.8486862
  63.6050797  54.1293335  41.1536217  50.8757820  67.6534271  57.2486229
  50.3940430  67.3013000  57.9970665  51.1985626  66.8799973  56.7861824
  72.2858963  66.6244049  13.6044674  72.5302887  67.3398209  14.1915598
  71.3692856  66.7949295  13.3877230  80.3535767  32.3905067  74.2316971
  79.5535355  32.2949791  74.7484665  80.9639587  32.8400688  74.8161240
  34.6406708  47.7645721  87.7216492  35.4579315  48.0314827  88.1424484
  34.9091377  47.4368095  86.8633194  37.1317444  67.7501907  51.0076675
  37.5054779  66.9175415  51.2961960  36.1914978  67.5819473  50.9454842
  50.5232391  42.0849915  68.2758713  51.0218163  42.7839317  67.8526230
  51.1820183  41.5674095  68.7388535  39.1135941  49.1365433  38.9017639
  39.4624062  50.0235214  38.8132591  39.6551018  48.6067390  38.3166924
  13.6022348   3.7625887  68.7756424  13.0388680   3.4683084  68.0599289
  14.3385801   4.1917324  68.3399124  16.9140816  50.7660866  10.2610092
  17.1100216  50.8358574  11.1953392  17.7552986  50.5573006   9.8548126
  76.6621780  15.5482578   0.8140546  77.0494232  15.9180307   1.6074891
  76.3816452  16.3101006   0.3069727  10.6065359  54.4150085  60.3785896
  10.3049192  53.9824905  59.5797234   9.8776722  54.9801102  60.6348038
  36.3742065   8.0639753  73.1122971  36.0505524   8.9340267  73.3457260
  35.5958824   7.5891528  72.8207779  60.6881523  16.2143402  42.0679359
  60.4524612  15.7662277  42.8802643  60.3095589  17.0888329  42.1582680
  75.6243286  61.3556328  66.3485947  76.4363785  60.9052200  66.1163330
  75.5108109  62.0136299  65.6627426  86.0596848  45.7493401  29.1412239
  86.2121429  45.8799858  30.0771313  86.3621979  44.8572006  28.9715176
  22.7579803  35.1925354  64.7844009  22.8400383  34.9069786  63.8744774
  21.8662758  35.5345421  64.8486099  19.5214443   1.4505997  88.4552231
  19.8501930   0.7208944  87.9301682  19.0812588   1.0335476  89.1958542
  86.5786209  18.4162178  41.7146988  85.8499146  17.7965660  41.7500458
  86.2214737  19.1803989  41.2622566  63.5898247  13.8363390  20.4878788
  64.0724411  13.5530500  19.7113094  62.7052498  14.0143776  20.1684113
  76.1945496  38.9354019  32.8270607  76.7290115  38.4576492  32.1927681
  75.3482666  38.4884033  32.8120918  49.8961449  69.8176727  22.8113937
  50.2260399  70.6619339  22.5037594  48.9746933  69.8117752  22.5523129
  76.5617981   1.1234139  33.7997360  76.2013016   1.3523743  34.6563873
  77.2444611   0.4803646  33.9912605   8.2123861  11.6618500  22.2728481
   7.5331607  11.3519087  21.6738319   7.8351789  11.5433969  23.1445808
  75.4088745  56.4549179  76.0449295  75.7184219  56.7664261  76.8954468
  74.6892319  55.8598404  76.2552414  13.8952188  18.5354099  82.9908218
  14.3816261  19.2862453  83.3312454  13.4350071  18.8759975  82.2237244
  37.5180893  50.3889847   8.3128099  37.1453819  50.0775681   7.4879823
  36.7623634  50.5035248   8.8889980  32.5161285  11.6618881   0.6888182
  33.3124580  11.4058981   0.2234577  31.9973221  12.1312113   0.0355132
   0.6245151  23.3429432  64.4473953  -0.3123849  23.2889290  64.6358948
   1.0132403  23.6724815  65.2576599  63.4212914   6.7672544  68.5924530
  63.0095520   7.6309800  68.6185532  63.2665710   6.4017463  69.4634857
  25.8089867  40.0067558  76.6645432  25.4329796  40.2182693  75.8100815
  26.5134888  40.6442757  76.7806473   9.8811197  24.0721626  77.0221710
  10.4377613  23.3476982  76.7366257  10.0248260  24.1266537  77.9669495
  67.8501358  68.5195007  72.2692337  68.5849686  68.3448944  71.6812210
  67.9567719  67.8873901  72.9800797  16.9604607  17.5633221   5.1178064
  17.3449326  18.0821953   5.8243341  16.1877460  17.1580830   5.5114141
   0.9176094  59.7002869  81.4507065   1.5333526  59.7101212  82.1835098
   0.1469347  60.1632996  81.7792053  10.0095291  47.0779915  28.7184658
   9.7074928  46.1708870  28.7650051  10.0908175  47.2555885  27.7814045
  86.4881363   6.7906594  84.4048157  85.5806961   6.5785713  84.6234741
  86.5075760   7.7468095  84.3644257  74.3493881  24.2212296  51.6296921
  73.7556686  23.8614407  50.9706917  74.8435516  24.8959045  51.1640244
   1.9727888   9.5215206  56.3240814   1.6597840   9.4128990  57.2221146
   1.1763600   9.5399637  55.7934303  29.8734894  36.0633812  13.0748959
  29.9297409  35.2910004  12.5123177  28.9384727  36.1608505  13.2551050
   3.4833586  29.7453346  75.6084976   2.8546443  29.2047119  75.1302948
   4.1983390  29.1467361  75.8246384  54.0293159  10.5448608  75.2422104
  53.4420509   9.7963800  75.1367188  54.9002266  10.1940918  75.0559235
  51.6514168   8.8702307  29.5199566  50.7979660   9.3021269  29.5561829
  52.1983299   9.4633465  29.0048523  15.7569628   4.9210558  65.2165985
  15.6883125   5.0498371  64.2705841  15.4297237   5.7376490  65.5938568
  56.7983284  55.8769569  25.8803253  55.9161949  56.2478828  25.9022579
  57.3182106  56.4627151  26.4306355  57.8065796  24.4029560  85.2604752
  58.0924225  24.1734924  84.3762360  58.4553337  25.0375824  85.5647736
  70.1039658   2.2243185  54.9387016  69.5621338   1.5017246  55.2557259
  70.9143829   1.8062426  54.6477203  77.3792343   7.5994034  17.3016529
  77.5897980   8.4920692  17.0277157  76.6118011   7.6966085  17.8654194
   2.2861569  13.9463015  80.4117355   2.4774888  13.0819559  80.7757797
   1.4835900  14.2207346  80.8553619  85.0264511  23.5869427  84.8527756
  84.3539200  23.1303349  84.3473663  85.8274384  23.0885105  84.6908493
   8.8754768  48.0849380  73.9396973   9.6010561  48.0611153  73.3158340
   8.4326220  48.9143829  73.7604446  67.1890793  59.2151527  83.4604874
  68.0315781  59.3869209  83.8811111  67.3571014  59.3426933  82.5268173
  20.6042519  65.9208679  32.3829422  21.1801720  66.4094620  32.9710121
  20.6777668  66.3751755  31.5436363  56.4096375  54.6506615  46.5283585
  57.1632462  54.0802193  46.3770142  55.9715805  54.2716713  47.2903976
   7.3260064   2.2953463  33.2128334   7.4376254   2.1424682  32.2745361
   6.4473534   1.9683636  33.4059219  33.7087860  23.8094406  76.7024841
  34.0061913  23.6856365  75.8011169  34.3148994  24.4536514  77.0683365
  25.7246857  17.8210716  15.0973110  25.2422028  18.0108604  14.2926846
  26.3982296  18.4999485  15.1384850  81.1695099  56.6904068  60.5913086
  80.9601898  56.1789780  61.3728828  80.3514023  57.1353302  60.3700104
  15.4653893  30.1064472  24.6748371  16.1571655  29.4604588  24.8175907
  14.6758099  29.5843697  24.5326004  25.7759304  24.6602230   9.1864166
  25.0617294  25.2962112   9.1455488  25.3670063  23.8620243   9.5209160
  24.2045364  55.5819130  72.8375854  24.2580929  56.5080910  72.6018677
  24.5853558  55.1219635  72.0894852  50.1633797  28.0001278  17.0061092
  50.9321098  28.5332565  16.8034725  49.8835068  28.3020992  17.8702374
  72.5145416  46.8789787  24.8947163  72.9415588  47.7276230  24.7777119
  71.9279404  47.0067787  25.6402302  70.0521545  26.7579212  47.1620560
  69.3936310  26.8253136  46.4706573  70.6393356  27.4976826  47.0064850
  45.1564865  38.3506050  88.8973007  45.1587677  39.3026619  88.7982559
  45.9461784  38.0604134  88.4407806  48.4782639  53.6701622  15.7276468
  48.6749535  54.5730629  15.9772739  48.9840584  53.1365967  16.3406010
  46.1856232  48.6116104  42.9292717  45.6774178  48.4989891  42.1259842
  47.0959549  48.5033989  42.6539192  62.5092430  46.7889099   5.3099499
  62.7255821  46.9403496   6.2300014  62.9927406  47.4653587   4.8357348
  26.9051247  20.2714996  15.4775877  27.0349026  20.0370007  16.3964996
  26.8664570  21.2279186  15.4776278  22.7947063  46.7169037  72.2449493
  23.2320538  45.9003944  72.4863586  22.2747288  46.9468384  73.0150070
  84.9581375  60.5130386  72.8754959  85.5524292  61.1613121  72.4976196
  84.3971939  60.2486038  72.1463470  83.1531372  59.8035698  38.7080078
  82.2007675  59.7311516  38.6449013  83.4201126  59.0281830  39.2016983
  74.4240417  39.4185333  85.7047958  74.3485184  40.0867996  86.3859406
  73.8884583  38.6914444  86.0221710  66.2515640  45.8181839  44.0790024
  66.4547577  46.4555054  43.3943367  66.3695068  44.9672699  43.6567802
   6.6473298  65.8359299  28.5563469   6.8933825  66.7486649  28.7066975
   6.3212371  65.5330582  29.4037933  28.1746502  15.4094305  12.3245354
  28.6317444  15.9682732  12.9530201  28.4620323  14.5221128  12.5397348
  37.9522591  34.0907402  17.2771969  38.1184120  33.7826614  18.1681023
  38.2647667  33.3809624  16.7161369  63.9598541  42.4811745  50.9321327
  63.7705917  43.4172478  50.8674774  63.5335808  42.0971489  50.1659470
  50.0410843  20.1606026  74.2381439  50.0342979  20.8504028  74.9017410
  50.6061821  19.4807453  74.6051483   8.8125629   7.2076478  11.8239040
   8.4795151   7.6205602  12.6206570   9.4126940   6.5311413  12.1376143
   5.1685991  68.9696503  38.9997749   4.2871318  69.3249817  39.1137238
   5.4759040  69.3505707  38.1771584  16.0167561  14.5882797  82.5847244
  15.5770159  15.2846909  82.0970078  15.5731802  14.5729256  83.4328003
  36.9470062  32.2571564  86.0063324  36.1601448  31.7731075  86.2568893
  36.9852982  32.9879341  86.6233749  80.8003311  13.4095707   4.2722883
  81.2800903  13.9701719   4.8820338  80.3153229  14.0198536   3.7168140
  76.8954849  45.7417488  19.6657486  76.2988434  46.4504585  19.4249458
  77.7606735  46.0584297  19.4061565  84.0650330  47.3881302  53.8121681
  83.5482483  47.2427597  54.6046524  84.9122314  47.6980743  54.1321983
  63.8596077  34.6422119  20.2292252  64.2313843  33.8038864  20.5034904
  63.7976151  35.1523857  21.0367584  83.5396347  52.6704178  24.1790676
  82.9393158  53.0611038  23.5440731  83.8802338  51.8916206  23.7389526
   8.2683392  10.6111183   7.9203300   9.0234680  11.1928568   8.0074720
   8.0477343  10.6428232   6.9894381  22.5982246  11.7442703  65.0468979
  22.3470764  12.1776848  64.2312317  21.7789707  11.3886328  65.3912506
  18.1086845  66.6659546   0.9113171  18.1142826  67.4058304   1.5185963
  18.6317177  66.9632187   0.1668027  76.0394135  21.6952648  44.0822067
  76.1386642  20.7830086  44.3545494  75.7531204  21.6431961  43.1703110
  53.8811836  15.1964073  24.6987762  53.2386360  14.6612568  25.1645908
  54.6216164  14.6078577  24.5518036  23.4294338   5.9223890  62.7442932
  23.4807072   6.0338769  61.7949944  23.2885284   4.9837270  62.8679504
  62.7266426  18.1875019  19.7642117  63.2465401  17.6363487  19.1792583
  62.0779495  18.5982227  19.1926041   6.3113117  58.4524803  28.0527744
   5.8183875  58.2529373  28.8486633   7.1420770  58.8080711  28.3683968
  45.1308708  10.7094584  19.1086712  45.1703568  11.0987320  19.9822483
  45.9216003  11.0239038  18.6703720   4.3582249  58.1132698  87.0707092
   3.6008573  58.1372681  87.6555634   5.0026126  57.5790977  87.5350952
  77.1998596  64.7213058  50.0230370  76.6560211  64.1291656  49.5035706
  78.0985641  64.4694214  49.8106346  63.0020752  25.4382553   5.3129406
  63.8360252  25.1564178   5.6888785  63.1891632  25.5645008   4.3827300
  31.4079380  62.2319870  32.9917679  30.9921799  61.4611015  33.3779221
  32.0471191  62.5127068  33.6466522  75.6622086  29.5699539  65.3250046
  75.3790054  30.4618473  65.1236343  75.9701080  29.2217484  64.4882355
  32.3432541  68.4003601  30.4046040  31.4978371  68.8122711  30.5830173
  32.2121124  67.4785156  30.6264858  65.9023514  14.2512178  21.9372578
  65.1190643  14.1498489  21.3965092  65.8703003  15.1595860  22.2373772
  27.2367496  67.8673477  31.3647232  27.5081692  67.1129684  31.8876667
  27.6015682  68.6224289  31.8262310  34.7996292  57.4489250  24.4717979
  34.7797241  58.1592484  23.8304882  34.0571060  57.6266098  25.0491371
  11.8214111  33.9467506  72.8515549  12.0187807  33.4677429  72.0466843
  12.5655947  34.5375404  72.9672852  68.9600677  53.4326477  58.6043930
  68.4959793  52.7858009  59.1358528  69.1593399  52.9736671  57.7883911
  42.5323219  68.4225922   8.8673382  43.2230263  69.0852814   8.8693390
  42.9428520  67.6499252   8.4791670  59.4341507   2.8861399  65.8870773
  60.0576591   2.8837111  65.1608124  58.6595421   3.3256228  65.5362701
  42.4946785  36.8460579   6.8811927  42.0140343  37.1946220   6.1303811
  43.1480331  37.5168419   7.0797005  82.5609436  21.5845165  19.5948353
  83.2581024  21.5634041  20.2503891  82.3927307  22.5162392  19.4540100
  52.4236450  50.7277184  73.4819183  51.9198608  49.9611244  73.2084885
  52.2017441  50.8430443  74.4058762  55.9345284  14.1930532  15.0424976
  56.4902420  14.6631994  15.6640911  56.3579445  13.3407621  14.9397678
  15.2761593  70.6096573  41.7521706  15.6851711  71.4327774  42.0194206
  15.8048296  70.3083267  41.0132942  84.9173203  56.0150566   5.9732485
  85.6712189  56.6028061   5.9241481  84.1722336  56.5594597   5.7188907
  43.1500206  31.8807869  67.0369492  43.5250206  32.4166069  67.7358856
  42.4662704  32.4305954  66.6542892  33.3154602  30.7669220  68.5388489
  33.4495468  31.6972275  68.3577881  34.1832275  30.3757572  68.4378510
  48.8756371  49.7792816   2.4038422  48.6474609  49.7810326   3.3334467
  48.4915695  50.5864220   2.0614302   2.7373347  33.2888451  88.0236053
   3.5889008  33.5981216  88.3325043   2.1197631  33.5764084  88.6960220
  52.7533035  10.6492109  44.8501472  53.6560478  10.8052435  44.5727615
  52.2849236  10.4490395  44.0397263  52.6469307   0.8400641   7.0494809
  52.2313004   0.1097387   6.5911059  53.5295258   0.5271735   7.2478757
   0.6885397  19.6454105   0.9706301   0.3315476  19.8700447   0.1113703
   0.7181992  18.6886787   0.9750023  66.6536484   9.3508329  16.5247250
  65.9365616   8.8754473  16.1051769  66.2207184  10.0320425  17.0392666
  47.9055672  10.6546259  85.2114639  48.1308861  10.5341053  84.2890015
  48.1119003   9.8140430  85.6202164  40.3722801  63.0643616  10.7740679
  40.4989662  63.0718079  11.7228184  40.9816742  63.7255363  10.4458628
  70.9777756  60.4976921  34.3906937  70.2452011  60.0883408  33.9302559
  71.5640640  59.7710991  34.6017838  62.6986618   4.2530551   2.2772303
  62.8570137   4.8979430   1.5878273  62.1531868   3.5859692   1.8604767
  28.5671368   1.3656750  65.2291641  28.7529488   2.0012803  64.5379944
  27.6331902   1.4735525  65.4089890   6.5629983  36.5568619  36.7758713
   6.8238354  36.3203735  35.8857765   5.6073055  36.5987396  36.7422523
   0.6917791  69.3397675  85.2166367   1.2027723  70.1105576  85.4636230
   0.1270426  69.6443329  84.5063248  44.8439445  33.1965370  77.9098358
  44.6714630  33.6098785  77.0638885  43.9791489  32.9458809  78.2346954
  60.0070000  49.9265404   0.3251346  59.4196281  50.3492813   0.9516458
  59.5160446  49.9198151  -0.4965416  42.3302650  38.2180824  26.5390148
  42.1246452  39.1415825  26.6842670  42.4318886  37.8541298  27.4184704
   1.8673769  11.0775757  25.7684879   1.2522241  11.8104048  25.7405548
   2.6805062  11.4336386  25.4103394   5.9201431  61.3269348  80.5101471
   5.6085024  61.7267494  81.3220901   6.7604818  60.9329529  80.7443237
  43.5855446  60.0382195   8.9900560  43.6066551  59.2262268   8.4836426
  42.7060471  60.3874893   8.8460855  53.9636803   1.1309350  52.7733040
  53.8900452   1.3223171  51.8383255  54.2288857   0.2119210  52.8095055
  70.5592957  52.4437714  53.4840012  70.4306335  51.5015869  53.5934105
  71.4868393  52.5351143  53.2659264  40.4675026   2.6143789  60.5676956
  41.1085777   1.9382117  60.7869034  40.9525871   3.4364722  60.6390266
  66.7262573  66.8186417  47.3657150  66.2401733  66.1701813  47.8750839
  67.1477356  66.3113327  46.6720085  82.1561737  30.1541748  12.1729450
  82.7699966  30.7519779  11.7462358  82.5331268  30.0022049  13.0395718
  34.1932373  39.5290985   2.5520551  34.5571327  38.8163643   3.0772440
  34.6129723  39.4349670   1.6969552  48.1523094  40.0830002  24.4245319
  47.9961700  40.9615669  24.7709064  48.8465385  40.2010384  23.7761936
  42.0111237  51.2720375  34.1500244  41.1226730  51.0895920  34.4559669
  42.5510902  50.6019249  34.5690994  21.1152554  65.7768173  37.7015228
  20.2791748  65.7941818  37.2357979  21.2256336  66.6694946  38.0289116
  47.4294052  17.2491722  30.6746979  47.1833801  16.3277893  30.7568874
  47.6817665  17.5096283  31.5605373  46.0359344   2.9448011  30.4587097
  45.7041588   2.1336772  30.0736980  46.0879784   3.5552478  29.7232666
  64.6561432  12.7108202   3.4111464  63.7747536  13.0831976   3.3843064
  64.5152740  11.7654734   3.4631646  74.3223648  66.1713791  87.5973129
  74.9032440  65.4777908  87.9099655  74.8034592  66.5806198  86.8780746
  35.7161674  23.3207188  11.0452032  36.1849632  23.8721294  11.6716270
  34.8758087  23.7615891  10.9200392  85.7608261  65.9740906  66.4870071
  86.7079544  65.8763580  66.5851517  85.5762100  65.6467056  65.6066895
  38.6343536  33.0007362  31.8016129  37.7644501  33.3737984  31.6590633
  39.0861397  33.1204796  30.9662781   4.2695317  18.2935524  18.8420181
   5.1086578  17.9652061  18.5190811   3.9367540  17.5914669  19.4010944
  61.2072487   5.2205014  78.4571838  61.3628845   5.4087772  77.5316772
  61.7098083   5.8873920  78.9250717  82.8824921  26.0213604  48.7201614
  81.9303513  25.9578476  48.7952080  83.1875458  26.1231575  49.6217232
  86.3245468  37.0710106  48.6485634  86.8503571  36.3259735  48.9395485
  85.6330566  36.6816597  48.1133194  72.7003708  16.4989128  61.5072594
  73.5213852  16.8302708  61.1434288  72.3580093  17.2260895  62.0270996
  35.6851196  26.0901089  20.3273506  35.8833771  25.2585964  19.8966389
  36.5377884  26.5096245  20.4422264  16.1917305   9.6560564  86.6696548
  16.4638386  10.5467243  86.8907852  16.7882404   9.3901577  85.9698639
  49.8058090  18.5832844  34.9946899  49.5856171  19.4538307  34.6631775
  50.7578621  18.5291271  34.9116707  30.6691055  71.1294708  61.2229195
  30.3174477  70.7497330  60.4177055  31.4355412  71.6272049  60.9381828
  32.3558807  64.1163940  34.6687660  32.1685982  64.7409210  35.3695717
  33.2420883  64.3368835  34.3819695  25.9420204  57.2598495  25.6538391
  26.2652798  56.4327393  26.0110874  26.5941582  57.9074516  25.9213467
   8.2337856  65.8163300  88.7100983   8.0493231  66.7326279  88.9165115
   7.6257663  65.3202515  89.2582321  78.8679352   6.2807765  68.0403061
  79.7828140   6.5534410  67.9704208  78.8282776   5.7822137  68.8564529
  57.3920822  14.4966936   7.2865725  56.6786079  15.0374708   7.6253195
  57.8475723  15.0635815   6.6641593  52.5295906  46.1978874  34.9569740
  52.5853043  46.2390289  34.0022812  52.3824959  45.2716751  35.1486168
  39.7455139  66.5629883   2.8448832  40.4593430  67.1845627   2.9874384
  40.1625404  65.7030487   2.8980062  57.1862030   5.5980673  38.2717628
  56.8950806   6.5026979  38.1572075  56.3788757   5.1019850  38.4072533
  38.6296196  49.0337982  33.9188042  37.8815041  49.0778313  34.5143013
  39.3730354  48.8221626  34.4834099   8.3611660  10.8433104  11.8104563
   8.2105293  11.5849571  11.2243671   9.3011618  10.8666773  11.9895983
  24.6310444  65.5834579  35.3087044  24.3601284  65.1838913  36.1352539
  25.4202099  66.0782623  35.5291939   9.1842909   5.4842534  77.9937210
   9.7941418   6.1504822  78.3106613   9.0814219   4.8832712  78.7316055
  15.9611435  44.7380028  54.8964615  16.9014359  44.5900841  54.9974670
  15.7257757  44.2520218  54.1061096  72.5787964  55.6984901  78.6064911
  71.8102264  56.2445488  78.7718811  73.3126755  56.3129997  78.6017609
  61.3793869  62.5368118  85.0422134  61.5469742  63.1900406  84.3629150
  61.8288994  61.7499542  84.7339478  50.4905624  32.8500786   5.5377674
  49.5714073  33.1160660   5.5630956  50.7752876  32.8851089   6.4509678
  55.2329788  53.9104843  13.6741199  54.5707932  54.1974487  14.3029232
  56.0591660  53.9658279  14.1543112  77.6732483  69.8960800  73.3568420
  77.9556351  70.2857056  72.5293884  77.9193878  68.9739609  73.2837067
  42.9755135  28.4728870   9.2200460  43.7360344  28.4039993   8.6428995
  42.2802505  28.8179913   8.6599197  36.8630447  57.0609016  22.2051163
  36.9143219  56.1503868  22.4959240  35.9609337  57.3213081  22.3911572
  71.7093277   3.7684231   8.2637091  71.8609619   4.3302493   7.5037146
  72.2418518   4.1561189   8.9582195  79.3675995  61.8329430  44.1100044
  78.4815903  61.4933891  43.9838295  79.9163971  61.0514946  44.1763382
  14.6485748  17.9234085  23.3538246  14.5896893  17.2540092  24.0354919
  15.0115891  18.6884384  23.8001232  43.2154045  29.7235909   1.3020052
  42.4788513  29.3832607   1.8098373  43.8618088  29.9798489   1.9598260
   3.3013632  14.6176109  34.3364372   2.8715205  14.6804771  35.1893845
   4.2348499  14.5662851  34.5418663  77.3482590  25.7025719   5.8492775
  77.5335236  26.5284042   5.4021635  76.5005112  25.4265327   5.5009060
  28.8413258  69.7631378  84.4660645  29.7628746  69.8397980  84.7132568
  28.5317173  70.6672974  84.4124527  51.5052605  15.3011284  34.7047729
  52.0255699  14.6191730  34.2799797  52.0857697  16.0616207  34.7346306
  36.6206856  70.6850204  51.9160080  37.0676117  69.8409500  51.9794960
  36.0346565  70.5898666  51.1651764  86.1564636  51.1868019   6.3556409
  86.0534515  52.0928154   6.0645037  87.0033875  50.9161301   6.0011096
  49.3188591  64.0074539  38.9452133  49.4755745  64.0369263  38.0013885
  49.4601593  64.9072037  39.2396812  55.3766632  32.9004593  77.9773331
  55.2051430  33.6360855  77.3894043  54.6723480  32.9416084  78.6242371
  22.1086178  43.4211998  41.7970390  21.5204449  42.6662064  41.8133926
  22.7922592  43.1787491  41.1724777  87.0188828  21.2721348  60.1600723
  86.1860809  20.8961906  60.4452858  87.0239639  22.1536674  60.5330429
  78.7516022  65.1496811  84.5777969  79.7074814  65.1056747  84.6019363
  78.4902344  64.3936615  84.0521088  51.1602592  32.5338898  56.2424164
  51.0661621  32.9211693  55.3721313  51.9836502  32.0475845  56.2004166
  85.8473206  54.8178787  13.1482649  85.1966553  55.3655281  13.5875216
  85.3701782  54.0227509  12.9108963  41.6600838   6.5535707  47.0520554
  42.1921120   7.3439336  46.9598427  40.8376007   6.8615627  47.4327049
  73.0257034  30.9716053  51.3178329  73.3791962  30.8020592  52.1910591
  72.9999771  31.9261246  51.2510300  14.0941296  65.0091248  72.8990097
  14.2994003  65.8304749  73.3456497  14.8197689  64.4266205  73.1234207
  37.0583687  47.5205536  50.4183006  36.1984177  47.1164627  50.5341606
  37.6165161  47.0847549  51.0623398  55.5165367   1.1148106  78.0478592
  55.0299263   0.7134137  77.3279114  54.8535576   1.5881124  78.5505219
  85.9862518  16.1060410  65.0519638  85.6203232  16.9133682  65.4132843
  86.9100342  16.1290379  65.3016434  66.1102371  25.8763275  24.3848591
  65.5042725  25.1715794  24.6136990  66.8100128  25.8109608  25.0346889
  72.1242905  38.6627617  50.7990227  72.3577957  39.5019836  51.1957703
  71.9524002  38.0856476  51.5430832   5.0117235  41.6686096  40.7367439
   5.5978670  40.9677124  40.4514236   4.1538272  41.4176750  40.3942871
   0.7170268  51.3668060  58.8114738   0.2899275  52.2127380  58.6765022
   0.0262405  50.8024063  59.1586037  21.4209404  29.7324333  26.0976295
  21.5957947  30.0456429  26.9850750  21.1580429  30.5158787  25.6145878
  25.7258129  30.3527737  10.2536507  26.1380348  30.8069096  10.9885426
  26.0509949  29.4545517  10.3143511  72.5578308  48.8453255  78.2267609
  71.8322449  48.4616127  77.7342911  72.3902588  49.7874947  78.2050858
  73.7715607  36.5574646  30.6941776  73.8199158  35.6255760  30.4809227
  73.0314713  36.8824158  30.1814308  61.0478134   0.4065466  88.3855286
  61.8892555   0.2317351  88.8070145  61.0571404   1.3481133  88.2134933
  54.6279716  49.8420792  21.7946930  54.1628036  50.6483078  21.5714245
  54.0703316  49.1419983  21.4553452  76.5896683  38.8068085   7.6160522
  75.8491287  38.2003441   7.6216841  76.2087250  39.6476440   7.3628559
   9.3259268  57.0145302  56.0708694   8.6928997  56.4337273  55.6487579
  10.0001984  56.4267349  56.4115868  82.2048645  61.6950645  67.2363663
  81.7997208  61.1122322  67.8785477  82.0070572  61.2936211  66.3902283
  64.7905121  39.7206573  82.8756790  64.4057465  40.5705528  83.0898361
  65.5795212  39.9336739  82.3773651  54.5364227  30.4137955  23.8167610
  55.0009766  30.6773090  24.6111031  55.0078583  30.8507252  23.1074867
  47.8215446   1.6880207   2.9632061  48.0853119   0.7745132   3.0734868
  47.3381310   1.6996801   2.1371257  16.6185780   1.5529869  78.1239243
  16.0288353   2.2607694  78.3836899  17.2383709   1.9661379  77.5227585
  79.4519424  49.4104347  25.9002495  78.6320267  49.1007462  26.2850380
  80.0866241  48.7234650  26.1039371  47.2903099  60.6935310  46.7369690
  48.1633568  60.7538109  46.3491669  47.3720055  60.0143356  47.4064827
  72.9180298  57.3470535   0.6656932  73.6508026  56.7312202   0.6707024
  73.2719269  58.1371117   0.2572871  31.2873287  44.0917969  47.0462074
  30.9180717  44.8995476  47.4031715  32.2123909  44.1230507  47.2901573
  32.2907333  58.0322037  65.6134567  32.4260750  57.1907959  66.0492935
  33.1657219  58.4161873  65.5570221  53.6104889  22.0052299  78.3209000
  53.8389435  22.3172798  77.4453125  54.3328362  22.2991219  78.8759460
  62.9090767  22.6901264   9.6901903  62.4699898  22.3542233  10.4716024
  62.8994217  23.6409454   9.8000984  59.1386147  48.2982521  52.9248581
  58.8758888  48.3124390  52.0045280  60.0753059  48.4947510  52.9095955
  59.4583778   0.0793815  66.5430298  59.5962372   0.9102950  66.0882721
  58.6655235  -0.2819049  66.1466980   0.9190344  37.2542343  77.8646469
   1.2116042  36.7306442  78.6106262   1.1608053  36.7347565  77.0978851
  37.2748528  55.0080376   5.0153046  36.4605560  55.4944916   5.1438050
  37.0112038  54.2216225   4.5375237   3.5901868  52.2524872  47.3541603
   2.8879061  51.6020775  47.3554230   3.5263131  52.6756058  48.2103882
  19.2565479  43.0043945  23.9133110  20.0071545  42.4182434  24.0094757
  19.6406212  43.8800201  23.8685989  46.1102028  44.8673935  23.3511353
  45.8626747  44.4219856  24.1614285  45.4867668  45.5897026  23.2747974
  41.0961914  62.8617630  72.3140488  41.2312355  63.2713242  73.1686020
  41.9587593  62.5257912  72.0704803  16.2764702  10.7652130  83.0786896
  15.8932934   9.9519949  83.4074478  15.5691137  11.1812124  82.5859146
  73.5928726  24.7576866   8.2215166  74.0779800  25.5828495   8.2248611
  73.0102615  24.8254261   7.4650707  32.6128731  10.5241871  74.5593872
  32.9733543   9.8566761  75.1430893  31.8914528  10.0845451  74.1093826
  53.4026222  68.0814819  10.2751970  52.8697891  68.1976395   9.4885416
  53.0016136  68.6601486  10.9237041  34.7494583  26.5646229   4.3377266
  34.8062210  25.6132374   4.4264708  34.0939178  26.8267803   4.9840794
  56.6357079  65.9442825  16.2451057  56.9187393  66.2687607  15.3902130
  56.3188934  65.0577927  16.0719223  18.2697163  65.0893402  10.7926292
  18.3267612  65.8927917  10.2754745  18.9331799  65.1956863  11.4743452
  57.6598015  66.2139435  45.2009621  57.1320114  66.8227234  45.7177429
  58.3373604  66.7614899  44.8043022  31.0372925  50.3516846  28.0345058
  31.0629158  49.8193130  28.8295879  31.5852032  51.1101570  28.2363586
  13.8564253   6.6169205  78.3502350  14.1817131   7.4293494  78.7380219
  12.9082327   6.7381182  78.3004913  80.6602325  65.5174713  35.6760292
  80.3650284  65.1963196  34.8240051  80.5258560  66.4642944  35.6347771
  10.1453743  24.7708359   1.9286381  10.4113369  24.1372700   1.2622371
  10.9282570  25.2997169   2.0822949   1.6771498  40.4709549  74.3967743
   1.6221769  41.2842178  73.8949661   1.2530648  40.6747360  75.2303543
  64.2983627   5.4959950  74.4811096  64.7059097   5.1261311  75.2642746
  63.6227951   4.8620019  74.2405090   1.7905020  56.6523247  73.8814240
   2.7143416  56.8806877  73.7784576   1.3380758  57.4950714  73.9177780
  32.1116409  68.9819107  75.6657104  31.6794777  69.4029770  74.9226303
  32.8718796  68.5434113  75.2836227  77.9583511  52.5565376  84.5993881
  77.0918198  52.5302620  85.0051651  77.8106155  52.9624443  83.7451935
  47.6860580  39.4167747   9.6427259  47.1494789  40.2052841   9.7237310
  48.5828705  39.7222786   9.7792120  22.9839764  69.1620560  10.2249498
  23.0454006  68.3363419   9.7446928  22.6772461  69.7946854   9.5753899
  83.3267288  23.4470291  68.5163422  82.5356979  23.1731815  68.9805756
  83.1563721  23.2246876  67.6010437  11.1706085  11.3325377  16.2661381
  11.5615196  11.5548973  17.1111088  11.4935217  12.0065269  15.6680603
   5.1233978  53.7171402  53.9642448   5.1802368  53.4418755  54.8792458
   4.9991174  52.9029732  53.4764786  25.4744759  55.6044655  12.7412395
  25.1094112  54.9932594  12.1014071  25.7923756  55.0465660  13.4511127
  28.9880409  10.7176132  15.9763680  28.0815887  10.4114065  15.9478264
  28.9655342  11.4789095  16.5561562   6.1996803  23.9939022   7.6322317
   5.2905297  23.6944427   7.6311851   6.6751332  23.3143539   8.1101322
  84.7120895  38.8240280  68.7530823  85.1227798  37.9849586  68.5444412
  85.1832581  39.1357384  69.5257874  26.4858646  69.4655685  40.1481247
  25.8904057  69.9536285  39.5793877  26.0472431  68.6268082  40.2906876
   5.5020242  57.5558014  76.8626556   4.9729304  57.5570869  77.6603317
   5.8492756  58.4458733  76.8041458  47.7701073  61.7789307  25.1823978
  47.2322502  61.4544106  24.4601612  47.2015533  62.3926849  25.6474628
  81.5469666  13.7339926   1.1028359  81.1951599  13.1770163   0.4084015
  80.7855835  13.9608812   1.6367288  51.9172821  62.2975502  71.1047745
  51.8736038  61.4238739  70.7161636  52.8029785  62.3563499  71.4629822
  47.5137215  63.6346207  51.7239456  47.0456047  63.6289673  52.5588493
  46.8978271  63.2481461  51.1014137   7.0748315   8.4869671  51.2311249
   6.1559563   8.4881210  50.9629860   7.1906528   7.6525593  51.6856384
  43.3973427  36.5564156  34.6385574  43.4394646  35.8056221  34.0463028
  43.3880119  36.1703529  35.5144005  12.8301935  54.6754074  14.9866085
  12.8234711  54.6653442  15.9437323  11.9051790  54.6854935  14.7406874
  60.1043968   9.7354765  48.4349098  60.3822136  10.5308399  48.8892746
  60.3506165   9.8828878  47.5217400  23.9700222  51.8792877  48.6151352
  23.3807735  51.5931320  49.3130836  23.5979443  51.5021629  47.8179092
  12.4032354  36.2080154  24.5007534  13.0427561  36.3358841  23.8001156
  11.5602655  36.4120216  24.0957661  21.8508339  70.2447586  61.9768829
  21.1153831  70.5811615  61.4648514  21.4595604  69.9700546  62.8061485
  29.8507290  49.5976067  15.6049805  29.3483467  48.8938103  16.0154819
  30.2430916  50.0711250  16.3385105  69.1817474  49.9512253   3.6697612
  68.4252701  50.3480911   3.2379427  69.5832367  49.4042244   2.9946084
  69.7019272   6.9007740   5.8408113  69.8006363   7.8525510   5.8654852
  68.7945175   6.7471819   6.1039624  59.8317566  64.2694702  69.6982803
  58.9610100  64.4021835  70.0730133  60.3159332  65.0617218  69.9309692
  83.1362305  67.8331375  23.7996387  83.2188950  68.6634293  23.3305740
  82.3622665  67.9458160  24.3514633  68.7463303  16.3089790   6.5230193
  69.4954147  16.5855770   5.9951940  69.0364761  16.4216728   7.4281969
  55.1666985  45.2173271  54.2255936  54.5844116  44.4590340  54.2720947
  55.8884888  44.9310799  53.6658478  53.6986465  45.3424377  80.2534027
  53.2550545  45.3882256  81.1003799  52.9904327  45.2430420  79.6171799
  10.3716021  65.5053787  75.8604507  11.0544195  64.8382492  75.9306717
  10.8459158  66.3142624  75.6681671  19.1054573  25.4677925  32.4511795
  18.9640007  26.2216415  31.8785229  19.4815903  24.7992897  31.8785877
  48.4327545  15.5472593  60.0353584  48.4022331  16.3627815  60.5355835
  49.0113640  15.7402792  59.2976646  78.7269058  60.8636475   9.8086681
  78.7444687  59.9282494   9.6063004  78.0595703  61.2227249   9.2238979
  75.5887909  43.0243568  69.0774307  74.8595428  42.9614944  68.4606018
  75.5565948  43.9266968  69.3952103  17.0452194  43.9501038  11.6025963
  16.0985012  43.8536186  11.4994040  17.1484375  44.4425354  12.4168997
  11.4980860  14.6895113  25.8416023  12.0352745  14.9850664  26.5766602
  11.2299576  15.4960623  25.4013577   8.2757158  58.2694054  48.7588425
   8.8564548  58.1330338  48.0102577   8.4430475  57.5207253  49.3313026
   6.5259032  30.8867970   1.7093601   6.7293267  30.7499084   2.6346233
   6.5958457  31.8334694   1.5862597  86.2217102  71.3417282  67.8784714
  86.1039505  70.3964081  67.7850418  85.3634872  71.6639328  68.1539230
  18.1691093  45.0347328  29.8744812  17.5035286  44.8782768  29.2045879
  18.2431240  45.9879532  29.9205513  39.0710373  49.3205299   2.3431978
  38.3209686  48.8250504   2.6720273  39.6046448  49.4906120   3.1194499
  47.8476486  52.7949562  47.9175758  48.5587196  52.1768303  48.0864983
  47.1572075  52.5386887  48.5290108  21.5530376  19.6024342  12.4388018
  21.0904884  20.3408699  12.8350258  21.2484894  19.5880566  11.5314569
  38.2788239   1.4764938  82.9299469  37.6879845   0.8457091  83.3413544
  38.5728722   1.0422616  82.1291962  70.9499893  43.4025230  70.9004517
  70.8739777  44.1041718  71.5470886  70.0618744  43.2926826  70.5606995
  83.7011261  53.2279816  71.2744370  82.8680115  52.9075050  71.6200333
  84.1166916  52.4537277  70.8948746  35.6482887  23.4948006  89.0525513
  35.0685997  23.7026920  88.3197632  35.2984657  24.0010223  89.7857590
  16.7565784  70.5430298  79.1894760  17.3759823  70.5378952  79.9192352
  16.7470284  71.4520645  78.8898239   9.0814037   1.5083102  55.5431862
   9.6740627   2.2592909  55.5113220   8.7894192   1.3950770  54.6386681
   4.4174123   3.2597375  35.6240120   4.5626688   2.8828354  36.4918137
   3.6655824   2.7794967  35.2770920  78.6796951  23.7708168  55.2025757
  79.0177917  23.3274136  54.4245529  78.0227661  23.1699581  55.5542068
  85.8359146  31.2097740  82.1143036  86.3939667  31.9159184  82.4401474
  85.3710480  31.5951881  81.3716202  45.9319496  13.6220245  12.2415056
  46.3392563  12.9363070  12.7707710  45.4542580  13.1475000  11.5611591
  65.3490601  21.5012970   3.5114686  65.9364700  21.6741161   4.2472124
  65.7536011  21.9529438   2.7707980  79.5915756  60.0406494  29.8677349
  80.4585571  59.6352425  29.8825874  79.3028793  60.0221901  30.7801743
   9.4523621  36.2295609  51.1057358   8.9457474  36.0602760  51.9000397
   9.6209030  35.3613739  50.7395706  76.1081467   7.2643361   7.8094764
  76.4850845   6.4760966   7.4185462  76.8589554   7.8376222   7.9639392
  74.2974701  -0.2299174  77.5793457  73.6389771  -0.1743562  78.2718277
  74.6277542   0.6641023  77.4906158  61.2196884  39.4116707  75.0950928
  61.6255188  39.3713379  75.9610672  60.7984657  40.2707748  75.0677719
  64.0282822   0.9580476  66.6883163  63.4721680   1.2883788  65.9827347
  64.4038696   1.7439742  67.0851593  62.4217873  19.3034515  63.9717216
  63.0807724  19.9266014  63.6656952  61.8815155  19.8062344  64.5812683
  63.7589073  57.1805573  41.4264641  63.5808220  57.3279686  42.3553276
  64.4573135  57.8001022  41.2152252  11.0576277  50.2984505  34.0289879
  11.0302563  50.8817902  34.7874031  10.4917173  50.7198486  33.3821487
  85.8531876  34.7614899  76.6597900  86.5737534  34.3212929  77.1106110
  86.2732468  35.2335930  75.9408340  85.0555649  12.1147852  75.5787430
  85.2890091  13.0346184  75.7038040  84.3069077  12.1365862  74.9826965
   1.5398160  18.4713078  84.0905991   0.9996638  18.8930359  84.7588882
   1.0443320  17.6919746  83.8388672   7.6704106  35.7052002  56.8559189
   7.9181848  34.8770256  56.4448624   6.9076896  35.4878235  57.3918610
   3.0793607  64.2732468  69.2598648   2.5970163  63.5317116  68.8942108
   3.4353542  63.9439125  70.0851135  63.6185532  33.3585892  72.8330078
  64.4246979  33.8082466  72.5796814  62.9222717  33.8541756  72.4019394
  20.5828590  70.9665985  86.8329315  21.1194344  71.4666824  86.2179184
  20.9816856  70.0965500  86.8461990  85.2678757  56.5054665  80.8215866
  85.0799789  56.9583588  81.6436615  85.2032471  55.5757866  81.0401077
  81.4114456  26.8081703  65.9650421  80.9043427  27.6037006  65.8031311
  82.3001862  27.0299644  65.6872406  56.2908936  71.1127396  50.2678223
  55.6083565  71.1466599  50.9380646  57.0345535  70.6969833  50.7041054
  78.7527084  36.4716492  43.1503258  79.6718369  36.3871422  42.8967743
  78.3559952  36.9838791  42.4457169  19.1377926   8.3538704   8.9794617
  19.4459152   7.5579276   8.5461397  18.2907448   8.5356169   8.5723848
  79.5534744  68.8801651  32.2556381  78.6153564  69.0327835  32.3691444
  79.9722900  69.5557785  32.7888947  40.1510468  45.3000603  70.1709824
  39.9931831  45.3051491  71.1150589  39.2966728  45.1043015  69.7863312
   7.0342412  18.3599014  10.9293413   6.4278407  18.8498325  11.4847479
   7.5805616  19.0313377  10.5207586  71.2926483   0.5615944  41.9043579
  71.8795776  -0.1191165  41.5751419  70.4900436   0.0942991  42.1360741
   7.3090625  57.4908905  36.7174187   6.6915231  58.1671219  36.4388733
   7.7334175  57.8586807  37.4925842  13.9611912  12.2756519  82.2258911
  13.7239475  12.9338493  81.5726547  14.1795044  12.7823372  83.0080948
   5.9705234  44.1020508  56.7327309   6.3932753  43.9867935  57.5837479
   5.1721144  43.5770493  56.7888527  70.7990417  57.5778046  17.7683487
  71.4063110  58.0292282  18.3545895  70.5497513  58.2410622  17.1247864
  81.7915497  43.0069008  30.7180767  82.2350769  43.3382187  31.4989414
  82.4072952  43.1729774  30.0042763  84.7210617  12.2767859  84.9199905
  85.1198654  12.1134062  84.0652924  83.8552933  11.8727379  84.8614960
  48.4885712  25.0557995  27.4747868  47.8871994  24.4813423  27.0008831
  49.2174797  25.1912956  26.8693409  53.8157005  16.2424774  65.2750244
  53.4946327  17.1440754  65.2913666  54.7471046  16.3235989  65.0697556
  34.4056816  23.5820713  21.6259785  33.6239090  23.3728237  21.1148205
  35.1280632  23.4996815  21.0033970  51.7223892  46.0070229  45.4637833
  52.2880707  45.4693680  44.9095612  51.4013367  45.4042702  46.1344910
  13.6093616  66.3926773   8.6371355  14.1169491  66.4076691   7.8257408
  13.7150688  67.2712479   9.0020504  53.9684067  27.1949196  83.9079132
  53.8829346  27.9990082  83.3956909  53.0863304  26.8233852  83.9194489
  24.6648598  29.0430870  19.9925957  24.8439674  29.0920200  20.9316158
  25.4623833  28.6714230  19.6156960  81.7250290  57.4817162  66.8504868
  81.2879333  56.8730545  66.2549133  81.0734253  57.6637115  67.5276337
   2.7296963  58.9959106  55.9054375   3.5992665  58.7300301  56.2044144
   2.3383541  59.4304276  56.6632462  64.7816086  11.3234997  66.5988770
  64.3279419  11.2464724  65.7595444  64.1262817  11.0712748  67.2493896
  70.2824783  22.4317875  19.7626076  70.9541550  21.7681084  19.9194965
  69.5719070  22.1994038  20.3603687  38.3658714  62.4078331  25.0232887
  39.1089020  62.9071693  25.3621082  38.7542114  61.6020088  24.6825981
  75.3869629   1.1650727  63.3077011  75.5168381   1.9723884  63.8053017
  76.0068283   0.5448254  63.6914825  82.2739944  51.1973343  65.5807953
  81.6902771  50.6956902  66.1498795  83.1143112  50.7426834  65.6390839
  72.9296646  53.9672699  81.1329193  72.3313599  54.4100723  80.5310974
  73.8011322  54.2492485  80.8549652   1.6870706  43.7482185  88.5670853
   1.6344956  44.6849251  88.3772202   2.4132566  43.4349327  88.0278854
  69.5695496  18.7809067  53.7640495  69.3267670  17.9365959  54.1440849
  70.2133560  18.5638237  53.0897980  42.7398453  68.3647308  87.2577515
  41.9359436  68.8785095  87.1802597  43.0034332  68.4688416  88.1720352
  25.1773357  36.1313400  66.0067749  24.4055538  36.1490059  65.4408417
  25.3978825  35.2029457  66.0821228  67.4417572  66.3187180  35.1754570
  68.1991043  66.8092117  34.8559799  66.8692017  66.2384872  34.4125824
  34.5052872  19.2215290  88.5396805  33.8618393  19.2168465  87.8310318
  34.9582176  20.0596142  88.4464035  64.8295822  20.0320454  15.3738823
  65.3991547  20.6908722  14.9766788  65.3284912  19.2172718  15.3150501
  84.5988235  68.2973862  88.0211945  84.5546036  69.0234375  88.6433945
  85.3932877  67.8218994  88.2640381   2.2281380  30.1096058  53.6611938
   2.6983294  29.4154873  54.1230888   2.7803462  30.3112812  52.9057961
  54.9109383  52.1753502  29.3312778  55.2163429  52.7710266  28.6470757
  54.5876579  52.7516632  30.0237999  41.9926796  11.7951679  17.2653160
  42.5036926  12.3192978  16.6485634  41.5810471  12.4383001  17.8425255
  44.9335899  37.4254532  60.7005768  44.3622017  36.8053932  60.2475052
  44.3896255  38.2024956  60.8291740  77.8251038   9.3535738  35.2039909
  78.0756912   9.1576223  36.1067886  76.9042282   9.6084681  35.2609749
  26.5601673  64.7914047  79.5472488  27.3550415  65.3121948  79.4323959
  25.8574200  65.4380798  79.6120377  22.3670578  42.2473755  29.9692574
  22.1046524  41.7419853  30.7386456  21.6790962  42.0782661  29.3255634
  36.8826790  63.0803680  35.3639488  36.6006966  62.9256668  36.2654953
  36.6686096  62.2689705  34.9034653  69.4020157  62.1946678  64.5354919
  69.2753296  61.5121918  63.8763924  69.6461105  62.9713860  64.0321426
  59.3708000  68.6867523  27.0744858  58.6213226  68.9955521  27.5835629
  59.2427216  69.0665054  26.2052250  67.7258530  23.3048954  66.3029861
  66.8118286  23.3680782  66.5801010  67.9037323  22.3647366  66.2767487
  70.4942551  26.8146286  34.3255959  70.9513779  27.6545124  34.3687325
  70.4595184  26.6085453  33.3914909  41.6190300  65.0084152  65.9651947
  41.8816414  64.2696915  66.5143280  40.6950722  65.1456833  66.1742249
  15.4082756  10.7807150  72.8029022  14.9530792  11.0100441  73.6131058
  16.2364254  10.3985825  73.0933762  15.5077162   1.6488534   2.5607445
  14.9879971   2.3502851   2.9533234  14.8926382   0.9222913   2.4606516
  23.9231224  43.1479797  19.4149075  24.7630787  43.5316811  19.1629562
  23.3720150  43.2471504  18.6385860  24.9472198  71.1530991  38.7626457
  24.6204281  71.2712708  37.8707504  24.6497993  71.9325409  39.2319450
  57.7045364  41.1307945  83.4246140  56.9476433  40.6149330  83.1467056
  58.1548729  40.5728493  84.0587463  66.3717117  44.6418610  19.2491703
  65.5144348  44.2815285  19.4760227  66.1790543  45.5030518  18.8784065
  52.0875244  44.9181366  85.5221329  51.2411194  45.1859283  85.1641922
  51.8714828  44.4780045  86.3442230  84.2766800  13.2888718  41.8564873
  84.2986374  12.9732084  42.7598763  84.4485321  12.5104971  41.3265533
  72.6757660  58.9043465  61.5316696  73.3716202  59.0876122  60.9004555
  72.7551804  59.5999641  62.1843872  70.1169510  39.6145363  41.8208275
  69.7647400  38.7449646  42.0106316  69.7650375  40.1721725  42.5146828
  51.9285698  27.1829472  34.2758751  51.2382774  27.7274017  34.6544189
  51.4932747  26.6969166  33.5755005  49.1393852  20.8148251  12.9737921
  49.0911827  20.2192001  13.7215481  48.6803665  21.6026402  13.2651358
  68.0919418  -0.0606716  21.8118496  68.5739441   0.4378738  22.4716644
  68.3651047   0.3200333  20.9771786  46.3207779  47.2142944  81.1639175
  46.9327011  46.5624580  80.8220291  45.5541801  46.7066956  81.4301910
  46.0222168  50.4165344  59.6395226  46.1307106  49.9369164  60.4607582
  45.3494339  49.9288254  59.1644096  34.9960136  49.5651169  38.4189186
  34.4659843  49.5040932  39.2136345  35.4047165  50.4292068  38.4693680
   9.2403908  28.1448898   8.6521482   9.1200733  28.9456787   8.1417627
   8.4121866  27.6742725   8.5581856  35.2708015  67.2178650  84.9876709
  35.2889023  68.0639648  84.5404358  35.2828522  66.5728607  84.2805252
  70.2325287  36.7721748  71.1547623  69.8577194  36.7558327  72.0353775
  70.2329102  37.6980171  70.9117661   7.8222408   5.6210122  65.2617569
   7.8673773   5.2125916  64.3972397   6.9047880   5.8762827  65.3584442
   1.7714787  61.1206436  11.0172291   2.1061449  60.2508278  11.2355223
   0.8538399  61.0992889  11.2887344  58.9717598  29.0912476  44.4918747
  59.5173798  29.7453537  44.0552139  58.9069786  29.3984394  45.3961258
  33.6355515  51.0778542  71.9143295  33.7214012  51.1959839  72.8603210
  33.6438255  50.1288300  71.7897415   8.5112448   6.0719414  27.7629528
   7.6631393   6.5074062  27.6774006   8.7905626   5.9123502  26.8614292
  68.8175201  28.3686142  27.1161842  68.2023773  28.2216015  27.8346672
  68.3884506  27.9851608  26.3512726  50.2704124  46.6730499  80.0986557
  50.3244171  47.4858551  80.6013184  50.9992752  46.7249336  79.4803543
  11.2507715  52.3152504  35.9851799  11.8459949  52.9587784  36.3696442
  11.2562056  51.5845680  36.6034889  54.5237465   1.8053508  61.2066193
  55.0999336   2.4717631  61.5809669  53.8009644   1.7359014  61.8303108
  24.9047489  64.1018066  86.2893906  25.2196865  63.7541695  85.4550095
  25.6988106  64.2439499  86.8046494  36.0003281  27.7521801  83.7219620
  36.9404831  27.6768856  83.5586472  35.6507111  26.8861008  83.5124207
  69.2611237  33.4133224  28.1121120  69.4128265  33.5599213  27.1784477
  69.0425644  32.4836121  28.1761703  71.9354782  51.3796158  40.2215195
  72.6185150  51.6306343  40.8433571  71.9424057  50.4224930  40.2315865
  78.9218369  33.7819824  54.7869606  78.6081085  34.0377502  53.9195557
  78.3607025  33.0482140  55.0378571  75.6068420   5.1094589  72.8831787
  75.7320328   4.2468352  73.2787094  75.5521698   5.7086411  73.6276398
  68.4903717   8.7584867  56.2249908  69.3805237   8.6978350  55.8783188
  68.3260651   7.8997731  56.6146660  72.7835083  48.7627678   3.4155397
  72.2915649  49.3257294   2.8177989  72.8144455  49.2541466   4.2364078
  32.3222618  63.2518349  75.1349335  33.1092644  63.5441933  75.5946960
  32.3338890  62.2987137  75.2224579  43.8079453  65.9297333  29.0592098
  44.6959457  66.1910248  28.8154545  43.5542831  66.5510941  29.7417011
  21.4656067  54.7530289  34.9750252  20.6429958  54.3215370  35.2060204
  21.8537579  54.9945717  35.8159943  19.0529442  71.2133408  63.6188965
  19.1817532  72.1615372  63.6424828  18.5472946  71.0206070  64.4084549
  37.6993141  21.4527626  75.8370819  38.3607941  21.5617447  75.1538544
  37.6516762  20.5068398  75.9756317  57.2270927  40.2711525  15.1150455
  56.4231186  40.5400772  14.6705894  57.4997368  41.0459824  15.6065083
  66.0651093  17.8306389  14.9380388  66.9644012  17.6778259  14.6479511
  65.5359650  17.2450809  14.3964128  17.2418804  63.7280960  31.4953461
  16.5682831  64.3303146  31.8113136  17.5987701  63.3300171  32.2893181
  44.4495926  61.7681313  13.5138369  44.7804413  61.7522964  12.6157713
  44.4180870  60.8474350  13.7737474  21.1269550  68.1797714  24.3703766
  22.0237885  67.8452301  24.3711262  21.2178326  69.1091537  24.5806561
   2.9042459  65.0347137   7.5589056   3.1275835  65.6893539   6.8972459
   1.9506168  64.9650192   7.5145574  32.6777611  55.7775764  61.6688957
  31.7630253  55.9961243  61.8470230  32.6357613  55.1140137  60.9803085
  83.9844589  66.1201935  17.9115334  84.8781662  66.3275146  17.6385212
  83.7942886  65.2812653  17.4916973  29.3133335  35.5738487   0.4381167
  29.4586430  36.3252220  -0.1368193  28.3926601  35.3468399   0.3075119
  71.0856247  48.7048187  37.0983620  70.5512924  48.0248299  36.6880760
  70.4505005  49.3251724  37.4561501  78.0952988   8.8553991  21.0539265
  78.3774872   8.8505116  21.9685726  77.5107269   8.1010885  20.9795933
   9.3591280  45.1933632  16.1169109   9.3268290  45.7323456  16.9072838
   8.9989367  44.3489532  16.3879585  61.4650803  35.1251869   1.7233083
  61.3538551  34.8565483   2.6352816  62.2751160  35.6351547   1.7209299
  27.3818092  65.3396454  22.8174515  27.0304718  64.4612350  22.9629860
  28.3286438  65.2380066  22.9144382  37.6062546  62.8814507  65.3709946
  38.2807198  62.4029922  64.8889160  37.9526405  63.7703705  65.4489441
  32.3470955  36.0504799  64.3351440  32.3328743  35.5120621  63.5438576
  31.5270290  35.8409691  64.7821732  29.6265545  66.4693146   9.9215097
  29.5818176  66.9617157  10.7411222  28.8031235  66.6696625   9.4764786
  63.0452538  62.6880188  58.1607513  62.4547386  62.8583107  57.4269104
  62.6274490  61.9751358  58.6439362  22.1096058  68.0632019  79.2675323
  22.6673622  68.7718430  79.5884323  22.6025429  67.6803284  78.5418243
  75.6608505  69.9080505  54.5545349  74.7607193  70.1089325  54.8107491
  75.5764313  69.1930618  53.9237404  29.2903042  45.5774384  85.0766830
  30.0078793  45.3434219  84.4879913  29.4749107  46.4813499  85.3318176
  26.1468525   7.2448087  81.6266479  26.2995472   7.5730186  82.5127563
  26.6963787   6.4636922  81.5625458  26.2462730  70.5369034  33.4755936
  26.0489254  71.4566650  33.6525879  26.2288113  70.1182785  34.3362198
  80.9107742   1.3327314  10.8995876  81.5718460   0.7159554  10.5852528
  80.2453842   0.7814171  11.3113337   1.1051733  37.9963264  30.0162067
   1.1618956  38.6944313  29.3637772   0.1689996  37.9137344  30.1978359
   7.9894648  51.0058022  30.2260056   8.7141657  51.0739555  29.6043987
   7.2553229  50.6828842  29.7035198  49.1959724  57.2115479  47.2057037
  48.2541275  57.1890831  47.3749962  49.4936218  56.3204956  47.3891678
  79.3144379  34.3043289  39.4339218  78.8948288  34.9708290  38.8899193
  78.7364807  33.5440216  39.3696327  13.2418509  64.2969284  52.7985001
  12.4465275  63.8778992  53.1272926  13.5867233  64.7791443  53.5500069
  22.1865864  50.2809677   7.4503770  21.4060268  50.7414551   7.7584505
  22.8490391  50.4594498   8.1178589  61.0633888   0.6724431  28.2179928
  60.5321350   1.4034426  27.9023342  61.8390732   1.0860909  28.5967312
   6.9902201  63.9269676  61.0555916   7.1644344  63.3789711  60.2903595
   6.2160907  64.4357605  60.8145905  14.1249447  40.7591667   3.1690445
  14.6294184  41.4655685   2.7656350  14.7314167  40.0192642   3.2001388
  13.0861406  41.2877922  41.5030594  13.0620642  41.0768051  40.5697136
  12.5179968  40.6343536  41.9110603   3.4662957  60.1471252   1.9169505
   3.0198674  59.6729126   1.2154843   4.2543607  60.4999008   1.5037509
  58.4030037   3.1963208  58.7614136  57.7009354   2.5646517  58.6054497
  58.1791687   3.9446561  58.2081299  25.6017284  44.2535400  66.3313065
  24.9461040  44.0040245  65.6800537  25.1569233  44.8949165  66.8853989
  50.7346001   5.8152466  57.1419525  51.3842468   6.0672188  56.4856720
  49.9457092   5.6210599  56.6358147  28.6873283  44.5094872  16.9823513
  29.6330624  44.6178856  17.0826912  28.5928135  43.8844681  16.2635670
  66.2400970  10.3544798  24.2775784  65.5430298   9.6999416  24.2338181
  65.8237915  11.1672735  23.9907169  78.5195465  70.4406281  76.0320587
  78.2394333  70.2582855  75.1351089  79.3600006  69.9903946  76.1167145
  53.5723763  60.7458572   9.6564875  53.0910950  60.9230309  10.4647007
  53.2753563  59.8768997   9.3864422  24.4815693   8.0789185  88.0155182
  24.1542797   8.9748478  88.0956726  24.7486610   7.8411555  88.9034119
  10.7828760  18.6753120   7.0072260  11.2102337  17.8500385   7.2364011
  10.7727022  18.6820545   6.0501037   5.5727158  50.2401772  37.4029121
   5.9013805  51.0234070  36.9615936   5.3999891  49.6205444  36.6940727
  61.3175507   2.9399934  22.7951946  60.8389359   2.8231974  23.6158772
  61.5919495   2.0563252  22.5501080  45.2213860  68.5971146  40.6572571
  44.7587662  67.8043823  40.3856201  45.0199432  69.2376328  39.9750633
   5.9096403  39.9215508  88.4238281   6.8562846  39.8712883  88.2912750
   5.7539897  40.8249626  88.6992416  66.6975250  34.0487671  75.0611115
  66.3312149  34.8028908  75.5230026  67.5468216  34.3531761  74.7413101
  67.0805511  61.6837845   7.0851841  66.8451233  62.2675743   7.8062901
  66.4180756  60.9933128   7.1099610  78.8753967  44.9173279   2.6617565
  79.7926788  44.8090096   2.9129350  78.7119141  44.2080269   2.0401487
  33.4224548  63.6192207  16.4095936  33.0184288  64.3954391  16.7975101
  33.1621094  63.6484489  15.4889441  67.3039093  47.7841797  42.4879189
  67.0755539  48.6751938  42.7528343  67.5702438  47.8673706  41.5722923
  85.6484451  13.4907532  51.5057564  85.9058762  13.6089087  50.5914230
  86.4326553  13.1458473  51.9327126  27.6514759  69.5793076  21.5513916
  28.5959511  69.6572113  21.6860352  27.4767380  70.1045532  20.7704830
  78.4953690  45.5648384  87.5851593  78.0368271  46.0750504  86.9175797
  78.2951584  44.6539001  87.3699036  54.4152107  50.5339279  43.9139709
  54.6460381  50.6639824  44.8337746  53.5866890  50.0552979  43.9403152
  70.2688904   7.6241241  79.3647614  70.8143692   7.9192390  78.6356583
  70.2137451   6.6749816  79.2537689  55.1369171  41.4144096  13.7842093
  55.2349663  41.1476707  12.8701696  54.1991081  41.5760345  13.8872681
  56.4036903   2.9439933   3.7479846  55.6806946   2.3614237   3.5153432
  57.1275520   2.3545954   3.9597983  66.7310638  56.6592903  19.3821297
  65.8279953  56.4289322  19.6003990  67.1862183  56.6680107  20.2241440
  18.5741158  55.7810745  44.3584976  19.2302837  56.1630020  44.9414253
  18.3108311  56.5034256  43.7882996  73.6840973  23.1781349  22.7380161
  73.8016129  22.2736053  22.4477615  74.4958878  23.6180477  22.4856262
  83.0861130  66.1828079  79.4555511  83.6253433  66.7200165  78.8751373
  82.1911163  66.4827194  79.2966385  51.1780815   7.4778461  68.0788727
  50.6833801   7.1489892  67.3283005  50.5244637   7.9180102  68.6222687
   2.0286515  42.5691910  55.6079025   2.0990460  43.1168327  54.8260078
   1.4594594  43.0645752  56.1968384  85.6679459  22.8485718  33.2671661
  85.0220947  22.3786602  33.7946930  86.3537598  22.2028561  33.0970230
  50.9909286  25.4164944  60.8876152  50.7805824  24.4982033  61.0571136
  50.7976303  25.8626232  61.7121353  21.9566631  27.6399689   7.7323117
  21.5746040  28.3169136   7.1737328  21.5429859  27.7717400   8.5853882
  77.1921692  32.1307640  77.4552612  76.2409744  32.1499901  77.5605927
  77.4667511  33.0373611  77.5928116   7.2009025  15.2213259  66.6420059
   6.7144246  15.7960930  67.2329483   7.7133565  14.6589832  67.2228622
   4.4297628  70.1625595  61.2690811   4.0231519  70.0885315  62.1324577
   5.3665504  70.2369232  61.4511032   9.1894045  31.6314106  10.3876743
   9.7190237  31.9729290  11.1081610   8.5427446  31.0675583  10.8120947
  84.4341812  54.6808624  73.5576324  85.3462448  54.4562607  73.3734283
  83.9336548  54.2228928  72.8823776  21.4380531  31.1239338  35.2025185
  22.2888718  30.7829647  34.9266930  20.8135090  30.7312908  34.5925941
  43.8368835  53.1133842  41.5770721  44.6376610  53.3710938  41.1203766
  43.8316383  53.6475830  42.3713264  53.2228928  19.1902122  78.6597290
  52.2805023  19.2106152  78.8262177  53.4495163  20.0972309  78.4543304
  31.2943859   8.4863071  71.8624115  30.8678837   7.7232637  71.4724274
  32.2299767   8.2913790  71.8084869  45.4262733  34.8746529  37.8128319
  45.7812386  35.3296280  38.5765266  44.6106873  35.3358383  37.6169662
  64.3976746  61.0582504  81.5343170  63.7135201  61.1002731  80.8661880
  64.3178406  60.1788940  81.9038925  19.0817070  48.2221375  28.5375042
  18.2795925  48.1919289  29.0589733  19.7873631  48.2361488  29.1840992
  69.9316177  39.5396919  70.5388107  69.7799454  39.8368874  69.6416473
  69.0546646  39.4037819  70.8975830  71.4856415  34.3099403  10.2381191
  71.9967728  33.6636047   9.7510548  70.9700470  33.7914314  10.8558064
  57.1584206  54.1464348  31.3841496  57.9042625  53.6545029  31.7275963
  57.5366554  54.9690056  31.0734272  33.9431725  37.7684174  33.7081223
  33.8141861  38.3789444  34.4339676  33.1524200  37.2290306  33.7054405
  68.9555206   8.5059137  38.0232849  69.5299072   8.7746696  38.7402878
  68.3402405   9.2324286  37.9241104   2.2853148  40.1658096  19.9218025
   1.4110320  40.4707375  19.6791496   2.7089214  39.9645042  19.0873756
   2.7957406  23.3385754  68.0981293   2.1066945  23.4002991  67.4365921
   2.3386252  23.0727196  68.8960037  58.4437523  42.3586922  23.4481907
  59.1150169  43.0354004  23.5359745  58.6246948  41.7477570  24.1625061
  59.4190826  29.3866520  29.6928349  59.4825325  29.7108669  28.7944527
  58.7668266  28.6874180  29.6496143  57.8317337  52.0372353  44.7349968
  58.3852501  52.4961624  45.3668480  57.7614708  52.6407471  43.9953575
  49.1503029  67.5583878  62.3741379  48.4319725  67.3301010  61.7841225
  48.9849625  68.4709854  62.6109123  27.8978577   5.4621630  25.4846745
  28.8540401   5.4242744  25.4620838  27.6994057   6.3714585  25.7083492
  56.4132080  29.0766411  78.3919754  56.7577248  29.6083946  77.6744995
  56.2191887  29.7070923  79.0856018  22.6693916  62.9213333  64.5149231
  22.8507099  63.5651474  65.1996536  23.0961952  63.2750092  63.7345467
  57.7307968  69.0088730  20.7578239  57.4200211  68.3892059  20.0977726
  58.4815674  69.4386902  20.3481560  60.9216652  17.9344406  79.8302536
  60.9572945  18.3211308  80.7051468  61.5892677  18.4063740  79.3324356
  54.2944450  13.9681768  18.5806274  53.7997475  14.4439096  19.2478485
  54.8172302  14.6411943  18.1447639  19.9398880  30.1847076   3.0567987
  19.1385632  29.6821327   2.9100800  20.2162457  30.4558105   2.1813774
  78.4302292  60.5541458  57.6983833  79.0712509  60.8296089  57.0430641
  77.8185043  59.9979286  57.2160454   0.8325768  19.0313129  62.8298149
   1.7392980  19.2745743  63.0166664   0.8415639  18.7605286  61.9117622
  68.5839081  16.2454758  62.6630478  69.2502670  16.8685665  62.9527893
  68.9679184  15.8245020  61.8939247  18.8152561  26.5165176  20.7932186
  18.8461990  25.6018581  21.0737095  19.7326832  26.7872143  20.7573738
  53.0040627  67.1061630  43.1938019  52.1767921  67.1420898  43.6739731
  53.4959602  67.8652115  43.5070229  34.7763519  13.7879343   9.6006689
  34.3820877  12.9227009   9.7109470  34.1386795  14.2772169   9.0808496
   9.5960989  32.9774017  75.7101822   9.7624264  33.8206940  75.2889709
  10.3104658  32.4150581  75.4107132  28.6001854  52.6073265  31.5197392
  28.5117149  53.2097588  32.2583008  28.3176022  53.1165619  30.7600975
  50.9006577  24.0440350   0.4194006  51.4422722  24.8330402   0.4004316
  51.2345238  23.5070095  -0.2991877  45.6914330  29.5194263  16.4542923
  45.5085373  28.6001244  16.6483650  46.6254425  29.5389690  16.2457695
  83.6182098  41.6972198  40.9301567  84.2844620  42.3822441  40.9856529
  82.9159698  42.0876884  40.4099350  44.3268738  47.7893753  55.8495255
  44.0601387  48.3999939  55.1623344  43.7993240  47.0063362  55.6921310
  31.2450085  49.7102966  45.0511131  30.8333855  49.4218369  44.2365036
  30.5710716  49.5817986  45.7185936  41.8043518  71.5782089  61.0830002
  42.2378273  71.3677368  61.9100609  42.3768921  71.2075577  60.4113998
  73.2741928  11.2080936  50.1013527  73.0148849  11.1702070  51.0219803
  74.0734177  11.7348413  50.0991173  54.2040749  55.6269226   8.3844872
  53.3887863  55.2246552   8.0849648  54.6414337  54.9379425   8.8847437
  52.1025581   9.1422482  13.5684261  52.5575256   9.7381115  14.1635618
  51.8768997   9.6846151  12.8126822  47.0101128  56.7588654  63.4446907
  46.5792656  57.5790520  63.6853065  47.6151237  56.5855713  64.1659164
  72.5364685   2.0457020   6.2083654  72.2301559   2.3984129   7.0438271
  71.8025589   1.5227897   5.8856263  18.3265400  70.3395004   3.7874773
  17.5933743  70.5756989   4.3557315  17.9167976  69.9290924   3.0259628
  68.8770905  57.3582687  47.2028618  68.0433807  57.8245163  47.2643166
  68.8941345  57.0147743  46.3095818  65.5973969  30.6453781  28.8798389
  65.7828445  30.0548248  29.6099701  66.4583435  30.9517269  28.5949554
  59.8282623  11.6733637  62.8826866  59.9410820  12.5879784  62.6238747
  59.2817345  11.7122173  63.6675644  13.2601891  55.0031242  59.7223511
  12.3780041  54.9472656  60.0895844  13.8405714  54.8904305  60.4751396
  18.2287941  71.3853989  25.5087357  19.1721268  71.3434830  25.3518887
  17.8429279  71.4419174  24.6345825  66.4509354  48.3145065  63.1958427
  66.5336380  49.2570839  63.0511475  65.6126938  48.0833931  62.7956352
  65.8519592   9.9435110  33.3961029  66.6788330   9.9967184  33.8753548
  65.3911743  10.7512197  33.6230736  71.2741928  70.5648041   2.2641973
  70.5013046  70.3670502   2.7931285  71.3844681  69.7961578   1.7045102
  80.7369537   1.7766346  36.8857231  80.4673538   1.9507308  35.9839249
  80.1453323   2.3072536  37.4192581   0.3149443  58.8798370  74.1027527
   0.6346124  59.5929756  74.6554565  -0.4947487  59.2178345  73.7201462
  17.6326294  50.6969299  63.8740387  18.4500771  51.1935577  63.8370094
  17.9013138  49.7848358  63.7639351  11.6538076   4.6432934   6.7890782
  12.0503044   4.8824744   7.6268215  11.7797279   3.6965020   6.7261314
  69.6861496  45.9964218  53.6552200  70.4285889  46.0730247  54.2545128
  69.0948029  45.3780251  54.0843086  66.0005722   7.8689089  57.7854385
  66.6660538   7.2169752  57.5655479  66.3532562   8.6934519  57.4508171
  13.1980934  54.9420166  55.5877380  14.0879698  54.9906387  55.9370079
  12.6537867  55.3496323  56.2613945  15.9848690  68.7626953  16.2738228
  15.7626200  69.6190186  16.6392689  15.2257156  68.2139206  16.4707012
  71.8739853   6.2871079  56.1953011  71.2252731   5.5855203  56.1389008
  72.3023758   6.2865915  55.3393135  40.5678635  55.9599228  59.0382729
  40.6817436  55.4934311  58.2102318  40.2401772  56.8226089  58.7840652
  10.4855614  40.6496277  58.3788033  10.6135063  39.7689705  58.7313652
  10.4375582  41.2123718  59.1516190  47.9648399  15.8789272  14.3366299
  47.9319458  16.7867985  14.6381578  48.8321037  15.5705767  14.5993185
  52.3019028   9.1470871  36.1168175  51.6989021   8.4468517  35.8672333
  51.9857979   9.9158745  35.6421852  29.4912777  57.2982445  70.9095306
  28.5832157  57.0129585  70.8082047  29.8728962  57.1968727  70.0375595
  79.9483109  65.4170532   6.5136328  80.1800537  66.2756729   6.8676271
  79.1699219  65.1570129   7.0062985  83.9822464   2.9753406  71.8803940
  83.9166794   3.6750216  72.5303040  83.1070709   2.9224005  71.4963379
   4.5133996  59.8786659  59.4294052   4.7225199  60.7084122  59.0004272
   4.5652266  59.2275505  58.7296944  43.4519310  10.8624125  69.9025650
  43.1816292  11.6494503  70.3755798  43.8996048  11.1929436  69.1237411
  43.4757004  66.9022217  72.9884338  43.6371117  66.3896103  72.1963425
  42.5287132  66.8509140  73.1180954  51.9001503  50.7344513  87.9996414
  52.0543213  50.9854355  88.9103928  51.0244751  51.0679817  87.8042374
  72.4630737  34.7343979  25.9242287  72.8722534  34.1467171  25.2890663
  72.2471085  35.5189362  25.4201527  47.1786957  63.2851257  76.3101273
  46.5198059  62.6457291  76.5808105  46.7175598  63.8604889  75.6997681
  44.4376945  66.1560440  58.8405418  44.7096405  65.3270264  59.2342377
  45.2455978  66.5311966  58.4901314  34.7490311  36.6389046  14.5513268
  34.5896530  37.5289078  14.8655300  34.6126328  36.0854187  15.3202724
  46.2296066  41.7864456  57.6621819  46.7664413  41.3342590  57.0113640
  46.2921257  42.7112846  57.4234390   5.5508533  55.2809143  36.8404922
   4.7172647  55.7497139  36.8006630   6.2030578  55.9289551  36.5742188
  29.8057251  42.1915398  68.2902298  30.2035484  43.0620537  68.2771912
  30.5326481  41.5988388  68.4813385  19.3823204   0.9795063  22.5734768
  20.1401424   0.4460269  22.3340302  19.7326279   1.8655241  22.6656075
  43.6194687  65.8908997  39.4888191  44.0093765  65.0187073  39.5477791
  43.0377426  65.8424149  38.7302170   5.5805874  10.6520700  71.0250702
   5.3729239  11.3698053  70.4267731   5.6960115  11.0752506  71.8758545
   6.6564236  16.8750095  80.2125320   5.9161482  16.2898579  80.0518417
   7.2876716  16.6564789  79.5269699  63.4683647   1.0666152  79.8552475
  62.6587448   1.2264538  80.3402252  64.0500717   0.6498466  80.4909744
  75.9533005  48.4174194  67.7350769  75.0752792  48.2191811  68.0606842
  76.1126633  47.7583466  67.0594559  67.1393433  63.9262123  83.5794907
  66.9822540  64.8393707  83.8196793  67.6275711  63.5645866  84.3191452
  57.0923119  59.1690788  34.8424301  57.3814812  59.5019264  35.6920319
  56.9829369  58.2279358  34.9785233  80.0236664  56.0252380  76.0670242
  79.6637802  56.8664780  75.7859039  80.8085327  56.2547417  76.5645599
  84.1763535  23.0432224  64.1046829  84.4689407  22.2376251  63.6784973
  83.8475266  23.5870571  63.3888969  77.6772079  46.5241051  23.5171242
  77.8775864  45.5935860  23.4160690  76.8478928  46.6422043  23.0539494
  13.0709066   3.6116760  65.9940643  14.0264292   3.5818655  65.9459000
  12.8168344   4.2441635  65.3220215  32.3195763  54.2949677  55.9162636
  31.4685497  53.8996887  55.7272148  32.1350861  54.9504128  56.5890121
  30.6264973   3.9616866  73.3979950  31.1547489   4.7104654  73.6746063
  31.1931896   3.2033832  73.5396576   2.9752853   3.9621601  14.8909521
   3.7966876   4.0786443  14.4134998   2.5988379   3.1604655  14.5279036
  18.1350269  22.7283535   6.0603724  18.9360790  23.1482010   6.3738623
  17.7761765  23.3440933   5.4213700  10.0843925  47.3562317  80.1685181
   9.3776703  47.1173439  80.7682800   9.6931019  48.0051003  79.5836334
  61.5335999  24.6532516  36.1017952  60.9510384  23.8937874  36.0938377
  61.3045273  25.1391392  35.3095360  79.4743271  65.8079376  61.2538414
  80.4173279  65.9433060  61.1608391  79.2143173  65.3691635  60.4438400
  67.9760437  14.1256914   0.9888285  67.5408249  13.4592457   0.4571662
  68.6133118  14.5256157   0.3970652  59.4411545  33.3608055  41.2383385
  58.9165421  33.9073410  40.6532631  60.0894852  32.9507637  40.6658287
  42.4280891  51.8664894  58.9036789  41.6732292  51.2921829  58.7748833
  43.1817818  51.3302765  58.6574020   1.0509105  27.8590336  68.2222672
   0.9018758  28.7660255  67.9550934   1.7361580  27.5450630  67.6322784
  26.4626980  44.8597603  85.6317902  27.2877007  45.2629471  85.3615265
  26.7064781  44.2712250  86.3462372  28.3938656  46.1102066  79.3483505
  28.1167507  45.2308998  79.0909348  27.8700314  46.6960106  78.8018494
  79.9717941  13.5828991  32.4260101  79.9321060  12.8059807  32.9837303
  79.4108200  13.3710489  31.6799126  54.3899689  67.5365677  60.0950890
  54.0434227  67.0182800  59.3687859  53.6447029  67.6508408  60.6847954
  54.5314255  32.5800018  14.9231482  54.6857796  31.8864613  14.2817354
  54.2418480  32.1183395  15.7100706  17.8021564  60.6995354  63.6425400
  17.8175526  59.7555313  63.4848900  18.3908920  61.0625038  62.9808159
  25.4755898   2.8303149  45.2571259  25.8726559   3.4493036  45.8698463
  25.9791260   2.9359255  44.4499550  84.5828323  39.6272545  53.6253204
  84.0892487  39.1680374  52.9458199  84.6500778  40.5270348  53.3057861
  53.6850014  28.0054913  29.7686119  53.6542091  28.8172188  30.2749538
  54.1458855  27.3869801  30.3354092  66.7276077  70.7711563  34.4176254
  67.4591675  70.9926605  33.8414421  65.9480515  70.9156647  33.8813019
  17.7080555  48.7585754  15.2293625  17.6450272  47.8633690  14.8963947
  17.0177269  48.8176270  15.8898096  24.9276543  58.5227432   1.8072125
  25.4725857  57.7428131   1.7023741  25.0173378  58.9909286   0.9771595
  22.6215019  58.2241135  28.9801941  21.7293530  58.5193100  29.1623001
  22.8345833  58.6143761  28.1325378  49.1945457  49.4192467  42.5038643
  50.0175285  49.7460632  42.1403809  49.4020615  48.5367126  42.8109398
  37.6126022   1.0244220  64.2072906  37.1894264   1.7673031  63.7768478
  38.1482620   0.6241121  63.5224190   3.1008556  11.1310673  68.4327698
   2.8212039  10.5336752  69.1264191   3.8201170  11.6291094  68.8211594
  47.0732231  69.2121506  64.4930649  48.0036545  69.4095612  64.6005478
  46.7058525  69.3036423  65.3722153  37.6120872   2.5818276  79.3879547
  38.2035217   3.0002859  80.0135193  38.1927757   2.1593382  78.7550735
   6.4245362  52.8108101  56.6239204   6.9360847  52.0272064  56.8252029
   5.5660429  52.4762955  56.3644562  47.1395226   6.9328446   4.5257878
  47.1721764   6.0021358   4.3045487  46.2848434   7.2245979   4.2085495
  33.6305313  60.3074532  85.7079315  33.1968231  59.4836388  85.9303360
  33.5880814  60.3501892  84.7526321  28.0102539  10.0604525  11.3805714
  27.1598511  10.0034065  11.8162222  28.6099949  10.3592091  12.0641546
  62.7767563  22.3572445   6.7884007  61.8686371  22.1753025   7.0301557
  63.0729904  22.9978809   7.4349790  44.7720642  49.6693535  65.7284088
  44.1358833  49.6205482  65.0148773  45.6062660  49.8467255  65.2938080
  10.6952972   4.2508874  56.0727196  11.1596069   4.5298815  55.2835388
  11.2933025   4.4620109  56.7896919  83.9935532   4.7456956   0.5597348
  83.9952240   3.8383045   0.2549875  84.9129028   5.0104027   0.5289055
  48.4012375   5.5713511  55.8490562  48.0024490   4.7077212  55.9555511
  47.6610909   6.1783228  55.8469582  28.5657806  52.5705490  25.3193092
  28.6603451  51.7726784  25.8395882  27.7602253  52.4367561  24.8198967
  34.9239388  30.9420395  18.9263763  35.2646141  31.4608231  19.6550980
  34.4135323  31.5638790  18.4076920  68.6838837  56.7398872  41.2052460
  68.0969543  56.7342033  41.9613647  68.3311996  56.0667763  40.6232109
  37.4924927  41.3834419  68.0925674  37.8903427  42.0568810  67.5408173
  36.5541801  41.5696030  68.0587082  49.2925262  49.9509010  13.9980116
  49.7348824  50.7989769  13.9616413  48.5179291  50.0609512  13.4465437
  49.2391701  58.2766380  29.1158981  49.4507484  58.6617241  28.2655010
  49.3094444  57.3324165  28.9753990   9.3175516  51.9920425  32.5550423
   9.0690765  51.7316437  31.6680889   8.4853678  52.0917358  33.0173874
  62.8846512   8.6642990  86.9055481  62.4500237   9.4777384  86.6493301
  62.1847115   8.0114374  86.9149551  21.3764172  50.1078873   0.0407074
  22.2760239  49.7901230  -0.0365276  21.1282368  49.9074059   0.9431741
  62.8473053  42.6015129  27.4891281  63.4405022  43.1890869  27.0210342
  62.8366051  42.9364433  28.3857555  48.3103828  24.7312222   9.5424042
  49.0606003  25.0115166  10.0666571  48.6682549  24.5967579   8.6648626
   8.9254847  63.5743942  72.4331055   9.6869135  64.1260605  72.2538757
   9.0740528  63.2412758  73.3180847  52.4267273  20.3653374  41.0773010
  51.9219513  19.6383057  40.7128029  52.0682411  21.1435318  40.6505280
  31.3863316  30.5267906  70.5962067  31.2974701  31.3603249  71.0583267
  31.9615402  30.7230511  69.8567123  50.5431290   2.3197143  59.2645836
  50.9131050   3.2005720  59.3232384  50.5036507   2.1385553  58.3255119
  77.1450577  50.7005196  54.4832764  77.8379364  51.2885666  54.1826897
  77.6104050  49.9370689  54.8250847   2.4161339   0.0743529   6.2083259
   2.7693586   0.7517518   6.7850361   2.1394320   0.5480162   5.4239082
  13.2997446  19.1922226  17.1879673  12.6285601  19.7052021  16.7378616
  13.3070116  18.3522015  16.7291145  15.5020208  56.9225082  26.2076645
  15.3023615  56.3816795  26.9717789  15.5206699  57.8176880  26.5460987
  75.5389862  37.0173759  36.0474701  75.4376831  37.9679260  35.9982338
  75.5777893  36.7330246  35.1343040  70.4371948  43.2685890  63.0731392
  70.2324905  42.4603920  63.5433960  69.5831909  43.6482124  62.8662834
   9.3466864  16.2586975  20.5183926   8.7508793  15.5097380  20.5359039
   9.8419743  16.1518078  19.7062988  57.1064301  44.1373634  82.7146835
  56.9034042  43.2027817  82.6750259  56.6658401  44.4447670  83.5069046
  75.6894379  49.1312752   2.8761203  74.8143463  48.7503357   2.8031108
  76.1404648  48.5752411   3.5114393  48.6586914  66.1501312  66.4999542
  49.1140900  66.9569092  66.7406769  47.7402916  66.4080048  66.4207230
  64.1905365  19.7235737  69.8435974  64.6558380  20.5343189  69.6376343
  64.8801880  19.0640125  69.9184341  61.6204109  51.3112602  50.9738731
  61.3706551  50.4538155  50.6294289  61.9972458  51.7704010  50.2232590
  57.2820702  20.7602520  42.1528511  56.3860588  21.0710869  42.0233459
  57.7543144  21.0604153  41.3762436  24.1310349  69.7888412   6.5045786
  24.3299561  70.6593552   6.8493428  24.7816238  69.6493378   5.8164606
   2.6617773  26.3716469  66.4856339   2.5128515  26.0078373  65.6128845
   3.6121087  26.3454781  66.5970688  53.5515518  19.9251804  75.0887604
  53.3932190  20.8261757  74.8070374  52.7900238  19.7046070  75.6250992
  22.7221966   0.5065647  40.5592728  23.4178677   1.1395149  40.3813782
  22.8532333   0.2574665  41.4741554  16.7179527  33.4497261   9.7194538
  17.1947670  32.7826233   9.2256413  17.3276138  34.1852760   9.7787209
  49.7112350  51.5699959  82.6914062  49.5992661  50.7326660  83.1414948
  50.6594925  51.6919518  82.6448212  24.0752373  57.7187729  23.6470051
  24.6902103  57.3591423  24.2863064  23.3701859  58.0915527  24.1763172
  13.3037252  48.4308319  30.3336010  13.2909479  47.5512009  29.9563503
  12.8846807  48.3309555  31.1883869  81.9410782  39.3223610  68.3480225
  81.5346146  38.4730911  68.5205460  82.8750992  39.1289902  68.2678223
  26.4124165  48.3778038  66.1276321  25.9015427  48.0134850  66.8504868
  27.2634411  47.9446335  66.1936111  62.9044724  49.0702591  65.7670212
  62.8752441  48.1784630  66.1135406  63.2549095  48.9718590  64.8817291
  32.1352577  53.4781761  15.3145990  32.8806953  54.0247192  15.5632744
  31.4733353  53.6576843  15.9823341  79.4931717  33.1152115  14.7603378
  79.6432343  33.6998634  14.0174398  78.5727234  33.2476082  14.9872084
  72.4943695  41.0984268  11.2842226  72.5422592  40.2459679  10.8514929
  71.8237457  40.9875755  11.9581766  26.9206791  62.2648964  87.9214020
  26.0901184  61.7927132  87.8627167  27.3103199  61.9630852  88.7419586
  73.4146194   9.5927477   6.7393813  74.2042236   9.4300804   6.2233481
  72.7032776   9.2354345   6.2078271  78.3512802  35.8963242  73.2348938
  77.8348694  36.6731720  73.4495087  79.1082458  36.2362328  72.7577209
  33.5064392  62.7242355  24.9070339  33.7001114  62.8727226  23.9814663
  34.1690903  62.0952301  25.1924782   4.9843912  51.8404694  40.9129372
   4.8270092  52.5570755  40.2981682   4.2966518  51.2034569  40.7193909
  17.5974579  61.1645737  26.9391499  17.4147530  61.4381447  27.8380451
  17.2903824  61.8933601  26.3998871  42.9604340  39.5862999  80.4787750
  43.7044106  40.1882401  80.4588547  42.2365723  40.1113892  80.8201523
  49.2870369  48.8678780  83.9456024  49.3059540  48.6553650  84.8787231
  48.3603096  48.8272858  83.7094498  34.5346642   3.7580323  20.8734264
  35.1501160   4.4367948  20.5964184  34.6845551   3.0355301  20.2637081
  31.3853493  54.0365829  37.5507507  31.4150276  53.8720932  36.6082573
  30.7667599  53.3884430  37.8876381  28.2726231  55.7985535  35.3096466
  28.2732449  55.2158852  34.5502205  28.7639389  56.5679054  35.0216522
  37.7032738  50.1199760  18.7798595  37.2267494  49.9912071  17.9597530
  38.6180573  50.2118073  18.5134544  48.6146851  43.3737602   8.9447403
  49.1630249  44.1228905   9.1779022  48.5930214  43.3814163   7.9878163
  39.6622353  17.1950455   0.0295704  39.1883965  17.9624653  -0.2910158
  38.9763527  16.5958958   0.3242159  74.9767532  34.7442932  84.2638092
  75.8552017  34.6956902  83.8867111  74.4106369  34.3425140  83.6047821
  35.8563118  70.0540314  75.2070618  35.4297295  70.8012314  75.6265182
  36.7339592  70.3693542  74.9913483  51.5012283  56.2126427  73.5598145
  50.5701408  56.2897720  73.3515854  51.5344772  55.5808144  74.2780914
   2.4889948  30.2773151  41.4687004   1.9428877  30.0572586  40.7139969
   1.8646073  30.4669857  42.1689835  17.8325386  49.5517769   3.7608747
  17.4791660  48.6735916   3.9028332  17.6177731  49.7519875   2.8498182
  20.1341400  39.4857101  21.6416073  20.3612328  39.7898026  22.5203495
  20.4144993  40.1947403  21.0628948  59.2007408  29.7870083  14.1268473
  59.9574089  30.2427349  14.4956264  59.5617905  28.9782791  13.7637644
  46.3129463  29.6631813  54.7643318  46.9259911  30.3580666  54.5244560
  45.8878326  29.9829979  55.5600891  12.5866566  56.9254074  88.2320938
  12.2061625  57.7941322  88.1025848  13.0174065  56.7262421  87.4008179
  48.0659981  69.1418839  73.8477402  47.4504738  69.8560028  74.0132828
  47.7077599  68.6890411  73.0843124  18.0471382  22.5419483   2.4859905
  18.1636429  23.3496227   2.9863124  18.9216022  22.3369675   2.1550391
   1.5801522  61.1193504  27.8519764   2.1499844  60.5415878  28.3596306
   1.9845901  61.1533432  26.9850826  26.0704269  71.2694168   2.8220122
  25.8505783  72.2003174   2.8585622  26.9522038  71.2459793   2.4503250
  37.3434601  39.8022423   1.2760035  37.0011978  40.1982422   2.0774236
  38.0184021  40.4116135   0.9770793  42.6514778  70.0990829  66.7618256
  42.1521339  70.5706024  66.0950699  42.8428040  69.2505493  66.3623047
  12.4217072   1.1074698  27.5848064  12.5398979   0.2502407  27.9939766
  12.5065327   1.7309220  28.3061543  71.4634933  51.6375847  10.1907244
  71.1302872  50.8927727  10.6911860  70.7613373  52.2868614  10.2314262
  71.1954346   4.1561198  88.3242111  70.6297455   4.5149999  89.0079041
  71.1341705   3.2074647  88.4361572  64.0251541  43.0900803  61.9451141
  64.3214111  42.1968765  61.7700462  63.8030663  43.4420395  61.0831223
  73.3372803  34.3337936  39.7344627  73.4709167  34.8593597  38.9456978
  74.2210617  34.1063576  40.0233116  84.0325851  21.3104591  42.8833237
  83.8248672  20.5774078  43.4627380  83.4737625  22.0243301  43.1904716
  39.5166283  48.8182297  31.2078171  39.3540916  48.8242264  32.1510963
  38.8175964  48.2723694  30.8477898  44.4112854  43.0648079  51.6888466
  45.3361549  43.0025558  51.9275475  44.2590218  42.3092041  51.1212959
  78.3794250  35.9227867  69.8125305  78.2612686  36.3144836  68.9471741
  78.1984940  34.9921036  69.6809006  68.8535843  27.2355862  55.6935196
  68.6464767  28.0605946  56.1324959  69.7704391  27.3260288  55.4338455
  70.9076080  18.1317959  58.4241905  70.2534561  18.6107788  57.9153671
  70.4154663  17.4253006  58.8423958   9.7232571  41.6001434   1.2556119
   9.9892168  41.9155579   2.1193304   9.3602972  42.3714790   0.8202614
  44.0660324  61.9131622  22.6438999  44.9965439  61.7031937  22.7232571
  43.6259193  61.0634689  22.6673851  64.5224609   0.9432714  19.7202759
  64.8732910   0.9461066  20.6108608  63.5782318   0.8361874  19.8351536
  77.6572571  42.0973053  77.6445389  78.5730515  41.8693657  77.8045273
  77.6975403  42.8594551  77.0668411  25.1400242   2.4810877  14.4088316
  24.5586929   3.1906481  14.1353178  25.4366341   2.0851262  13.5893993
  49.5967903  22.4231720  77.8339844  49.2144814  23.1949463  77.4163208
  49.1514130  21.6826725  77.4222412  28.9388847  49.0447006  76.8792953
  29.2574997  48.3070946  76.3590546  28.0190926  48.8397446  77.0472488
  59.6763344  69.9808884  18.9826546  60.2707443  69.3413391  18.5903702
  59.3286552  70.4725876  18.2386265   1.5766526  56.9818192   8.6225195
   1.1241391  57.6454582   8.1018972   2.4973960  57.0712891   8.3766356
  72.3283691  35.9170456  83.5042343  72.8480759  35.8932877  84.3077087
  72.1666870  36.8479652  83.3510056  73.8837662  46.8502808  37.4708366
  73.2414474  46.6233673  36.7984009  74.4197693  47.5340271  37.0690536
  43.0992393  20.8968735  88.0456085  42.2086906  20.8672600  88.3952866
  43.3613625  19.9786205  87.9797745   1.3360127  56.1425552  12.7302284
   1.7822615  56.3401833  13.5536585   0.5576249  55.6506500  12.9917059
  83.5356750  71.8966599  37.3286324  82.8564682  71.4159241  37.8017159
  84.3268051  71.3706055  37.4452934  33.6998787  60.8592873  76.9336853
  34.1856270  61.0221786  77.7422333  34.3749352  60.6624184  76.2842484
  80.7724228   0.0060527  66.4783707  81.0592575   0.8530139  66.8198700
  79.8405075  -0.0355357  66.6929169  46.4326324  38.2065315  32.4453964
  45.9964943  38.3929138  33.2768288  46.6157188  37.2675095  32.4761963
   7.7092562  53.8961945  25.3076725   7.5646429  53.4948807  26.1645679
   8.6612320  53.9149818  25.2095833   6.6457224  64.4016113  54.5929146
   6.2343826  65.1438904  55.0356979   7.2540660  64.8008499  53.9710121
   5.9768949  15.4453564   9.9263563   6.2463226  16.2683506  10.3341818
   5.2180490  15.6799269   9.3921642  81.9662476  67.6852646  86.7923508
  81.4736252  66.8909988  86.9990005  82.8809891  67.4448929  86.9396744
  67.8576126  41.6948929  64.3357162  67.9368820  41.6003113  65.2849274
  67.2215271  42.4003525  64.2176056  53.9682045  46.4742813  66.2080002
  54.4363213  46.8325958  66.9621353  54.4006462  46.8662453  65.4493256
  66.8945770  29.4517651  66.4986725  66.9706345  29.9208164  67.3295975
  67.7822952  29.4532852  66.1406479  49.2688828   8.3481779  46.1290512
  50.2003632   8.2964010  45.9148254  49.0966492   7.5581298  46.6412964
  33.7549858   7.8526278  88.6840897  34.1767921   7.0718026  88.3254471
  34.4698753   8.3499393  89.0813904  62.3930130  48.6537514  49.7926788
  61.7922630  48.0686378  49.3311958  63.0108910  48.9413071  49.1205368
  53.7657928  17.0541840  11.6566114  53.9717293  17.6871376  12.3445005
  52.8611565  17.2507725  11.4132652  29.1298027  14.1277723  85.3874435
  29.0460968  13.1789150  85.4817581  28.3928623  14.3790579  84.8306580
  46.9163017  17.8273373  17.9611340  46.7492218  18.5809364  17.3950901
  46.1296959  17.7547493  18.5017014  36.7313766   7.8796492   6.9741378
  35.8693428   7.4783983   6.8639975  37.1505203   7.7853317   6.1187701
  76.0624847   6.9958091  36.7496109  75.4792557   7.7230005  36.9670143
  76.8694000   7.1844873  37.2286949  42.5869102  37.4123611  40.7079964
  42.2832413  37.7021065  39.8477249  42.6214943  36.4581413  40.6408997
  15.1990404  55.8493004  57.7514572  15.1790066  56.6516228  57.2298126
  14.5018167  55.9657669  58.3968620  82.7843933  25.0883274  76.2838898
  82.2768936  24.2785702  76.3383560  82.8711014  25.3781967  77.1920090
  76.6469955  63.5222168  10.4308949  77.5256042  63.8424263  10.6352119
  76.7946396  62.7442818   9.8930788  62.1652870  16.0397816  27.2927990
  61.4988785  15.8521490  27.9538021  62.6483803  15.2186680  27.1999207
  24.6084328   8.4491682   9.2745924  25.2412682   7.7460008   9.1286240
  23.9334316   8.3054085   8.6113138  53.4021797  20.0115547  20.0186386
  53.1709175  19.5542870  20.8271275  53.9882545  20.7140903  20.3000565
   0.4152760   6.8922081  32.8723373   1.2271235   6.4101853  33.0297852
   0.5340713   7.2855191  32.0077972  48.0347214  12.5145912  14.1463013
  48.5416718  12.5782642  14.9557314  48.0173073  13.4082003  13.8036776
  15.4343872   3.9297154  29.5359535  16.3305092   3.7876141  29.2309895
  15.4884634   3.8418114  30.4875736  44.0949287  45.8212128  45.2272263
  44.2428894  44.9918137  45.6815834  44.9533424  46.2445641  45.2159042
  74.0600433  68.3338165  31.0042000  73.9029388  67.7786179  31.7679424
  73.8900528  69.2229233  31.3153839  43.1277657  20.6072025  64.3346405
  44.0812111  20.6399612  64.4127274  42.8317833  21.4591675  64.6552353
  51.7011757  58.1079483  10.1256285  51.1474380  58.7567596  10.5599642
  52.0854912  57.6029015  10.8421917  30.5543423  36.5941734  76.9840240
  29.8805408  35.9464149  77.1904907  30.1057835  37.2411537  76.4395523
  41.9618568  18.5861988  62.5531311  41.8056717  19.3428249  63.1182480
  42.7563133  18.1844940  62.9048500  32.4001808  41.3020325  26.3338890
  32.5841255  40.6243973  25.6833439  32.9207458  42.0536728  26.0505543
  59.9885712  57.5601845  37.3733597  60.0138817  58.5136261  37.2924881
  60.7061386  57.3514099  37.9714775  38.1297035  66.6266403   5.4161601
  38.0100822  66.0852966   6.1964579  39.0368805  66.4709854   5.1534290
  61.7513809  14.9819088  49.3281937  62.5866127  14.9491482  48.8617821
  61.9393997  15.4839802  50.1211662   9.2439671  20.2503395  83.3410873
   8.5371752  19.6270294  83.1732712   8.9918375  20.6846542  84.1559753
  76.3642197  56.9824753  61.3063202  75.6201935  56.4820137  60.9713554
  76.8335724  56.3663521  61.8687553  80.1137924  45.3947334  40.3860283
  80.0622864  44.5141983  40.0142326  80.5990143  45.2816200  41.2033386
  64.3345337  54.7450180  45.0021629  64.9511337  54.5260963  44.3035164
  64.6158600  54.2118378  45.7456741  40.4066772   5.7694120  87.4834671
  41.3410225   5.8241234  87.2828598  39.9723167   6.0698771  86.6851654
  30.1909714  27.3211517  71.9206848  30.9984055  27.7952766  72.1194000
  29.8399239  27.0765667  72.7769394  71.7113876   7.7951279  34.1309547
  71.7768097   8.3827991  34.8836784  72.0314941   8.3142891  33.3932343
  23.8510895  38.5263481  22.6575241  24.7803326  38.5954437  22.8765354
  23.6994419  39.2338829  22.0309258  71.8885269   1.5982696  24.0510445
  72.1096268   1.5103208  23.1238899  70.9478149   1.7750450  24.0572186
  83.6208496   6.3585610  84.7791138  83.0198822   6.1461334  85.4932175
  83.2305069   5.9481311  84.0074844  62.6782799  58.2358170  38.0008812
  63.4215660  57.7189598  37.6900520  62.9306831  59.1436462  37.8324623
   9.9297285  10.5222282  87.5341644  10.5594645  10.1437597  88.1476974
  10.3939228  11.2604160  87.1394043  66.1104507  57.7996864  32.4324150
  65.9468460  58.7161064  32.6552048  66.5535049  57.8347130  31.5846481
  51.7957764   6.4697018  82.3268890  52.4972343   7.1197314  82.3674774
  52.1651497   5.7503977  81.8146439  28.4375267  50.2444038  42.2902908
  28.9288921  50.9834785  42.6488380  28.9946918  49.4837532  42.4552498
  61.4244118  24.5946465  12.2809887  61.9285698  25.0919094  11.6369514
  60.8110275  24.0783043  11.7581301   6.3723240  54.9134140  77.5031738
   6.1780567  54.9578743  78.4393997   5.8572817  55.6222305  77.1177597
  54.1035500   3.4396377  26.9521999  53.2902489   3.4928856  26.4502640
  54.7086716   2.9695127  26.3785801  31.8190346  62.0198784  59.9155235
  31.0920715  61.7136803  60.4577408  32.3563957  62.5442352  60.5092659
  55.1580009  11.9949608  27.5523109  55.9339523  11.4395542  27.6275177
  54.4413872  11.3835554  27.3823738  69.2847214  26.9321899  59.4133720
  69.4543228  27.4965973  58.6591110  69.9934692  26.2890816  59.3954582
   2.4287074  67.2971191  35.5209427   2.6438882  67.4199600  34.5963669
   2.3241103  68.1851501  35.8625488  79.7942657  38.7672081  52.2633896
  80.1202469  38.7908363  53.1630592  79.7807922  37.8370514  52.0378723
   0.9884710  43.8458099  76.3808670   0.5039322  44.4651070  76.9266891
   1.8776218  43.8591003  76.7350769  23.9870777  67.6651535  68.2633591
  24.3145351  66.9123154  67.7711792  23.8545990  68.3443909  67.6020584
  30.4699745  62.6480408  41.2463531  30.1020336  63.0211067  42.0473976
  30.8252716  61.8016090  41.5175476   7.3082433  12.3626909   4.8747830
   7.6428595  12.9629459   5.5410843   7.0696359  12.9286795   4.1406469
   1.5947852  32.7573891  82.6313858   1.9237087  33.6166382  82.3673172
   1.7246213  32.7322197  83.5793991  83.9485397   4.0452380  27.9836025
  84.2572327   4.4913445  28.7722301  84.1522675   4.6506248  27.2706966
  29.7036629   1.5994799  18.3089485  30.3100243   2.2390363  18.6824799
  28.9092503   2.1011066  18.1258888  13.3257895   5.4537129  73.1753845
  12.7856636   4.6686215  73.2655411  13.5139093   5.7196627  74.0754547
   5.9919319  61.6644745   5.2336736   5.2347336  61.7764244   5.8084340
   6.7286253  62.0095062   5.7381210  10.9722204  55.4311333  63.8838806
  10.0524282  55.4484406  63.6194687  10.9584351  55.0850906  64.7762375
  35.0681114  60.2078514  74.5173035  35.2990417  59.3411140  74.1831360
  35.8566513  60.7338448  74.3840103  10.1634827  39.7224236  23.2429924
   9.9322119  40.0341148  24.1179752   9.3225603  39.5985146  22.8028469
  46.9689636   3.2464130   8.9887209  46.0918961   3.5282590   8.7288170
  47.2957611   3.9578197   9.5394793  67.0131226  11.2546186  76.3613510
  66.3237610  11.8832674  76.5754013  67.0316391  10.6560001  77.1080399
  83.3578262  33.7225609  17.7912750  83.9400558  33.0231018  18.0879097
  83.8241119  34.1285629  17.0605373  27.6254196   7.5640059   4.8254704
  26.6997414   7.4972291   4.5911756  27.6459751   8.1983957   5.5419612
  77.2096024  12.2678432   3.4722266  77.1794357  12.8521662   4.2297816
  76.2909241  12.1121569   3.2530956  80.7912140  45.0735130  78.0042801
  80.2371140  44.3313789  78.2460175  80.6753769  45.1607323  77.0581284
  28.9800339  57.5775490  44.7568436  28.5307140  57.6256371  43.9130249
  29.3566704  58.4492035  44.8776588   5.7996469   4.7347531  88.5314789
   5.5834064   5.6672077  88.5311279   4.9607677   4.2943964  88.6678543
  81.1316147   0.3489642  49.6766205  80.4375534   0.0413846  50.2596321
  81.0863953   1.3034260  49.7330933  32.3555374  65.8121338  61.7124405
  32.1122169  66.7101974  61.9371986  31.8827877  65.2705841  62.3444710
  16.2176762  56.7307663   9.3383160  15.5246019  56.1002121   9.5339842
  15.9457083  57.1380806   8.5159063  66.6557312  43.4370842  71.7576599
  67.2103500  44.1622314  71.4699097  66.7178345  43.4524078  72.7127151
  70.1289978  43.7539864  44.7869644  70.4386368  43.1822014  44.0845261
  70.1870575  44.6364098  44.4206467  84.0820847  47.9365578  58.4386482
  83.2022858  47.8358650  58.8020210  83.9375992  48.2328453  57.5399971
  42.5577850  66.8249130  26.5929508  42.5517998  65.9907074  27.0623035
  42.3502579  67.4775162  27.2617435  80.5509415  41.4186134  13.8429022
  80.8212433  40.6031227  13.4208336  80.2528229  41.1509972  14.7122335
  42.8260956   2.1312325  39.1226807  43.1198120   2.6656537  38.3848763
  42.6657372   2.7608309  39.8256187  34.0590172  71.1683044  79.4650345
  33.9811287  70.4965591  80.1424789  33.7968254  71.9793015  79.9006577
  43.8468590  55.3830261  23.6688747  44.2345123  55.9339981  22.9888859
  44.3186722  55.6202507  24.4672184  14.6234856   0.3031242  13.5600042
  13.8467426   0.8535812  13.6595049  15.2467813   0.6508653  14.1978197
  81.4527054   5.2933016  52.1136055  81.2558441   6.0830326  51.6098175
  81.5373459   5.5999999  53.0163803  61.5813751  38.9409218  34.4843674
  61.8136978  38.0129623  34.4504662  61.1329613  39.1060143  33.6549721
  17.0000229  67.2181473  67.7893372  17.2144966  66.4285049  67.2926483
  17.0544395  67.9266510  67.1480179  73.8194122  71.1321487  49.2866669
  73.9739304  71.0751801  50.2295914  72.9928665  71.6084137  49.2077484
  80.3606415  40.9688759  72.1478424  81.1671829  40.4553909  72.1024933
  79.8307114  40.6473923  71.4184189  57.6554489  69.9914780   0.8124375
  58.1245308  69.1939316   1.0576290  58.1327896  70.6949310   1.2523584
  62.4865952  12.1395502  55.8953705  62.9116211  11.2902832  55.7756500
  61.5807419  11.9247837  56.1179276   0.9722870  25.4606285  14.8864555
   1.4616984  25.9367161  15.5573130   1.5105258  24.6919651  14.6975498
  11.4068756  33.3492317  66.6325836  11.0264568  33.1348343  65.7807999
  11.2485151  34.2875252  66.7362976   0.4319576  62.7444725  72.5804291
   0.0204869  63.5416794  72.2466888   0.6497061  62.9499016  73.4896164
  54.8433876  35.7172623  74.3520355  54.9266701  35.6001930  75.2983932
  55.6608391  36.1409111  74.0902481  34.7299652  42.8875008  73.2418594
  33.7748756  42.9100037  73.1824265  34.9490509  43.5960770  73.8469620
   7.6914439  49.5585976  25.7968826   6.7963281  49.4580727  26.1207561
   7.5918293  49.6871605  24.8536015  73.5813141  57.0098572  32.8315506
  73.0752640  57.2467003  33.6087570  73.3583527  57.6812744  32.1867867
  83.9843140  33.4311256  14.0531387  83.5229568  34.1674728  13.6516771
  83.3344116  32.7290268  14.0833158  83.5935287  29.9587345  75.8211441
  82.9440842  29.5241413  75.2683563  84.0883331  29.2419167  76.2181091
   3.2394004  46.9503212  74.0565186   2.7486229  47.5065269  73.4515305
   3.5900085  46.2495422  73.5067749  57.1385765  31.6648502  39.3712997
  56.3224487  31.4120693  38.9397087  57.7514038  30.9619808  39.1553192
  43.2472992  25.7445107  10.2596416  43.0607300  26.0116234  11.1596832
  43.0976830  26.5340614   9.7395849  83.6710663  37.2528191  20.0488071
  83.2618561  36.4070740  20.2318039  83.6237869  37.3407898  19.0968323
  54.2785110  41.3302460   2.3786931  55.0757828  40.8131332   2.2638931
  54.3392754  42.0151215   1.7127432  32.9604149  22.5575638  15.3718214
  32.3001747  21.8869743  15.1968050  33.0838661  22.9974251  14.5306835
  64.9936218  57.0727348  74.8105774  64.7625046  57.9917183  74.9458008
  65.9444199  57.0465775  74.9179611  22.7326508  54.2356987   3.5763357
  23.5367870  54.4154243   4.0634665  22.7508183  54.8554306   2.8470654
  85.0755692  24.2313824  13.2142916  84.3286972  24.2600002  13.8122845
  84.9554214  24.9910641  12.6444864   9.2173100  54.4312630  86.4901352
  10.0268936  54.9415779  86.4704819   8.8029995  54.6067505  85.6452789
   1.3463448  38.8058662  25.4855728   1.2202964  39.5757980  24.9310036
   1.0189773  38.0759239  24.9599762  43.5799332  61.7016563  35.0377693
  44.1864853  61.2970581  35.6579552  44.1154289  62.3314705  34.5552635
  46.2350044  29.5540848   0.6764120  45.6697655  30.2510719   1.0094986
  46.7496719  29.9723816  -0.0137870  28.4406681  42.4053993  63.8307266
  27.5418224  42.1128235  63.6800270  28.7366123  41.8924408  64.5827408
  20.4035721  29.1120625  87.9751129  20.1764317  29.9580746  88.3609924
  19.5602074  28.7053833  87.7761688  26.1403942  44.6253395  18.2206459
  25.4701824  45.2487793  17.9406929  26.9187298  44.8694344  17.7198009
  32.5250053  45.1730270  12.7151022  31.9228020  44.4570503  12.9174843
  31.9747295  45.9562454  12.7157326  48.2032433  37.1165123  78.9606934
  47.9340668  36.2800980  78.5809708  47.5781136  37.2701912  79.6690903
  46.5261841   1.0743263  53.9596329  45.8231697   0.4306610  53.8718872
  47.3270340   0.5793902  53.7866974  49.3038445   3.0189550  27.2466602
  49.2765846   3.0882955  28.2009563  48.9392281   2.1540775  27.0588474
  32.2722473  56.9571877   9.7361994  32.3114929  56.6576424  10.6444759
  32.3097153  56.1537704   9.2172070  42.1416435  55.9559555  37.3549538
  42.3665924  55.3250237  36.6711731  42.0737915  56.7929764  36.8955841
  74.4868011  70.6961517  58.4513664  73.8507614  71.1867065  57.9307442
  75.0874023  71.3623123  58.7856560  80.5310516  58.7799225  52.5677338
  80.8657761  57.9527054  52.9140091  80.9063568  58.8412209  51.6893082
  67.6684647  52.2658119  46.5888863  66.7273712  52.3808136  46.7206078
  67.9449310  53.0594521  46.1307030  51.1650238   8.2879753   2.1076119
  52.0869713   8.4219894   1.8878697  50.6860275   8.6507988   1.3625263
  50.5329552  44.4998856   1.9623963  50.1650887  43.6180801   2.0200484
  51.3570747  44.4477196   2.4464836  68.2396317  58.7281876  69.8815079
  68.5197678  57.8993149  70.2697449  68.8447723  59.3773155  70.2402115
  40.9121475  67.7573318  73.2164917  40.0323448  67.4623489  73.4513626
  40.7966461  68.6708755  72.9550781  39.6190796  43.3174095  58.0927391
  38.8423424  43.7953758  57.8021202  39.6948357  43.5268974  59.0236588
  72.7804871  32.8134460  14.5887957  72.6657410  32.1743126  13.8855362
  73.1648865  32.3119736  15.3078194   5.6561394  71.6597748  14.2319555
   5.6820760  71.1255798  15.0258036   5.6131940  71.0246124  13.5171461
  49.6609840  66.8320847  39.4458542  50.4383659  67.1119843  39.9291420
  49.4084282  67.5998611  38.9330559  54.0413589  20.4785213  81.3919830
  54.4751778  21.2304554  80.9887161  54.4437065  19.7172565  80.9738693
  53.9124680  55.7256355   4.8165674  54.5387726  55.3733749   5.4489365
  53.1325836  55.1809540   4.9230165  26.9450283  15.1589546  69.8812790
  27.6063194  15.6799355  70.3367996  27.3102398  14.2744350  69.8594208
  50.3290977  55.1578484  68.4511032  50.7965279  55.2754288  69.2780991
  49.4889297  54.7747345  68.7032318  85.7659302  71.4223480  22.9442978
  85.7308655  70.8939819  22.1469078  86.5271988  71.9896622  22.8224239
  69.1150970  68.9106750  27.9336662  69.0315552  67.9650421  28.0562401
  68.3137665  69.1645660  27.4757977  48.1480026   1.6669458  34.9842224
  48.8940315   1.1518763  34.6770172  47.5584526   1.7072651  34.2312012
  32.4542656   2.9696493  63.8644753  32.6900253   2.1164908  64.2288513
  33.2667732   3.2987037  63.4800415  43.6642914   8.7214060  78.5268402
  43.0077477   8.0445156  78.3625183  43.3796349   9.1388311  79.3398361
  15.2424269  47.4232292  11.4575253  15.0132322  48.1482162  10.8760662
  15.4750299  46.7068138  10.8668671  64.4069672  27.3240166  19.0037251
  63.9181290  26.6471767  18.5355854  63.8076897  27.6223583  19.6878929
  83.7940979   3.6145966  20.5477333  83.6708603   4.2585635  19.8503456
  83.0766220   3.7828217  21.1586018  52.7823753  30.0999374   0.3274250
  52.4028778  29.4243813   0.8894222  52.6694832  29.7632465  -0.5614662
   3.5247633  40.5453987  31.6019650   4.3807492  40.7764435  31.2412167
   3.4589057  41.0565414  32.4085808  28.1914101  31.6429901   1.3686370
  27.7527981  30.9291649   1.8315670  29.1243896  31.4479485   1.4566189
  80.4668198  67.9376373  17.6950016  81.2839584  67.8080292  17.2136307
  79.8225555  67.4140015  17.2185993  46.9369164   7.1614590  23.2598667
  47.7673759   7.1530666  23.7357845  46.4212646   7.8436236  23.6899681
  68.8010559  10.8416271  88.4554672  67.9799652  11.2629919  88.2015228
  69.4589157  11.5325603  88.3776245  50.0236320  59.8285637  11.0180254
  49.1839867  59.5742302  11.4008303  50.1951523  60.7002106  11.3744602
   0.2017626  13.3499622  55.9160957   1.0260240  12.9290657  55.6718178
   0.0961427  13.1482325  56.8458138  24.9772034  39.6826057  46.3865929
  24.6791000  39.9166145  45.5076103  25.7957287  40.1660538  46.4985237
  36.6606445   4.9817519  78.3552628  36.1639557   5.4314847  79.0388336
  36.6950264   4.0700111  78.6447067  42.2204247  37.3447838  32.0023079
  41.5425529  36.6747932  31.9138260  42.6133118  37.1763496  32.8587570
  61.7699356  28.1231804  81.6524124  62.1582031  27.7450867  82.4414215
  61.8432770  29.0691261  81.7790604  13.7703819  54.8967476   8.8112621
  13.0705128  55.3866119   8.3794651  13.3157272  54.2138710   9.3044157
  38.8552780  22.6779060   3.5113034  38.3714409  22.4305210   4.2992964
  38.2526627  23.2429199   3.0277283  52.3501740   8.8449297  32.4878273
  52.3928337   7.9456401  32.8129272  52.0545540   8.7582188  31.5815582
  77.6041946   9.9352674  43.9707680  76.9643555   9.2985497  44.2892380
  77.7409058   9.6990681  43.0532990   3.1963203  57.3401299  78.2269440
   2.6781893  57.4203072  79.0277863   2.5519226  57.1641312  77.5413742
  71.4665222   0.7217880  49.0633736  70.8424911  -0.0040329  49.0620079
  71.1136475   1.3422374  48.4255981  47.2295189  34.4130936  78.6687469
  47.9869652  33.8430138  78.8011169  46.5333557  33.8231506  78.3796844
  46.8226776  57.8185043  25.1632748  46.1191177  57.2215614  25.4180298
  46.8067169  58.5056725  25.8294411   2.0981295  13.6972895  11.8998823
   1.9022533  13.0578175  12.5846739   1.2998703  13.7362041  11.3731003
   9.0539532  58.0422401  70.6071167   9.3234882  58.9051094  70.9218216
   8.1244106  57.9861412  70.8285599   6.7387743  18.7602901  23.7182560
   6.1950173  17.9972477  23.5224876   7.4481735  18.7197666  23.0768967
  33.5717583   1.4591365  43.3523941  33.6696434   2.4113171  43.3537712
  33.5364113   1.2206583  44.2787361   5.9594493  53.0478554  64.2459717
   5.4542260  53.8008881  63.9394989   5.5861220  52.3018761  63.7765312
  66.4924240  30.5260296  18.0487480  66.1295013  30.3816147  17.1748695
  66.8627472  29.6790791  18.2972641  53.5783691  21.5908318  27.0824776
  53.0155449  22.3599377  26.9933834  54.2055855  21.8307495  27.7645836
  56.5327759  53.4251976  26.9883480  57.0863876  52.8632278  26.4461899
  56.7185402  54.3125267  26.6811485  69.7190552  60.0930214  16.5476608
  69.5307312  60.6776543  17.2818089  68.8575363  59.8329964  16.2214565
  78.4169617  35.8008308  76.1395035  78.4187088  35.6605263  75.1926422
  78.0201111  36.6644707  76.2529297   0.2253451  60.6256332  78.6828995
   0.7028402  60.3111420  79.4505768   0.0671926  59.8393059  78.1604996
  63.0979118  45.4212112  78.4890213  63.9539986  45.0526466  78.2710571
  62.7850418  44.8854523  79.2179337  53.5640869  65.7908783  53.7240295
  54.1118240  65.0070419  53.6814232  54.1826363  66.5080490  53.8629379
  36.5743446  41.1334915  76.0892487  36.0410538  41.8325500  76.4675980
  36.0197411  40.7502174  75.4097290  50.2780113  14.6297951  20.9941921
  50.2527466  14.1081820  21.7963867  50.0750008  15.5201778  21.2809620
  46.6514626  43.2460861  38.3954048  46.7127953  42.3048363  38.2325592
  46.8948059  43.3462906  39.3157158  58.7260399  50.4373322  36.5097656
  59.1020699  49.9582329  37.2482071  58.5301247  51.3054237  36.8622818
  68.0842133   8.0099678  14.6271229  67.6945038   8.4716797  15.3695402
  68.0833893   7.0896420  14.8902426  47.8628006  22.8622952  64.8259125
  48.0621719  23.7381382  65.1566467  48.5916862  22.3204670  65.1281967
  62.8473320  69.6397705  11.0360117  62.2217064  69.7026825  10.3143005
  63.2246323  68.7642517  10.9502859  74.3255692  27.7086945   7.3239112
  73.4153442  27.9722939   7.4589682  74.8392792  28.3931389   7.7527103
  72.3582535  49.1142044  27.1008186  71.7533646  49.8462753  27.2208614
  73.1130524  49.4978981  26.6543961  63.9529572  65.9779663  19.9986629
  63.5514793  65.2333603  19.5507717  63.5943108  65.9457626  20.8855476
  81.0497208  13.3946695  78.3231201  80.1211014  13.4708138  78.5424423
  81.1447296  12.5024004  77.9898682  82.0779343  13.5103722  80.9806366
  81.5480881  13.6553030  80.1967468  82.8302231  13.0057678  80.6713257
  63.7752876  58.1999893  81.6535263  64.2257996  57.4495316  81.2661133
  63.8173218  58.0436897  82.5969467  32.5567131  52.1869850  12.8209877
  32.6893005  52.5260048  13.7062654  32.9846344  51.3307800  12.8258162
  65.3455582  24.7548676   0.4027131  65.4932785  23.9209614  -0.0433942
  65.8552933  25.3895035  -0.1009131  77.8589249  27.5677891  13.1220837
  78.1487579  28.1745453  13.8033142  78.6558838  27.3539600  12.6369305
  84.2255936  63.3959618  36.5468521  84.5979996  63.6081161  37.4027367
  83.3092728  63.1878510  36.7292747  49.9488525  16.9787750  80.1974106
  49.0449181  17.2911396  80.1578674  50.2094383  17.1142426  81.1084442
  25.7736225  24.1477585  85.6141205  26.2582855  24.8904762  85.9742661
  24.9364452  24.5198593  85.3367920  17.5226574  56.7818680  36.9025497
  17.1505527  56.1539040  37.5217705  16.8665943  56.8518829  36.2090721
  26.7652512   8.1943836  73.1517715  27.3680439   8.9265852  73.0223236
  26.6459846   7.8247938  72.2768936  30.2198715   7.5875998   6.1785164
  29.4283810   7.8980942   6.6182508  29.9440556   6.7928429   5.7218776
  76.2941513  64.9281769  42.5247002  77.0429688  64.8307648  41.9364662
  75.7417908  65.5860214  42.1023560   7.9266028  68.5940170  77.3191910
   8.6934910  68.6362991  77.8904343   7.6477909  67.6792221  77.3598709
  20.4136810  30.4236946   8.8573008  21.0585136  31.1310558   8.8494110
  20.3686047  30.1509018   9.7736979   7.0262375  34.3165321  79.2829208
   6.9978895  35.2587738  79.4490814   7.9374552  34.0721054  79.4446869
   2.2625535  50.6846161  32.4604263   2.9536514  51.2120209  32.0598526
   1.7050821  51.3207550  32.9085197  14.5145750  44.9403038  69.7243958
  15.3856392  44.8349800  70.1069946  14.5369158  44.4094696  68.9281845
  82.5020065  66.7715912  39.6810875  81.7152405  67.3035507  39.5617485
  82.9549484  67.1764603  40.4207916  32.1649628  30.6062012  82.1230469
  32.0297432  29.6845798  82.3434067  32.9892502  30.8365097  82.5516891
  45.8113899  37.6910324  83.8016510  46.2439194  37.9433479  82.9858780
  46.3489189  36.9784050  84.1472778  70.1822433  19.8684807  27.9237366
  70.4927139  20.6621113  27.4878597  70.2242432  20.0758781  28.8572540
  82.0397491  13.1826420  50.6889877  82.6294937  12.7002802  50.1095352
  82.3585739  12.9888182  51.5704727  13.8032141  40.2909546  86.9159012
  13.7476559  40.3275223  87.8707886  14.7156887  40.5043297  86.7207260
  60.7082443  45.6783447  84.5928345  61.5914841  45.7269783  84.9585648
  60.6107712  44.7652130  84.3227997  67.4033203  51.1607628  57.3572998
  67.5137329  50.4374924  57.9744873  67.1746368  50.7369308  56.5300751
  59.7088547  20.0192108  84.1042709  60.0315514  20.5937576  84.7985229
  58.7869377  19.8778896  84.3195114   3.4968598  55.5267677  31.5388298
   3.9953687  55.3568382  32.3381081   2.5832870  55.3999557  31.7948284
  46.5644760  11.3524981  47.7959709  47.5153885  11.3199749  47.9005699
  46.3825111  12.2565699  47.5395050  61.9438210  43.7708588  39.0148468
  61.4299355  43.0440407  39.3668289  62.7355080  43.3589363  38.6687546
   7.9541860  47.5258331  23.6769676   8.8380203  47.8690071  23.8084946
   8.0807171  46.5886650  23.5288620  80.0340805  11.0796070  14.7941732
  79.2936249  10.7813749  15.3223972  80.5202560  11.6666927  15.3731308
  78.1593399  18.9099236  82.1802063  78.7248917  19.4238071  81.6037445
  77.2742920  19.0708084  81.8530350  64.5089417  38.7867508  55.2751236
  63.9190063  39.4038734  54.8422623  64.0136871  37.9685173  55.3131981
  75.9632416   5.6489415  26.3201771  76.0087891   6.3138647  25.6331310
  75.2426224   5.0780821  26.0536156  53.7776146  52.7330399  11.2047949
  54.4188347  52.8287048  11.9090090  53.5338898  51.8076515  11.2268715
   1.7000811  61.1094894  60.3437004   2.2785003  61.5066681  60.9947891
   0.8857240  60.9411469  60.8177414  11.7527618   2.8685234  73.6309280
  12.4510822   2.2155755  73.5836029  11.4821644   2.8636947  74.5490723
  72.7043076   6.1308923   2.8949277  72.4686203   5.2032113   2.9045560
  72.5773239   6.4196658   3.7986519  58.1051559  42.5984993  55.8808327
  57.1834793  42.6408539  56.1356926  58.4088440  43.5049744  55.9288902
  73.7292709  13.8838654  40.9845161  73.4750824  14.1005087  41.8815575
  74.1026993  13.0047350  41.0470734  32.0501709  47.4764252  65.3217087
  31.9649391  46.6495857  64.8470383  31.1971054  47.6032486  65.7369537
  48.2076035  34.3636398  60.2047272  48.5155907  33.5567055  60.6173172
  48.9668694  34.9462662  60.2217789  84.8946991  18.3235359  33.4091072
  84.4021225  19.1438770  33.4343491  85.7478638  18.5674019  33.0501289
  78.2452774  55.3856812  77.8547363  77.8223038  54.5613632  77.6142807
  78.8426437  55.5688210  77.1295853  14.4942541   9.8461056  66.5994568
  14.0290346  10.6206522  66.2834167  14.2779045   9.8001661  67.5307541
  18.9708118  67.1536865  81.7226105  18.7101536  66.9527664  80.8237686
  18.2927876  66.7501297  82.2645111  41.0872498  49.6148376  48.6854782
  40.5832367  48.8559418  48.9792175  41.4014664  49.3712311  47.8147583
  30.6425304  42.1013336  58.5765724  31.4501228  41.8754654  59.0380974
  30.4022045  42.9613724  58.9212532  30.0602818   7.9738016  74.1655350
  29.3043880   8.4123526  74.5560837  30.2506676   8.4816027  73.3767853
  75.9231949  68.1105118  89.3124466  75.4609528  68.3454895  88.5078583
  76.5432892  67.4328461  89.0432281  66.5675278  49.3933258   0.7537664
  67.3930435  49.4639168   0.2744209  66.6367493  48.5655212   1.2293540
  50.3763771   9.2442789  76.2020721  49.6774750   9.4079800  75.5688553
  50.3335838   9.9876709  76.8035507  25.8949127  42.9601936  42.4817009
  25.2804546  43.0957413  41.7603836  26.6466370  42.5266800  42.0777130
  11.1957893  53.0864716  78.2830200  12.1476431  52.9937325  78.3230972
  10.8698339  52.1883011  78.2258072  57.3081093  56.0742836  76.1402664
  57.3366699  57.0283470  76.2122498  57.7847443  55.8806114  75.3330917
  33.2755661  47.7006378  42.1219902  32.8205223  47.1078720  42.7201500
  34.0855026  47.2414322  41.8997993  75.8196640  26.8967514  28.1820660
  76.3687439  26.1129074  28.1637707  76.3871231  27.5783272  28.5421791
  14.1595621  63.0570183  28.1594448  13.8782463  62.4811630  27.4484692
  13.3613214  63.2280197  28.6592464  50.0490189  20.0540257  71.5377579
  49.1313477  20.1912155  71.3026123  50.0578957  20.0821285  72.4944992
  49.6950531  31.7616749  77.1025925  49.0713806  31.3666210  77.7118530
  50.3801308  31.1011944  76.9993210   2.6206849  11.5078678  87.2599182
   1.9640547  10.8121958  87.2266159   3.0544729  11.4687815  86.4075546
  54.5337639   4.3531117  14.8586798  54.8760529   4.3373356  13.9649115
  54.1041412   5.2050133  14.9356184  37.3178215  14.8902912  86.9891205
  37.1370087  15.2961054  87.8369751  37.9830055  14.2282534  87.1774521
  37.1455345   3.1597290  57.2124786  37.0617180   2.7968540  58.0942535
  36.2586403   3.4363954  56.9820328  19.5661526  67.1980362  29.4933643
  20.0992088  66.4485168  29.7585030  18.6960011  66.8303833  29.3387756
  17.6785107  54.8262787  71.5633850  17.3264656  55.3703690  72.2678452
  17.0091877  54.1571312  71.4202805  42.3995857  21.8833046   2.4831569
  41.6840744  22.0436363   3.0984349  42.6984329  22.7568378   2.2304473
  19.3990498  41.2806015  79.0476151  18.6561565  41.3490143  78.4478912
  19.1988640  41.9008713  79.7486267  19.9650345  31.8438377  25.3836555
  19.1070499  31.9638195  24.9765949  19.8214836  32.0443687  26.3085423
  36.4398232  51.4072723  13.2591047  35.7452469  51.1562881  12.6501694
  37.0802765  50.6986046  13.1971674  70.5070114  24.6696644  51.8137665
  70.7350388  24.3537655  50.9394417  70.1420670  23.9040222  52.2574348
  45.4635391  23.0516682  86.6270218  45.5473976  23.9889927  86.8020096
  45.3007965  22.6613274  87.4857330  62.5469704  26.1571217  14.1441278
  63.3684959  25.6779804  14.2525301  61.9497681  25.5221748  13.7486248
  59.7131958  33.9844131  80.7890930  59.8958092  33.0836792  80.5215836
  59.1232567  34.3198204  80.1140366  74.9161224  32.1000175  64.6495819
  74.0531082  32.3429222  64.9848938  75.2596512  32.9067421  64.2656403
  66.1910172  28.0974483  58.3406525  66.0694885  28.8836231  58.8729935
  65.4042282  28.0520782  57.7973785  59.1097107  17.3748989  35.2390327
  58.3851738  17.8464699  35.6500053  59.4878426  16.8529568  35.9467239
  75.5115433  41.5985603  51.8310204  75.7540436  41.8607521  50.9429436
  76.3060226  41.2026939  52.1892395  38.7829704   7.0634151  48.3340721
  38.3361168   6.8132262  49.1427498  38.2463951   6.6856613  47.6372032
  40.3969345  64.7859802  16.8697300  40.0620804  64.2308350  17.5739441
  41.2978973  64.4901505  16.7393761  49.2138939  35.9031906  70.9869385
  50.1102371  35.6427002  71.1989441  49.1461411  35.7796288  70.0401688
  41.7305984  38.8057823  74.9777145  42.6419601  38.7005997  75.2508316
  41.6979485  39.6771164  74.5828171  61.8028412  14.4634142  17.7259178
  61.4217339  14.1010056  16.9261379  61.0649872  14.8709030  18.1795235
  58.0695953  53.8476601  49.6610031  57.7167892  53.7356148  50.5437279
  58.0663910  54.7944412  49.5201797  59.9761238  30.9830284  42.6541672
  59.6811562  31.8540974  42.3887100  59.6829147  30.4057102  41.9492111
  64.9957733  51.3774185  21.3398304  65.2700424  52.0737076  20.7430172
  64.6690369  51.8388710  22.1121864  63.6309166   5.0121064  28.7742252
  63.7609291   4.2550464  29.3453560  62.8576584   5.4502678  29.1296368
  26.8044415  69.9235001  14.8413038  26.7686691  69.9122467  13.8848381
  25.9186020  69.6877747  15.1169033  68.3293152   3.9571517  86.3325958
  69.0375900   4.5855837  86.1924286  68.0667038   3.6917284  85.4512253
  12.4723082   0.3791481  58.1724625  12.9645681   1.0870512  58.5881386
  11.5545187   0.6026048  58.3272591  63.0398254  68.7572098  39.7707520
  62.1483612  68.4240189  39.6682358  62.9994774  69.6548004  39.4406929
   5.5183754  26.1318550  73.0803299   6.3749256  25.8079739  72.8016663
   5.7103376  26.9439964  73.5491714  69.2725906  21.4003124  25.1181870
  69.9453659  21.7103424  24.5119858  69.5735168  21.6910954  25.9790707
  24.4268684  46.4914093  78.4604492  23.6743679  46.3970718  77.8764343
  24.1916828  45.9849091  79.2378616  68.0432739   1.6594803  44.2230759
  68.7277603   1.1669245  44.6759567  67.5530396   0.9965743  43.7368011
  65.2305908  66.3033905  63.8497200  66.1486816  66.3290482  64.1193085
  65.0644913  67.1715317  63.4823265   7.1466889  52.1193275  77.5164261
   6.6779761  52.9512939  77.5825577   7.0751200  51.8768234  76.5932236
  13.5015335  44.4906464  42.8707962  12.7096109  44.2537766  42.3881149
  14.2089100  44.0467377  42.4030380  80.7001648  35.7397690  71.1966476
  81.0648041  34.8610268  71.0913696  79.9133453  35.7394791  70.6515274
  48.9195709  59.7847366  77.0119705  48.9327393  60.7352867  77.1238174
  48.1808891  59.6228333  76.4251404  80.6933441  26.2364864  39.0783882
  80.9529343  26.7712193  39.8286591  80.3037415  26.8587055  38.4641495
  68.1194611   7.3870220  65.6965256  67.4392624   7.2039046  65.0484314
  68.0956421   6.6346817  66.2878418  84.9073029   5.3535075  55.4923706
  85.0729523   5.8347034  56.3030739  85.0198364   6.0048103  54.8000031
   7.2907920  14.3189287  21.7332401   7.5262451  13.5167761  21.2670364
   7.4713287  14.1233521  22.6526909  17.9590721  13.5019665  80.8776321
  17.3008614  13.9433975  81.4144058  18.7570095  14.0144701  81.0075073
  22.6607780   0.6403757  11.6346121  22.7634144  -0.0466076  12.2932100
  23.4851189   1.1259648  11.6645594  83.7991638  21.8964386  83.0878296
  84.5426712  21.4435368  82.6899490  83.2274857  22.1115875  82.3508530
  60.6786919  31.8731422  63.4957809  60.6700287  32.7675972  63.8365250
  60.0837517  31.8965836  62.7462959  37.0574799  13.0007849  16.4454556
  37.2339058  13.6118336  15.7301054  36.9243965  12.1574202  16.0127220
  51.3504562   9.5945272  80.3819427  51.0546188   8.7725000  79.9908142
  52.0227203   9.3322496  81.0108337  26.3636398  70.5712585  55.4574471
  26.3791466  69.6201019  55.3511848  26.4654522  70.9131851  54.5692139
  14.8488216  52.3308029  47.2309418  14.2586164  53.0269203  46.9423103
  15.7133713  52.6091995  46.9288139  75.1129074  60.9718933  69.1232758
  75.9491501  61.2248421  69.5143585  75.1517029  61.3166084  68.2311401
  66.1912689  17.9373264  55.8062248  65.5708466  17.6651306  56.4824028
  66.3553238  18.8622761  55.9900398   3.2685483  33.1047516  68.4302063
   3.3114834  32.2844238  68.9215775   2.3413720  33.2070808  68.2154846
   4.0708933  55.5107498  27.5431271   4.3082433  55.1615906  26.6840649
   4.9035525  55.5870056  28.0090618  65.9259338  49.5126457  87.2311172
  66.0198212  49.2252350  88.1393051  66.5651398  48.9897652  86.7471313
  20.4273815  69.7717133  31.4471798  20.8193207  68.9480286  31.1570797
  19.5636864  69.7843246  31.0347462  78.5468521  11.9181204  64.0103607
  77.9746780  11.6924105  64.7437820  78.0268936  11.7205925  63.2313499
  85.6372604  38.7046776  50.8216286  86.3632507  38.8149338  51.4356346
  86.0222015  38.2446251  50.0757027   2.1920063  11.9384975  77.5557861
   1.3917357  11.4240322  77.6612549   2.1662881  12.5712814  78.2735291
  60.0314445  14.8436460  57.1776619  60.6662674  14.7018309  57.8798866
  59.5248909  14.0321150  57.1452293  86.1556015  41.5860100  61.6912613
  85.8021317  42.3834267  61.2970276  85.5082474  41.3378410  62.3512421
  39.1961250  34.8546257  82.4883423  38.8980293  35.7335968  82.2542877
  40.0153275  34.7431679  82.0059357  56.8896141   8.5487032  81.2664642
  56.1745644   8.4672298  80.6353531  57.5120583   9.1432409  80.8477478
  54.4679680  31.8493595   5.1644034  53.9095192  32.1648064   5.8749375
  54.8748055  32.6401863   4.8104095  34.5252838  18.0167542  75.9169006
  35.3525963  18.4743900  75.7673721  34.5313721  17.8101521  76.8515167
  35.9942856   9.2281303   0.4017605  36.7420197   9.7294846   0.7269786
  36.3196297   8.3305931   0.3324203  19.9509773  22.2035503  77.8186646
  20.0192299  21.2617130  77.9752426  20.8527985  22.5205593  77.8682175
  71.0745850  42.6765327  28.5277920  71.9132538  43.0980377  28.7154179
  70.9458389  42.8069992  27.5883064  49.7382660  13.2736979  32.2913513
  49.5132256  14.2040615  32.2879524  50.6901550  13.2571602  32.1920280
  45.5734634  61.1218910  56.1753159  45.9437599  60.4504814  56.7483101
  45.9803047  60.9611359  55.3239212  58.3284569  71.5312881  85.4947968
  58.8370323  70.8961945  85.9990234  57.6814156  71.8667679  86.1153030
  83.8438034  66.8994675  42.2703552  84.0494919  65.9967651  42.5133591
  84.6765442  67.2617416  41.9678154  14.6302118  49.6634827   3.4393656
  14.8845663  49.2914505   2.5948968  13.6734648  49.6342659   3.4355497
  11.6274586  25.5383701   6.9101772  11.3894320  25.2073116   6.0441656
  11.8578329  26.4553852   6.7610350  73.3729858  67.1020584  28.2869434
  72.9734573  67.9329453  28.5443020  73.9454346  66.8744736  29.0195675
  57.0307121  36.1535225   8.8246231  56.3265038  35.7805710   8.2943106
  57.8307648  35.7731628   8.4620323  13.7111740  47.6121941  77.9602966
  14.5700035  47.8768692  77.6307678  13.2660131  47.2416611  77.1982193
  61.9511337  22.2755108  45.0613022  62.3935165  21.4404182  45.2134476
  61.2791939  22.0753632  44.4096375  60.4691162  43.2143822   2.3097541
  59.5418892  43.4452667   2.2534237  60.9311981  44.0320435   2.1249793
  73.6405487   2.7763853  74.0258942  74.1916275   2.1321824  74.4703598
  73.8894806   3.6143198  74.4159317  10.7932463   2.6242023  22.2968636
  11.1092434   2.1086071  21.5548801  10.5539160   1.9730649  22.9563885
  17.9154091   8.7235365  32.7555351  17.1534328   8.1454382  32.7177925
  17.5496464   9.5908766  32.9292297  21.1894569  36.4652519  70.0455170
  21.5181484  36.5822525  69.1541672  21.1672955  37.3497887  70.4106598
  55.3136673  46.8875847  82.3865509  55.7236977  46.2856369  83.0076523
  54.6319580  46.3664360  81.9623947  52.3992577  28.1962624  42.0389252
  52.2183952  28.3349857  42.9685898  53.1857948  28.7143230  41.8680305
  85.3433914  -0.2056825  13.0910072  85.1784592   0.5856720  13.6036358
  85.1942596   0.0611268  12.1839218  85.2202377  15.0343828  75.7358093
  84.6933365  14.9140100  76.5258179  85.3970871  15.9746571  75.7068329
  61.4099770  23.7484589  66.8179626  61.0464516  23.0727406  67.3902283
  60.6436234  24.1848736  66.4458313  75.1553497   7.7125721  19.2079315
  75.0734253   8.6210871  19.4979668  74.4121399   7.5811524  18.6192017
  70.8866348  36.6742096  11.5309649  70.9875946  35.8536606  11.0485344
  70.2014465  36.4913254  12.1738510  81.3938522   5.0229802  74.7846985
  80.9344635   5.3800316  75.5447693  80.7082214   4.6011424  74.2668304
  65.2758560  60.8635521  55.1675034  65.2879105  61.2998428  56.0194054
  64.5675507  60.2233925  55.2362595  50.2566719  40.1087646  62.9887848
  50.8576813  40.8536758  62.9999809  49.9480095  40.0636292  62.0838394
  14.3199015  50.8268166  80.4151535  13.8229885  51.5815811  80.7308044
  14.1844339  50.8301659  79.4675903  80.5865326  34.4797401  86.9240494
  80.3781128  35.0768776  87.6425323  81.1698303  34.9829597  86.3559341
  10.3809290  57.9065781  66.1941605   9.8072634  57.6188812  65.4839706
  10.9452400  58.5677223  65.7933197  32.2970810  41.5346832  39.2385559
  32.7447701  40.8235588  38.7801819  33.0036278  42.0579529  39.6169891
   9.0780325   5.6200261   2.4947271   8.5778933   6.0084844   3.2124963
   9.7172556   6.2917428   2.2571936  17.8089657  62.3961983   6.7002292
  17.1214790  63.0609360   6.6587934  17.7168617  61.9051590   5.8837552
   4.4662266  17.3022747  77.4260559   3.6137085  17.7300663  77.5063095
   5.0905747  17.9488201  77.7553024  78.7881470  45.1563225  34.0798264
  78.9091492  45.4604378  33.1803246  78.4086380  44.2823639  33.9881744
  55.0131416  11.2350512  50.9391975  55.1279488  12.0781116  50.5006790
  54.6245880  10.6690702  50.2721710  20.8011131  10.5887613  84.0331268
  20.3843689  11.2924070  83.5356903  21.4611263  10.2331448  83.4380188
  20.4816704  51.1929893  46.1867676  20.2830982  51.9341660  45.6145287
  21.2116680  50.7473793  45.7569199  48.7850914  59.3798485  59.8128052
  48.4196777  60.0619164  60.3762665  49.5238991  59.8018265  59.3742523
  60.1365242  11.3786592  17.9189892  60.5886955  11.0939951  17.1247997
  60.1434898  10.6086893  18.4876099  12.1260910  28.3222675   6.2892280
  12.2978086  28.9484940   5.5859599  12.1622152  28.8454971   7.0899515
  29.4205799  32.8468895  10.3960905  29.1674843  32.6337357  11.2942781
  30.0932198  33.5213394  10.4904394  58.2674255   2.7875741  23.6694603
  58.0927277   3.5745571  23.1533489  58.0276566   3.0296597  24.5639648
  56.1718674  63.7026443   9.6246405  56.8278084  63.2362404   9.1065273
  56.5700264  63.7923393  10.4904661  29.5074215   1.7316978  45.8535309
  29.8745785   1.1915506  45.1537666  29.9668713   2.5679049  45.7767563
  85.8645554  26.8038254  80.8070450  85.5420837  25.9239902  81.0023193
  85.9271317  26.8295517  79.8522339  47.3412743   7.5120988  70.8710175
  46.7993469   6.7835140  70.5681763  47.4027328   7.3874011  71.8180695
  70.8847580  39.6254501  45.6391945  70.7725220  38.8984985  45.0266800
  70.2926788  39.4221230  46.3633003  86.0548172   5.8860383  19.0603809
  86.2509384   5.2129297  18.4086952  86.1458435   5.4386387  19.9016762
  12.6508789  63.7193222   8.5712318  13.2474670  64.4536591   8.4261122
  13.1722326  62.9431076   8.3665018  13.2577362  68.6101608  69.0671616
  12.5950270  68.0754242  69.5043182  12.7860994  69.0402603  68.3538589
  16.5595112  30.4239120  78.4396744  16.9725437  29.7792320  77.8652039
  15.9930878  29.9065228  79.0121307  56.5385628  65.7332382   7.5903468
  56.3685188  65.1691971   8.3447886  56.1007423  65.2953491   6.8604140
  61.4974365   2.2625000  31.2692013  61.0695953   1.4614614  30.9666729
  60.8743248   2.9593046  31.0632153  56.5184937  66.7265091  83.3969498
  56.1638069  67.5890884  83.1815643  56.0537300  66.4683762  84.1929398
  77.3729401  30.3678169  20.3866081  77.8532639  30.7942677  21.0963020
  78.0541763  30.0034657  19.8214474  52.5915375  12.1457071  21.8694115
  52.1199646  11.7016706  21.1646519  51.9165726  12.3531485  22.5156498
  26.7143192   4.8875480  79.4471207  26.9469337   5.0984726  80.3513489
  25.7710743   4.7268858  79.4737015   1.2731184   9.2323246  10.5321579
   2.0676641   9.7650566  10.4986115   0.8198195   9.5277719  11.3217554
   4.7735271  58.6215363   4.4509339   4.3523993  59.0370865   3.6984715
   5.5265360  59.1804466   4.6428423  56.8191566  28.1713619  51.9400520
  56.4441910  28.9227314  52.3994865  56.0681610  27.7420082  51.5303040
  22.5111217  43.4371185   1.1177173  22.4066010  44.1566429   0.4951497
  22.4935417  43.8591499   1.9766772  70.9576263  67.6430817  22.2867928
  71.1801300  68.2522049  21.5827389  70.0006104  67.6269302  22.2960052
   5.4056678   9.2670021   6.1121993   5.5328360   9.8644361   6.8491745
   6.1272001   9.4657993   5.5154562  42.9445000  67.3980255  66.0755539
  42.5205383  66.5399628  66.0906677  43.5507927  67.3526230  65.3362427
  43.5834961   9.6744013  54.4568596  43.3925629   9.8154488  55.3841591
  42.7290955   9.5067816  54.0591965  50.3230820  53.6459961  63.2843323
  50.9079933  54.3397064  62.9795723  50.6289558  53.4463005  64.1690903
  77.3203659  13.1190014  67.7884064  76.8273163  13.6401815  68.4220581
  78.2377625  13.3120127  67.9816818   1.5473343  68.4641876  66.6169662
   2.2775683  68.0276794  66.1782761   0.7726482  68.1823349  66.1305008
  50.6603165  34.0532455  75.2983627  50.2582207  33.3149261  75.7560043
  50.2743950  34.0311584  74.4226837  78.0187988  38.5540123  73.4398880
  78.4376678  39.3506203  73.7657623  77.3152008  38.3803749  74.0652237
  31.4667282   9.5281897  13.2003803  31.5639439   8.7554188  12.6439581
  31.8368416   9.2647724  14.0429115  62.7845612  34.7773476  26.0078430
  62.9218102  35.0459061  25.0993996  63.6562729  34.5349693  26.3202553
  45.9566154  37.7140732   3.9275942  46.8743210  37.9582443   4.0477171
  45.9263611  36.7822266   4.1443253  77.0644302  18.5228405  57.2346497
  77.1112900  19.1296883  57.9734154  77.9684525  18.2380886  57.1008873
  14.1936378  50.7358360  18.3231907  14.3248386  51.2241669  19.1359329
  13.3998976  51.1122742  17.9430580  43.1245499  57.3349724  33.7327156
  43.8750839  57.8549423  34.0200500  43.2359810  57.2567940  32.7852440
  27.1382446  15.0148478  83.5523300  27.0452938  14.3240347  82.8963089
  26.2521229  15.1453085  83.8899689  65.0451584   6.2547269  15.2124567
  65.3841324   5.7725511  14.4582453  65.3810959   5.7785654  15.9718304
  51.1600647  56.5052986  53.1182213  51.6180687  55.7773132  53.5383377
  51.4022675  57.2721748  53.6373253  58.0265694  10.3868303  79.3140488
  58.9387665  10.0978603  79.2890167  57.8876953  10.8149786  78.4692764
  42.5371552  40.5603790  17.7409039  42.6893578  39.6276054  17.8925648
  42.4497986  40.9344559  18.6176395  11.2791138   0.6359676  20.3876553
  12.1571398   0.9931507  20.2545300  10.8794546   0.6524354  19.5180378
  72.9653931  71.1090469  62.6044655  73.5891724  71.8242416  62.7295341
  72.1450119  71.5444946  62.3729744  30.8032532  70.8098602  68.5045700
  31.2746162  70.0106964  68.2692337  29.9601974  70.5016098  68.8369446
  13.0843697  63.1351128  37.8888474  12.5878258  63.7905998  38.3787613
  13.9844646  63.4606705  37.8975830  36.3259048  56.4097061  39.1204071
  36.3810234  56.9826469  39.8852158  35.7455635  55.6995468  39.3944702
  10.1819725  42.2307243  51.3815308   9.8642540  41.6075745  52.0349655
  10.2360802  43.0632019  51.8508797   7.1872783  23.6341858  69.0567017
   6.2983956  23.8806324  68.8010025   7.3740745  24.1743298  69.8245468
   8.7770481  68.6196899  41.5322571   9.2280655  69.4482651  41.6943550
   9.4747849  68.0103607  41.2911758  55.6988564  63.7168999   5.7121158
  56.5060768  63.2542839   5.9370842  55.5706100  63.5358887   4.7809777
   4.7139130  49.5073776   7.0680871   4.4238310  50.3949776   7.2784390
   4.6659884  49.4597015   6.1132770   2.7363684  36.7464485  60.7791443
   2.5995221  36.9692307  59.8583450   1.9693340  36.2251053  61.0159836
  33.6777458  51.7378731  53.1203270  33.8514023  51.4775200  52.2157326
  34.4466591  52.2481689  53.3745041  49.6032906  67.5043869  31.2372494
  50.1037407  66.7355194  30.9640694  50.1515350  68.2481842  30.9874096
  30.5028610  43.9228363  75.4739456  29.7691021  44.1386375  74.8983994
  30.4341679  42.9771843  75.6052856  55.9361992  58.0798340   4.2243161
  56.5279236  58.6854973   4.6707072  55.9578247  58.3555679   3.3079460
   4.9319310  20.8365898  24.4140396   5.6921020  20.2877293  24.2213612
   5.0043044  21.0261402  25.3494873  79.6830750  42.9167671  82.7934494
  80.4010773  43.0486832  83.4125519  80.1054306  42.5716858  82.0068359
  44.3909569  46.3861771  31.4888725  45.2589722  46.1288757  31.7996387
  44.3123474  47.3081055  31.7340298  78.6389694   6.8977771  63.6966743
  78.3836136   7.3539720  64.4984894  78.7343750   5.9829388  63.9616280
  73.3325348  40.2487602  31.0150433  73.5814056  41.0165062  31.5296917
  73.5298996  39.5047569  31.5840263  86.2561493  14.2029123  22.8405685
  85.8612823  13.9734497  21.9993420  87.0249939  14.7243795  22.6099701
  79.2379684  10.9212055  27.7200012  78.4839783  10.4655514  27.3456841
  79.7897186  10.2225065  28.0715981  47.0684204  23.7080059   6.8008795
  46.4485397  23.1314545   7.2476082  46.7032394  23.8180237   5.9229441
  80.5849228  38.4511528  22.2023792  80.6438904  37.5479164  22.5137024
  81.4494858  38.8221970  22.3787231  79.8236313  30.9101887  40.4152489
  79.8239059  31.6728249  40.9937096  80.4332504  31.1410141  39.7143135
  13.9751577  46.3167076  13.7907190  14.6029072  46.6380997  13.1435165
  13.5300341  47.1040115  14.1041718  62.2840805  60.6309738  25.5572929
  61.8196106  60.7238693  26.3890781  62.7059784  61.4795380  25.4224834
   6.1396174  15.8885546  48.6157265   5.5036707  15.3152065  48.1878510
   6.6322608  16.2802067  47.8945160  53.4927979  38.3771057  64.3611908
  53.2347183  39.2949677  64.4458008  54.4428215  38.3836861  64.4779663
  43.1117172  40.8043594  55.5702438  43.7011147  40.0540771  55.6471710
  42.7007446  40.6991043  54.7121925  70.7916718  57.6645889  78.8907013
  71.5424423  58.1543503  79.2264252  70.0352707  58.0573120  79.3264313
   2.1180182  19.7264652  30.3165455   2.2165682  20.5149670  29.7828922
   3.0131009  19.4852276  30.5550041  56.3439751  31.3760529   2.5614257
  56.8379784  30.5564709   2.5395429  55.6916161  31.2442055   3.2493777
  47.9193153  46.3813553  66.6074524  48.7561493  45.9215012  66.5405197
  47.6049156  46.1794891  67.4887238  70.6172791  17.0654373  69.1143570
  69.8971634  17.4770718  68.6366425  70.7073212  17.5896168  69.9102020
  53.6268539  66.7901154  49.9225006  53.5418663  66.5114975  49.0107002
  53.5036774  65.9882126  50.4304543  25.9071007  17.7569561  87.3012619
  25.8456135  18.0541458  86.3934479  26.6293983  17.1288528  87.2992630
  75.1089706   1.1001201  70.9488144  74.3478012   1.6381167  71.1665573
  75.0392151   0.9573204  70.0048981  -0.0473745  52.0584259  71.8256607
   0.1048490  52.9698868  72.0752563   0.2252483  52.0123177  70.9092636
  85.9265518  60.0335312   2.1756954  85.2589874  60.5991096   2.5639055
  85.4820938  59.6060791   1.4435940  38.5349159  36.0469246  54.4476852
  39.2782555  36.4522018  54.8942604  38.5975990  35.1186028  54.6724434
  75.8626556  30.9252148  83.3074951  75.3716965  30.7913189  82.4967728
  76.7592239  30.6706219  83.0893784  30.0694332  29.7333946  85.5747604
  30.0352345  30.4812546  84.9782944  29.1813698  29.6659832  85.9255219
  26.9715786  61.2280388  48.2347794  26.2299652  60.6552963  48.0393143
  27.0836449  61.7535591  47.4426308  33.3183479  45.0519524  43.5106392
  33.2181778  45.7186852  44.1900978  34.1997261  45.1928711  43.1648827
  58.5568886  13.4055967   0.7658808  58.9225731  13.6820259   1.6061739
  59.2123833  13.6705446   0.1206226   8.9144182  63.7189293  32.8287086
   9.5447788  63.0247078  33.0208931   9.4102812  64.5301285  32.9396439
  42.3757172  41.9118156  65.5645981  42.0599747  41.7894363  66.4598999
  42.7180595  42.8056068  65.5514374  73.4907761  65.1199799  58.7993546
  74.1324539  65.6789398  59.2375793  73.2397003  65.6112823  58.0171700
   3.9365485  37.2541542   0.2345524   4.4035769  36.4526520  -0.0014771
   4.5715222  37.9544640   0.0841967  21.4563541  57.2878265  63.8336220
  21.2382641  58.1407738  63.4579239  20.6795635  57.0416260  64.3358307
  56.6188698  25.1982155  25.3932915  55.8866005  24.8482323  25.9007645
  57.3477249  24.6086178  25.5866184  78.2251968  20.3348179  49.5927849
  78.0824127  20.9178314  50.3383980  77.6885681  20.7058983  48.8923836
  71.5044937  57.4566841  23.6421242  70.6645813  57.8948326  23.7792854
  71.6392059  56.9424782  24.4381618  21.2291451  56.0446739  10.7988787
  20.9907246  55.1198387  10.7351093  20.3921757  56.5090218  10.7889452
  43.1290512  65.1955338  47.5334587  43.1405983  66.1429214  47.3972626
  43.5485840  64.8360519  46.7517929  55.4447784  28.6643906  67.3884506
  56.1749840  28.6124306  66.7717361  54.9990120  29.4810677  67.1635895
  49.2653008  19.3795662  24.6755524  49.8829803  18.6532326  24.7600784
  49.8181534  20.1505642  24.5484619  78.1044846  22.4417896   6.6879015
  77.1587830  22.4936905   6.5493608  78.1983337  22.0396137   7.5514283
  56.5364838  49.9467354  77.2275238  57.0328026  49.4387932  76.5857391
  56.1759071  50.6784821  76.7267609  57.5585327  11.4518690  47.7330475
  57.9976768  10.6099367  47.8536110  57.6534805  11.8944702  48.5764465
  25.0853634  61.4151154  35.5328560  25.9188118  61.5629082  35.0859184
  24.4245281  61.7380028  34.9202614  32.0718880  38.4606476  71.6532211
  32.4157181  37.7004623  72.1223984  32.6461067  39.1815224  71.9117661
  32.4581718  69.9208450   4.3607769  32.6275291  70.8499527   4.5167093
  33.2916183  69.5759430   4.0404043  15.5194244  17.8383007  10.6489935
  15.9449854  18.3831902   9.9870071  16.2430229  17.4331341  11.1269865
  75.9702530  65.9902344   5.2736468  76.6700516  66.5276794   4.9026108
  75.4203339  65.7622299   4.5240908  27.5045319  28.3630638  46.8684769
  28.2038097  28.7780056  47.3735161  27.6768742  27.4247704  46.9468079
  65.5090790  25.5060444  82.2958221  66.1557312  26.1056767  82.6679993
  66.0040970  24.9793701  81.6682892  81.0764160  28.7018681  16.0078640
  81.1410751  27.7947159  16.3064003  80.5117950  29.1268234  16.6535053
  43.3499565  16.9567184   7.7853708  42.9149475  16.3711720   8.4051571
  43.2271309  16.5378227   6.9335065  67.6243591  38.1909599  17.6208496
  67.6414642  37.5924911  18.3676910  66.7068863  38.2079086  17.3484688
  54.3795433  59.9668274  27.3006325  55.0242691  60.6445236  27.0974407
  54.3939705  59.9010925  28.2554646  43.9101562   5.9784303  57.8537903
  44.8137398   5.8272390  58.1311226  43.9754448   6.6622734  57.1872139
  63.2310867  29.0241566  72.1437607  63.0392189  28.5304699  72.9410629
  63.5507050  28.3665829  71.5259628  15.5813971  26.3050900  85.6914902
  15.7958679  26.3246651  84.7588348  15.8830137  25.4466267  85.9886475
  79.9874725  43.9612694  57.2688217  79.5847397  43.1034775  57.1337814
  80.9262848  43.8034859  57.1689720  52.5872383  10.3192024  88.8570862
  52.5253792  10.4969788  89.7956009  51.9425316  10.9044170  88.4594574
  44.7549667   6.5735741  52.7826080  44.4114838   6.6469126  51.8921738
  45.3800964   7.2944856  52.8583107  67.6047211  11.2580633  79.7082214
  68.2152328  10.9762869  80.3894730  67.5661163  10.5193424  79.1007385
  52.7815666   7.9752617   7.8082142  53.0501404   8.4410686   7.0163026
  51.8813133   7.7020850   7.6317148  79.5290604  24.8858986  57.7453690
  79.4100723  24.4081268  56.9245148  80.4701691  24.8410797  57.9143333
  26.0099792   1.6930153  85.9750900  25.9930477   0.7373756  85.9231491
  25.2190113   1.9203666  86.4638748  55.2729187   5.1857443  70.6215057
  55.9573402   4.6372714  71.0048752  54.4720955   4.9205894  71.0738373
  30.6319389  45.6351585  41.3534737  30.4726276  45.8099976  40.4259605
  31.2049866  44.8684578  41.3577003  68.6746140  56.2093811  64.9730606
  69.3011856  56.1575165  64.2512970  68.4483643  55.2982368  65.1597672
   7.0833902  20.9977055  70.6698761   6.8303556  21.0886135  71.5885315
   6.8492827  21.8366165  70.2728195  41.2909660  70.9941788  86.0098801
  40.7525139  70.3213577  85.5932236  41.0796585  70.9273758  86.9410706
  26.3947430  36.6085701  16.6732445  27.0271149  37.2787666  16.9324226
  26.0274887  36.9312630  15.8503065  66.8565979  17.4103794  34.7126427
  66.1408157  17.5829258  35.3242912  66.8342438  16.4628220  34.5789680
  24.1428719   4.0240936  25.8980827  23.6648979   3.1947742  25.8984814
  24.9053288   3.8608325  25.3428917  81.6562500   4.1072264  22.0803299
  81.0967178   4.5104084  22.7441101  81.1044312   4.0578866  21.2997589
  75.1992569  41.8106270  17.3488426  75.5726395  41.1752853  16.7379761
  75.1276627  42.6183777  16.8402729   2.5370860  11.0883017  58.9149818
   3.4691930  11.0070524  58.7129745   2.3169622  10.2714281  59.3627472
  31.1393433   2.8980079  81.5160675  31.7999916   3.5904686  81.4995422
  30.5518608   3.1101084  80.7907333  65.4777298  54.4373398  30.8961353
  66.3799057  54.7568893  30.8819199  65.4544525  53.8180618  31.6256466
  43.9841003  20.3932590  23.3033810  43.1986465  20.0239601  23.7070026
  44.4696846  19.6325722  22.9843273  46.1769829   7.3782091  42.1535301
  45.9058838   6.7384782  41.4951363  46.0890388   6.9159665  42.9870949
  76.5123444  11.4868908  65.9327774  76.7780380  12.1107321  66.6083984
  76.0521011  12.0186443  65.2834396   4.5960112  21.7256126  88.6699982
   5.2036119  22.0262794  87.9942322   4.1292133  22.5160351  88.9412308
   2.0235162  20.3052425  53.8462105   1.8570393  19.3630638  53.8176498
   2.0525599  20.5151482  54.7796593  12.4801922  38.8740349  61.6637611
  12.6577492  38.1205292  62.2267342  11.8630371  38.5447044  61.0103874
  82.3407211   4.1043105  79.2757034  82.9661865   3.6146183  78.7416458
  81.8439407   3.4309933  79.7405548  24.6815224  55.6505051  59.3703690
  25.4271297  55.4283218  59.9279861  23.9426727  55.7201614  59.9749184
  84.5368805  18.0520172   8.4081192  84.8685913  18.8578606   8.8041182
  84.5804901  17.4040279   9.1112833  65.7938538   6.7171965  52.4753418
  66.1076813   7.0274606  51.6259422  66.2580032   7.2580557  53.1142998
  26.1259060  -0.1873353  43.8712463  26.7995720   0.1036195  44.4858589
  26.1571903   0.4532588  43.1606865  70.3612213  28.2892189  62.6995201
  70.8011780  29.0132771  62.2540894  70.9792709  27.5606937  62.6404381
  78.8553314  44.6671333  60.0037727  79.4948807  45.0549088  60.6011314
  79.3702393  44.3991814  59.2426491  69.0215530  69.6810608  11.1956167
  68.5517654  69.2897034  10.4591608  68.6730652  70.5704880  11.2565746
  41.2342300  59.1586533  61.4651756  42.1081085  58.8949814  61.1769943
  40.6596222  58.9180489  60.7384262  76.9970016  28.5012493  73.9487915
  76.1350403  28.8879414  73.7947845  77.4146957  29.0898418  74.5775299
  30.0398655  60.5000801  83.6426392  29.1170940  60.5605545  83.3955231
  30.0941544  60.9601898  84.4802475  15.0731430  35.5229454   8.9268618
  15.5467205  35.9478035   8.2117023  15.4627113  34.6506920   8.9872236
  35.6357346  56.0183868  60.7211990  35.3611298  55.2518845  61.2244835
  35.6760254  55.7089005  59.8163071  63.5215950  50.9825974  33.7631226
  63.4259682  50.0402527  33.9012337  62.6288795  51.3240700  33.8149490
  17.2476273  37.5337601  11.7249718  17.7217445  37.4052162  10.9034357
  17.3366833  38.4688492  11.9091187  75.6761551  49.7569733  45.7481232
  75.9126205  49.8167267  46.6737289  75.8652039  48.8491516  45.5107422
  83.9734955  41.0630455  22.9609280  84.3250961  41.1360397  23.8482170
  84.0062408  40.1263466  22.7666283  23.9412880  54.3533707  36.9216995
  23.9515476  55.2318802  36.5417633  24.4804897  54.4266777  37.7091751
  80.3150024  25.0894413  30.9765186  80.7227631  24.2415638  30.8002720
  80.2196045  25.1160507  31.9285812  50.2987289  48.2827492  72.4734497
  49.4412956  47.8910751  72.3072128  50.8805161  47.8635902  71.8393707
  75.9160843  66.4773254  14.1581593  75.5218887  67.2266464  14.6046524
  75.1708450  65.9806747  13.8202295   7.3797073  69.8720322  44.0750809
   7.7542100  69.6416016  43.2248611   6.4346371  69.7817612  43.9529190
  11.7814703  59.5799179  87.6120529  11.6433840  59.6607170  86.6683197
  12.7199993  59.7263336  87.7301941   0.0414154  20.1525555  11.5860653
   0.3005259  20.0739784  12.5041714   0.7755904  19.7806053  11.0973206
   8.3718338  66.6163864  53.5744820   9.0892124  66.3395081  53.0044479
   8.6764736  67.4372025  53.9613647  67.7915115  66.9129257  54.3542557
  67.8686142  67.6772156  54.9253540  67.4004059  67.2535706  53.5497475
  28.3673382   2.4897833   3.9871063  27.7278385   2.4254155   3.2777896
  28.6078644   3.4160016   4.0094161  83.8372803   4.8975210  17.2289658
  83.2725677   5.6698718  17.2574463  84.5022888   5.1110435  16.5744381
  39.8354378  66.0753632  33.1471977  40.5319214  66.5237732  33.6268539
  39.1081619  66.0298004  33.7678680  67.8927841  50.8887329  15.2872448
  68.0795059  50.1562576  15.8744783  68.1071091  51.6677933  15.8004322
   5.0424428  57.5185776  81.8193054   4.3081098  57.0998535  82.2683640
   4.6399355  58.2137680  81.2987900  76.6910782  39.0285606  19.0640450
  77.2878647  39.7494049  18.8628922  77.0254593  38.6621170  19.8826637
  38.4854088  30.3657665  85.0217590  38.6811600  29.8232479  85.7856903
  37.8854523  31.0351315  85.3507462  45.9728661  69.8485336  66.9912186
  45.1190910  70.2474365  66.8233490  45.8547401  69.3650589  67.8088608
  72.6183929  41.5353508  76.4832306  72.9228134  42.2806168  77.0010452
  73.3082733  40.8788643  76.5797424  -0.2632785  56.6092987  10.6649799
   0.4010301  56.5864143   9.9762115   0.2198551  56.4228935  11.4700060
   3.7119303   7.2596183  53.7326279   4.4013190   6.9208093  53.1615028
   3.2042804   7.8470683  53.1727829   5.5301547  62.4446945  42.0699272
   6.1341820  63.1479988  42.3081398   4.7406840  62.8972969  41.7730713
  53.1263885   9.7026606  67.2832718  53.7354088   9.9592218  67.9757385
  53.1176567   8.7460041  67.3143234  62.6786652  30.7190342  82.6679230
  63.1838722  30.6669846  81.8565750  62.6709404  31.6510563  82.8858871
  82.9473953  64.7641525  27.1347961  82.6867752  64.1189880  26.4774723
  82.5210114  65.5748444  26.8569374  63.6857948  14.1928978  56.9521179
  63.1411743  13.5904074  56.4455338  63.9576569  13.6849499  57.7165184
  11.2657394  14.0984945  69.1775360  11.1909342  14.9656811  69.5758133
  11.4617596  13.5145359  69.9102020  74.2240524  61.6671829  28.1648102
  74.5132904  60.8969650  27.6755848  74.5328751  61.5136528  29.0577202
  25.9145069  62.3715897  54.8625793  26.1047020  62.1045189  55.7618752
  26.7261200  62.1999588  54.3850250  38.8859329  60.4073410  62.4606705
  38.1459770  59.8305321  62.2709732  39.6463470  59.9454117  62.1076469
  73.5646362   5.5839052  47.8733978  73.2361298   4.6892529  47.7844429
  72.8435059   6.0645399  48.2798424   7.2939105  41.1502838  60.6447525
   6.7323589  40.8671074  61.3663483   8.0980196  40.6425400  60.7535477
   5.4282846  60.3772850  40.1052818   4.9782400  60.6390457  40.9085083
   5.4957757  61.1841393  39.5947266  65.7204742  26.9871521   3.9981964
  64.9102554  26.9610558   3.4891865  66.2900772  27.5828075   3.5113909
  38.3193893  71.1388779  24.0202255  38.3988800  70.7903290  24.9081573
  37.6476746  70.5951080  23.6087093  69.2063141  58.1387901  53.1199455
  68.6063614  58.8831749  53.1666183  69.0738220  57.6722679  53.9451904
  60.2420158  17.4551201  16.8777504  61.0378799  17.1525021  16.4404278
  60.5325546  18.1834030  17.4267693  23.9893379   8.1793642  36.0176964
  24.1711235   7.2424197  35.9447594  23.8717079   8.3281937  36.9559097
  34.6930046  30.6261616  80.0762711  35.2414017  31.0892544  80.7095490
  33.8356209  30.5695972  80.4980850  11.9028454  44.3952866  66.4102325
  12.0166054  45.3425064  66.3323593  11.2899942  44.1693306  65.7105179
  80.9803238  17.7205486  30.8787613  81.2322693  16.9299488  31.3559532
  81.7686310  17.9709473  30.3969822  38.5557785  42.5231400  62.7033272
  39.1888542  42.1526337  63.3182831  37.7248421  42.5105019  63.1783218
  83.6634140  35.1249771  83.9600983  84.0249405  35.5335197  83.1735764
  84.2692108  34.4111366  84.1592560   6.2203584  47.9541359  29.3119106
   5.7430520  48.3989487  30.0123043   7.1057229  47.8431931  29.6583977
  66.6533737  56.8264961  49.7801704  66.0867157  56.0565453  49.7321854
  66.5828857  57.2300453  48.9150620  31.3522224  61.0040092  62.7267570
  31.0033054  60.2553978  62.2429466  30.8471813  61.0202560  63.5397148
  67.8316422  56.1375847  21.7793751  68.6897583  55.7136803  21.7922974
  67.4558563  55.9438858  22.6381531  11.7108994   5.2226310  58.5675697
  11.9838266   4.5021348  59.1355743  12.5091982   5.7313743  58.4256859
  17.2660027  43.2139893  17.0822220  17.0509815  42.7606506  17.8973789
  16.5468559  43.8328514  16.9554520  76.3881454  25.6481209  64.1891022
  76.5385284  26.2475929  64.9200287  77.2158890  25.1774998  64.0911255
  20.8992252  59.6608162  62.9622078  20.6775112  60.5051651  63.3548317
  20.2515926  59.5423203  62.2673988   7.4445782  35.9745827  31.3452740
   6.5654879  36.2899857  31.1356258   7.5293536  36.1112022  32.2888756
  26.1510334   7.2582335  48.5787506  25.7447395   8.0960627  48.8005562
  26.9522648   7.2346392  49.1019173  44.8702049  66.7117996  15.2070599
  45.0121918  65.7761765  15.0632467  45.7235603  67.1119919  15.0401535
  27.3019962  42.4352341  79.5002060  26.7830830  41.6592789  79.7119904
  26.7628078  43.1706734  79.7911301   9.8656349  35.4424057  74.1252747
  10.3334093  36.2655144  73.9841690  10.1498222  34.8789825  73.4055328
   3.9706538  67.6338730  73.0104218   3.0735681  67.7235184  72.6888123
   4.2705112  68.5339279  73.1377487  76.6967926  63.5065231  33.6259460
  77.0896530  62.7898903  34.1242714  77.1318054  63.4724770  32.7739830
  81.2320938   9.1699877   1.6298381  80.6679535   9.7515898   2.1394622
  80.6736832   8.4230309   1.4142842  81.7327957   1.6815557  23.2910175
  81.8884659   1.8749239  24.2154675  81.8153915   2.5281389  22.8520336
  25.8893909  36.2210236  82.9550095  26.7620564  36.0124207  83.2884293
  25.3290253  35.5252838  83.2987671  12.8985186  62.7559433   0.3552116
  12.5235643  62.7040825   1.2343885  13.5990295  62.1036301   0.3547207
  24.4000950   5.6959682  76.1131744  25.2122345   5.2264142  76.3033829
  23.9066048   5.1016955  75.5478973  52.5075798  57.8612289  36.4611702
  52.1017265  57.3948975  37.1919556  53.0760002  58.5095634  36.8768539
  86.3132248   6.2350602  12.3233347  86.5708771   7.1505971  12.2154522
  87.0586243   5.7355928  11.9899521  23.9608517  45.9857903  20.8998280
  24.8640423  46.2656975  21.0485916  24.0198917  45.0373650  20.7847900
  21.5741253  32.2683144  55.1188278  22.3694191  31.9350014  54.7033272
  20.8643208  31.7748585  54.7078400  35.2745438   2.7261941  74.9214859
  35.7805634   3.5143123  75.1190872  35.8791542   2.0041559  75.0927734
  46.9479637  65.8595734   0.2106052  46.1125793  65.9413681   0.6706874
  46.7480240  65.3209152  -0.5549697  69.0429764  21.3433056  85.6121140
  69.5049286  21.3260212  84.7739410  69.3758926  20.5804653  86.0848465
  24.0783634  56.6010399  35.8381004  23.6013050  57.2180023  36.3930817
  24.8549938  57.0840454  35.5556412  75.1459503  56.9864578  37.4451370
  75.2420654  57.6504440  38.1278687  76.0185776  56.6023903  37.3600197
  66.6069717  50.7936440  73.2517166  66.7182236  50.0604057  73.8568726
  66.1716232  50.4113960  72.4897537  56.2821083  33.1419258  24.1865864
  56.5769463  33.3853302  23.3090591  57.0627823  32.7868156  24.6116447
  59.4873543  29.2866173  55.3463097  59.2251968  30.1879482  55.5336761
  58.6886215  28.8661575  55.0277710  58.7076530  13.7980843  34.2825928
  58.1123390  13.4829645  34.9626923  58.5824852  13.1898851  33.5541306
  48.4620934  29.4683342  64.3657608  49.3417587  29.2389183  64.6654053
  48.4953423  30.4149551  64.2277985  14.0342770  66.0158997  59.1366081
  14.8354130  65.9255905  59.6526070  13.8168068  66.9463730  59.1927948
  69.8246231   1.0737119  15.1979771  69.1490555   1.6466514  15.5607252
  69.6344910   1.0430208  14.2603521  70.1940613  14.6732903  88.3310318
  70.8151245  15.4012337  88.3061981  70.5838165  14.0065317  87.7655640
  13.0210238  31.3625641  80.4131622  13.6971941  31.9037800  80.8207245
  12.7371931  30.7696171  81.1089249  55.6091461  62.5244522  57.2386627
  55.9878426  62.7580719  58.0861549  56.3374443  62.5993767  56.6220589
  50.3914490  35.0367470  19.2067242  50.7545624  35.0757561  20.0915165
  50.7142677  35.8305016  18.7801342  56.6687279  14.1305246  36.7758980
  55.9477654  14.4161224  37.3370399  56.2701569  14.0169115  35.9130745
  57.2781601  59.2066917  80.0448532  56.3323326  59.2794647  80.1726990
  57.5394936  58.4736862  80.6022034  28.0129147  24.9511604  45.8846245
  28.7876911  25.2390175  45.4018326  27.3482780  24.8120937  45.2099762
  43.3179474   8.2296772  72.3350601  43.1060867   8.7206306  73.1289749
  43.3473206   8.8919535  71.6445770  76.7806320   4.3054385   9.2202005
  76.3347092   4.4657078   8.3885164  77.6851959   4.1125016   8.9736805
  68.3573303  10.8500042   7.6039143  67.5284042  10.3723011   7.6339784
  68.1140671  11.7349453   7.3320112  37.5107307   0.4688456  34.2534981
  36.7225189  -0.0716439  34.3066254  37.1824455   1.3600383  34.1341820
   0.7877921  27.9727631  24.4507465   1.4015454  27.9268360  25.1838417
   0.0125431  27.5025959  24.7576046  79.1703949  16.7774715  56.4772263
  79.8817215  16.3679256  55.9847603  79.1534271  16.3061886  57.3101921
  73.5168686  45.7744713   8.1081867  72.6649475  45.3555756   8.2306118
  74.1521072  45.0762672   8.2669744  57.9240189  44.7795410  77.8910446
  58.5586929  45.4649582  78.0999146  57.0749245  45.1659813  78.1053696
  51.4124451   4.6044116  43.1724052  52.1032104   4.7966843  43.8065262
  51.1344452   5.4629927  42.8533630   4.4580956  49.2293777  47.2126198
   5.3014860  48.9030952  47.5264091   4.5967531  50.1678696  47.0851784
   6.3424215  68.4227219  23.6944618   5.6097207  67.8134537  23.7848663
   6.8478951  68.3105927  24.4995422  47.2207298  56.9174957  34.4656906
  46.7511482  56.2519684  34.9684830  46.9482841  56.7699890  33.5600166
   5.4466453  45.2419701  21.4895744   4.7998881  44.5772972  21.2526188
   5.7219882  45.0034142  22.3747349  37.3285408  18.2636967  19.4897594
  38.1174927  17.7220993  19.5111866  37.3644409  18.7057343  18.6415005
  50.6358299  71.0347061  27.8118629  50.2679596  70.7691498  26.9690208
  51.2132263  71.7683640  27.6007023  71.4059830  13.1137991   2.0127223
  70.9691315  13.9438992   2.2033136  71.3871689  12.6371717   2.8426039
  34.1703606  58.2258835  41.4042740  35.0983963  58.3293381  41.1938400
  33.7186356  58.3710136  40.5729446   0.0978723  31.2178535   0.4404919
   0.8736883  30.6874275   0.2588578  -0.3801885  30.7229843   1.1059197
   2.8522515  68.6922302  57.8718262   1.9260187  68.6899643  58.1133194
   2.9345124  67.9856491  57.2313499  31.9383621  60.1607628  41.7512360
  32.3239174  59.7162247  42.5061951  31.6928749  59.4525490  41.1559181
  49.3989258   9.1258135   9.1229000  49.8933754   9.6373005   9.7633181
  49.4232674   9.6535082   8.3246651  15.1031475   7.1595702  28.9977322
  16.0179443   7.0763483  28.7285614  14.7969561   6.2571530  29.0878563
  55.5867271  46.3503761  78.3964157  55.1335983  47.0854111  77.9833374
  54.9574013  46.0069237  79.0306244  26.2618961  52.6976166  56.4523659
  25.8854656  52.9361267  55.6052246  25.6874199  53.1133461  57.0953102
  82.3264923  37.9816742  40.1974220  82.6758118  38.2140121  39.3370514
  81.3919220  37.8403664  40.0462914  17.3077488  65.8453064  29.7818127
  16.4640198  65.8676605  29.3303146  17.3115520  65.0053940  30.2408962
  58.3195877  10.5703688   3.7069318  59.1941414  10.5920267   3.3184462
  57.7599792  10.2131834   3.0173752  25.6767101   1.5608963  22.8802013
  25.5341072   0.8341882  23.4866600  25.8333817   2.3173337  23.4454346
  54.3794899   1.6975093   2.4393842  54.1604691   0.7902185   2.2270508
  53.7063904   1.9663643   3.0645947   4.9551911  55.3434029  33.9097252
   4.8551030  54.8110695  34.6989250   5.9018230  55.4121666  33.7856636
  34.2476540  50.0265656  12.3295002  33.9982376  49.8504791  11.4222984
  34.6413383  49.2084770  12.6327667  41.0356102  68.6133118  60.8460999
  40.8005943  69.4578323  60.4616699  40.2708054  68.0587845  60.6918259
  66.4775543  26.8100910  71.5166321  66.8846893  26.5081787  70.7046509
  65.5739288  27.0094261  71.2717819  40.0560455  50.3619881  17.2224827
  40.2629700  50.9700775  16.5128059  40.0977592  49.4963875  16.8160019
  24.3836231  63.2229195  78.0094604  24.3289528  62.3002586  77.7605743
  25.2872467  63.3386002  78.3032532  34.8254318  32.2945518  72.3694534
  35.2372398  32.4754715  71.5245209  34.7353630  33.1540909  72.7809372
  36.1772804  56.7074966  67.6772461  37.1246300  56.8059082  67.7725143
  35.9115753  57.4546471  67.1411514  20.6368332  52.6486092   7.8863115
  19.7181721  52.8793640   8.0243196  20.7854214  52.8044281   6.9536414
  47.1139374  23.3799057  25.8645878  46.3143768  23.9053745  25.8931313
  46.8486023  22.5628052  25.4424782  69.6290588  67.4458237  12.6797132
  69.7794113  66.8524475  11.9438267  69.3713608  68.2725983  12.2719431
  35.4904861   1.5733700   3.1958108  36.2979317   1.1403968   2.9186921
  35.7829781   2.3923001   3.5958519  67.2590866   6.6667228  87.5137177
  67.7354431   7.4867792  87.6434250  67.6794968   6.0484161  88.1113663
   0.8267094  36.2863503  40.6759796   0.5274363  35.3980484  40.4821205
   0.0370162  36.8238297  40.6148643  70.6757660  57.8240852  63.1872330
  69.9557648  58.1918755  62.6748314  71.4423676  57.9124374  62.6208878
   3.1626036  25.0927219  60.2236176   2.2573295  25.3937359  60.1455040
   3.4095409  24.8426933  59.3332558  75.8942719  35.4460754  87.0499573
  75.5763474  34.8611717  86.3621750  76.7632065  35.7156143  86.7524109
   3.5362217  47.8039818  84.6571655   3.7889025  48.4473991  85.3192902
   4.3251624  47.6811066  84.1292419  59.6114922  53.2847519  32.8284683
  60.2745552  52.6627121  32.5290565  60.0801659  54.1157951  32.9055481
  18.0629120  59.5149918  33.7426338  17.9539318  59.5775986  32.7937202
  18.2165794  58.5842972  33.9051819  64.1461487  27.8203964  56.7365990
  63.7467728  27.0265541  57.0923271  64.2639923  27.6326408  55.8054199
  16.0098686  68.8367920  10.8725986  16.3344631  69.6870346  10.5760069
  16.2660561  68.7906647  11.7937241  58.0762787  23.8082848  54.1211662
  57.9080658  23.3209972  53.3146400  57.5023842  24.5721970  54.0635757
  81.4803925  36.6839104  67.9702682  81.4641876  35.9601555  67.3440475
  81.6755066  36.2692146  68.8106155  55.8967400  49.6388168   8.4248676
  56.3425980  50.2159729   9.0448112  55.5939560  50.2225876   7.7293367
  76.9669952  57.4911118  41.9843559  76.5653152  57.5181389  42.8527794
  77.2050323  58.4001617  41.8021698  60.3259087  64.2839661  20.5091381
  59.9369850  63.4194336  20.3766251  61.0366669  64.3274460  19.8694801
  69.8042145  13.8188934  69.7736282  69.1242065  13.5529289  70.3925705
  69.5985184  14.7311049  69.5692139  70.5494156  54.9308167  21.2160149
  71.1851883  54.7220612  20.5315838  70.9563370  55.6409378  21.7123795
  72.1363831  45.7629585  52.2659111  71.2555923  45.4600639  52.4865646
  71.9947510  46.5626144  51.7592316   6.9372425  70.3440704   1.8989495
   6.7592435  70.2251129   2.8319004   6.2486401  69.8461533   1.4583446
  78.8256683  10.0930099  81.7755432  79.3792038  10.7369509  82.2173233
  78.3230362   9.6852360  82.4807510  44.4056816  11.9784794  21.5219650
  44.0027542  11.4038754  20.8710327  43.6712570  12.3001633  22.0448132
  42.3086243   6.3594022  76.2541656  42.1198311   5.6767554  75.6102905
  41.6775970   7.0525656  76.0603561   5.6144838  35.2137566  18.5745182
   5.0974722  34.4221458  18.4252529   4.9639740  35.9015884  18.7157822
  21.8854980  69.7550888  57.8090935  22.3246937  69.9263763  56.9760284
  22.5019321  70.0643463  58.4728699  78.3707809  61.2954407  60.4890442
  77.8750153  62.0688591  60.2202072  79.0528641  61.2049408  59.8236084
  16.8352585  68.8508072  77.2585983  17.2044525  68.0254974  77.5729065
  16.9986172  69.4719620  77.9683304  42.6388016  69.4567413  49.3357620
  41.8223648  69.7806396  49.7162247  43.0269699  70.2231598  48.9136658
  60.9800644  26.5402946  48.8073425  60.3403168  26.8885803  48.1863327
  60.9107437  25.5900822  48.7150116   7.4334817  15.1877661  76.6996307
   8.2751799  15.2312603  77.1533737   6.8389320  14.7896290  77.3354187
   2.5454726  17.8721275   4.6104388   1.7713386  18.2547741   4.1974859
   2.1959140  17.3239841   5.3129911  71.6269455  10.4751034  65.2837372
  70.9451447  10.8282413  65.8552856  71.2100525   9.7349329  64.8426208
  10.0714483  22.8762226  85.5475616   9.7245111  22.1353092  86.0444641
  10.7651548  22.4983025  85.0070267  33.9753990  35.0361862  69.4909897
  34.2438316  34.2614822  68.9970245  34.7754440  35.3326836  69.9248657
  70.0875854  69.7995529  42.9705658  69.6572800  69.1521454  43.5290718
  71.0227661  69.6294250  43.0833778  21.9103622  29.3524132  22.9095612
  22.7929859  29.7144814  22.8313713  21.6824818  29.4737740  23.8312855
  77.7425919  33.8493080  29.1665840  78.1674423  33.6803818  28.3256302
  77.0458221  34.4728966  28.9619350  60.5341682  69.6327820  36.3024864
  59.8018723  69.7663574  35.7007103  60.9918480  70.4734039  36.3131065
  23.3495312   5.2524996  14.8769007  22.5759335   4.8158956  15.2334890
  23.3139648   6.1373520  15.2402239   7.5264997  50.9828072   8.1561489
   7.5445833  50.3742676   7.4175105   7.5378771  50.4201012   8.9304018
   9.2421846  49.9836082  59.4897423   8.7599411  50.6563759  59.9704247
   8.7955036  49.1659317  59.7090950  29.9285336  65.0295563  18.6237316
  30.4285412  64.9402618  19.4350586  29.0296516  64.8128357  18.8712730
  24.8520126  13.3365335  12.0050230  25.3291454  14.0092325  12.4908743
  25.1559105  12.5097084  12.3795071  82.2912140  56.7823753  28.6579266
  82.3510513  55.8386154  28.8061466  81.6970444  56.8705864  27.9126663
  73.9487457   6.5713205  30.2677441  74.6590118   6.7681828  29.6570091
  73.9885788   7.2743897  30.9160805  64.5445328  52.7088318  87.0517654
  64.1231537  52.8691025  87.8961487  64.9339142  53.5505333  86.8148041
  27.6398792  36.8480186  66.4756393  27.5068188  37.4752579  67.1863403
  26.7779503  36.4549065  66.3386307  23.4949989  68.1188965  84.9496994
  23.1852112  67.2995453  85.3356171  23.3107033  68.7818069  85.6151428
   3.3804340  47.4985924   4.9437785   2.4578161  47.4797401   5.1980467
   3.3768928  47.2761688   4.0127869  38.1962357  70.4614563  16.6464939
  37.3374405  70.0587082  16.7749138  38.8194962  69.7530212  16.8074188
  47.5925484  62.0889244  81.5883865  48.4777107  62.4160500  81.4280548
  47.1742020  62.7750130  82.1084824   3.9225430  59.5461006  27.1282387
   4.7662168  59.1240845  27.2905579   3.4717166  58.9558411  26.5244312
  59.9339828  30.6823387  11.6049252  59.5472488  30.4192276  12.4400558
  60.7318687  31.1520061  11.8478603  19.9587650  30.4799480  12.2537622
  20.2455425  29.6219006  11.9411201  19.6857967  30.3263340  13.1582642
  17.3321648  47.0833473  18.1579342  17.2170391  48.0088081  18.3735695
  16.6103573  46.8848152  17.5614338  49.9023895  21.4550304  59.3654976
  49.3102226  22.0898800  58.9623375  49.5028191  20.6047611  59.1821442
   1.5619731  14.1196604  46.1175270   1.4594190  13.2140379  46.4100380
   1.4797622  14.6402140  46.9165840   0.7251819  29.0699520  39.6662025
   0.7364390  28.2977905  39.1006317  -0.1966770  29.3246346  39.7055016
  33.0423431  47.0519600  47.9721832  33.5281906  46.2866859  48.2796555
  32.1824684  46.9714699  48.3849411   9.9781036  68.7934341  58.9591522
  10.1770887  68.9928741  59.8739510   9.5952291  69.6007462  58.6158104
  67.7021790  34.0214310  85.2679367  68.5709076  34.0765839  84.8698120
  67.6397552  34.8037453  85.8159485  44.3078957  44.7762680  25.5430984
  43.5131073  45.2491379  25.7899513  44.7961311  44.6849022  26.3613338
  58.9871635  63.8956490  26.9110012  58.3415146  63.5109482  26.3182316
  59.7592392  63.3373528  26.8191433  54.0416298  31.4354458  56.7316475
  54.7987823  30.8719273  56.5722885  53.9032364  31.8911457  55.9013367
  70.0597839  28.8032570  69.5998917  69.7500992  29.4489326  68.9647293
  70.0141754  27.9682159  69.1342087  47.8872833   5.6083879  30.7050209
  48.8409195   5.6889896  30.6873894  47.6699333   5.1571560  29.8893108
   8.0505600  68.6211090  28.6390648   7.3777995  69.2773819  28.4575882
   8.6284714  68.6533813  27.8766956  51.4007988  68.4118729  12.7019291
  51.3437080  68.2609863  13.6454363  51.4397888  69.3641891  12.6135979
  51.2279930  22.8270073  20.2295666  52.0618439  22.3955936  20.4161263
  50.6031418  22.1084881  20.1319771  48.0265388  30.6829720  79.5895767
  47.3003273  30.0799503  79.7483749  48.1763992  31.1054039  80.4353409
  54.3728981  66.8583450  31.1562462  54.3182564  66.0101318  31.5964432
  55.1637688  66.7995148  30.6202450  85.9886780  24.9591217   5.5349526
  85.9271240  25.7882843   5.0606828  85.5770493  25.1359081   6.3808498
  83.4425812  49.0885735  26.6133747  84.0094910  49.2192917  25.8532715
  83.9823303  48.5979042  27.2331715  53.3900948  28.2130280  74.5162964
  52.8834953  27.4011307  74.5365601  52.8106956  28.8463593  74.0927124
  44.9608688   4.4976730  41.4452324  44.9877625   5.1113782  42.1793137
  44.0338898   4.2789927  41.3497047  35.9828415  59.5986710  37.9141731
  35.2001572  59.0893707  37.7038269  36.5212631  59.5475616  37.1244087
  32.2396240  66.8561401  14.3846722  32.4062576  67.6482773  14.8955393
  31.7357731  66.2934723  14.9726992  19.3085823  59.7956276  10.6432467
  19.1517773  59.9702606   9.7152662  20.2155094  60.0654678  10.7878313
  82.4745407  47.4835968  47.6844788  82.6042709  48.1849174  47.0460815
  82.0142899  47.9033852  48.4112358  34.0193520  52.1308022  46.8709984
  33.5931587  52.7364960  47.4774055  33.7997742  51.2617035  47.2066917
  54.2951660  46.2467079   9.1449366  54.0277290  46.9076805   8.5063238
  54.6036949  45.5121307   8.6144314  29.2681351  15.6339560  71.2559738
  30.0090065  16.1527767  70.9426575  28.8565502  16.1828861  71.9234314
  24.7911644  45.1592407   3.8156512  23.9554729  45.2643623   3.3608961
  25.2597084  45.9768677   3.6477585  83.8469009  67.0005341  70.5798645
  83.9265366  66.5786209  69.7243652  83.5296173  67.8820267  70.3835831
  45.7832413   6.3088131   9.3784428  46.6164780   6.3434858   9.8482752
  45.1216240   6.4649596  10.0523224   8.4534855  54.7389374  63.5580101
   7.9861221  53.9474640  63.8251686   8.2366323  54.8439560  62.6316299
  42.9941177  46.2001419  53.8799591  43.1261063  46.2338486  52.9325027
  43.1361656  45.2816811  54.1090469  50.7267532  70.8147202   5.9324017
  49.8717575  70.4848099   6.2087564  50.5247993  71.4942245   5.2891889
   1.6528357  59.4170265  64.6961746   1.5714917  58.9448662  65.5248337
   2.2889917  60.1091805  64.8763428  55.1661377  10.5086594  53.5906143
  55.2382355  10.6575127  52.6478119  54.3347054  10.9154835  53.8344307
  59.1726112  43.5349350  30.7150402  59.7616501  43.1623802  30.0589390
  58.8682785  42.7805824  31.2195854  55.0546951  42.4808083  48.2486687
  55.4627495  42.9660416  48.9658012  55.5505486  42.7394485  47.4718361
  35.5296555  26.2577152   8.1669941  36.1028748  26.2486267   8.9335232
  35.2791672  27.1760330   8.0661116  12.4418974  52.1178246  53.1234894
  12.5579424  51.2330894  52.7770653  12.7497425  52.0630951  54.0281792
  43.8316994  43.3408623  46.4516449  43.9670944  42.5337448  45.9551926
  44.4534798  43.2829971  47.1770897  62.8350029  44.4793777  16.4677544
  62.8641129  44.8193893  17.3620567  62.1866646  45.0265388  16.0244675
  45.7804871  51.2676163   1.8534743  45.7257690  50.3171730   1.7540102
  45.0151749  51.6018448   1.3856931  40.9216003  53.4948349  17.4610538
  40.8909836  52.6456375  17.9016895  40.0048103  53.7603607  17.3887825
  49.2179375  24.5199146  80.3964539  49.8559418  23.8288155  80.2187805
  48.3675308  24.0987110  80.2714539  13.4061756  38.6037788  47.0179863
  14.0031757  37.9661217  46.6265564  12.5325651  38.2817383  46.7958946
  50.8130875  16.6112461  73.2727127  50.1441422  16.1603622  73.7879333
  51.4047356  16.9869156  73.9246750  39.5690765  41.1440048  73.4111557
  38.8900146  40.4780807  73.5191116  40.0160789  41.1696091  74.2571869
  58.1357040  15.7518415  46.6911736  57.9370079  16.5021667  46.1310234
  58.8945389  16.0300827  47.2039909  34.0489655  53.8825874  59.2210884
  34.4359932  53.0286980  59.4142570  33.1487541  53.8150482  59.5393448
  85.3389664   3.7360988   4.3178658  85.4187469   4.6427464   4.6142735
  85.5279617   3.2121127   5.0962944  52.3927727  35.4800644  26.1783543
  52.8460579  34.7193680  25.8148918  51.5066414  35.1667938  26.3596478
  41.0111351  45.0523911  20.8553829  41.8660927  44.9347382  21.2694283
  40.4717598  44.3483162  21.2153606  61.3636894  54.7818222  20.4742298
  61.4675217  53.9083748  20.8517742  61.8338509  54.7402382  19.6414909
  34.4584122  47.8232155  82.5941925  34.5211372  48.5959778  82.0328217
  33.7543793  48.0301628  83.2088013  61.9424248   0.6502916  69.3136444
  61.4440575   1.3073692  68.8277283  61.6502876  -0.1868716  68.9530258
  73.3261871  26.6817265  52.1845284  73.6627731  25.8050308  51.9991951
  74.0998001  27.1877136  52.4329948  81.1615753  39.9391708  76.2735138
  81.9225998  39.5333023  75.8583603  81.3120193  39.8261375  77.2120361
  84.3012466  17.3505611  54.0724640  84.2140884  17.2684364  55.0221443
  85.0347137  17.9533730  53.9504967  84.1424179  28.8022175  82.9672470
  85.0567093  28.5430698  82.8526230  83.7810593  28.1476364  83.5648880
  63.7432632  38.2801056  27.2040844  63.6064415  38.3174973  28.1507168
  64.6481247  37.9842834  27.1043682   9.7337799  69.6873474  88.2783813
  10.2350197  68.9972000  88.7127686   9.4914856  70.2874603  88.9836349
   8.0776482   4.6375518  34.3731308   7.3777242   5.2821941  34.2693291
   7.7920995   3.8878095  33.8510361  46.6775627   5.6822820  58.5047913
  46.4239769   6.3406563  59.1516838  47.3355904   5.1491728  58.9509125
  53.5361481  38.8860397  14.5301838  53.1514206  39.7496758  14.3806925
  53.9146461  38.6429405  13.6852732  12.3149090  56.7117386  45.6802063
  12.3930216  56.8254318  44.7329979  12.5925674  57.5516014  46.0459480
  60.1621170  36.7546043  29.6962872  60.8973961  36.1630363  29.5361538
  59.6485367  36.7222900  28.8891773  67.2846756  38.6924667  49.9056206
  66.5299225  38.9532547  49.3778267  67.1993332  37.7430878  49.9929428
   7.2786098  18.6157455  82.6029282   7.0742121  17.9788895  81.9181900
   6.7017245  19.3573875  82.4201584  16.5194626  12.6849766   0.9230530
  16.1667938  11.9396944   1.4092730  16.1405487  12.6010523   0.0480599
  78.4968185  28.8724060  56.2765846  79.1336212  28.6826458  56.9655762
  77.6470108  28.6988773  56.6814804  63.4255867  40.0439987   7.8933983
  63.2907944  40.8772964   8.3447037  64.1052780  40.2297134   7.2455082
  77.7003479   4.0937166  20.7376575  78.1262512   3.6156113  21.4491730
  78.4208374   4.3783197  20.1754074  39.9321899  53.9741325  13.9336691
  39.5690346  54.7494659  13.5056410  40.7894173  53.8543243  13.5249653
  63.9487991  22.5572414  30.5288582  64.6460876  23.1835499  30.7231789
  63.6507874  22.2566090  31.3873692  31.4628258  68.5725555  19.7985764
  30.6298218  68.5214767  19.3298264  31.8195457  69.4283066  19.5604973
  54.9333076  51.7375870  57.7141228  55.8520241  52.0062637  57.7163277
  54.4435539  52.5592537  57.6790047  86.0875015   3.1545196  68.6409454
  85.8756943   3.9639928  69.1058350  85.8100433   2.4573674  69.2352753
  74.8834000  69.8685150  12.9135599  75.2393417  69.7235107  13.7902069
  73.9620514  69.6190033  12.9848614  48.2122116  30.4082623  11.5631895
  47.5742722  30.8482666  12.1250286  48.2173615  29.5018616  11.8708315
  69.0286255  26.0903893  28.9329338  68.3428192  25.4308300  28.8286266
  69.0100632  26.5866966  28.1146641   6.0258155  31.3078804  69.1869507
   5.2560568  31.0730076  69.7051544   6.7323446  31.3834839  69.8283005
  72.6094513  10.3497829  11.6562548  71.7896957  10.2364254  11.1752357
  73.2831345  10.0172110  11.0631437   5.4128151  67.1607895  21.3085461
   5.4386249  66.8165359  20.4157677   5.9409714  66.5459366  21.8176994
   8.2409983  62.8524933   6.1745834   8.5996113  63.0566750   5.3109059
   7.9124365  63.6899567   6.5015898  72.0046005  16.7398701  46.2212639
  71.4474945  17.4919872  46.4217339  72.3639984  16.9321098  45.3551750
  10.1258163  57.9138908   7.2042942   9.7728558  57.4656448   6.4357071
  10.2257423  58.8242111   6.9257884  48.1884232  43.7849884  65.0567780
  48.8614960  44.4515572  65.1942139  48.5137634  43.2638931  64.3227158
  30.5556526  16.0779228  10.1830912  30.3171406  15.8661394  11.0855827
  31.2943993  16.6809521  10.2658072  81.8035812  55.6787605  57.9998055
  81.0664520  56.0781326  57.5378761  81.5827789  55.7693481  58.9267769
  29.1823959  26.0238838   5.9389901  29.1513386  25.3250294   6.5923414
  30.0372562  25.9226379   5.5204268  77.1040573  65.9978409  64.5666428
  77.1809158  66.6037903  65.3036346  77.3118286  66.5285110  63.7975883
  38.4592476   7.9486156  82.8757401  38.0059891   7.6617088  83.6685028
  38.4885445   8.9025927  82.9485474  75.0145187  17.7945423  83.3890762
  75.4557724  18.1163216  84.1751938  75.2264328  18.4396534  82.7144241
  46.2932777  16.9202709  67.0162659  47.1160736  16.8311615  67.4972076
  45.6395760  16.5089817  67.5817261   5.1345658  36.7085037  29.9773998
   4.6865635  35.9873734  29.5352478   4.4653416  37.0965233  30.5411472
  57.6000404  55.5472527   8.0112629  58.2479210  55.0536499   8.5140982
  57.5463295  56.3935394   8.4552746   2.2644153  50.1334686  66.0774689
   2.4974532  50.9786606  66.4616318   3.0524049  49.8578110  65.6091614
  75.9601746  49.0691643  17.4602184  75.4180756  48.3852196  17.8533878
  75.3597565  49.8021393  17.3243065  26.7874050   4.3704009  47.0893211
  27.6285210   4.8251529  47.0450897  26.3216400   4.7976604  47.8081703
  20.4693680  38.6717072  87.3870087  20.8708057  38.4463959  88.2262497
  21.0542030  39.3293991  87.0106583  19.1981926  25.8852234  84.8482971
  20.0901794  25.7633018  85.1734543  19.2940140  25.9294376  83.8969269
  85.1511536  19.5675735  73.8739014  85.2155075  20.4538460  73.5180740
  85.9637909  19.1408539  73.6023254  14.6906919  60.6162376  14.8321409
  14.5752077  60.4175911  13.9029293  14.4681482  61.5441017  14.9081659
  39.5860939  50.2850227   5.5428491  38.6393356  50.1468620   5.5146880
  39.6896820  51.2365532   5.5331864   8.9019127  46.6656075  88.4698944
   8.5701027  46.8086624  89.3562698   9.3839874  47.4661255  88.2625122
  53.3923569  14.8013096  60.3400841  52.8701439  15.5485096  60.0481644
  53.2387810  14.7558441  61.2837906  20.8410816  14.3088932  72.1385803
  20.8044834  14.4954863  71.2004547  20.4919586  15.0976954  72.5534744
  81.2235947  16.1190128  61.6373672  80.4969482  16.2806396  62.2391090
  81.8821106  15.6742868  62.1710320  36.6246185  35.7427940  75.0845032
  37.1990509  35.2289276  75.6521301  37.0414085  35.7039757  74.2236786
  34.3157272  34.4180145  74.4783401  33.9643745  33.9052238  75.2062302
  35.0478554  34.9033585  74.8586884  48.3184891  16.5820332  40.8422356
  48.2242355  15.8388729  41.4381065  49.2519493  16.6031208  40.6314354
  56.6003380   0.9514661  67.3089523  56.2893105   1.7492005  67.7368698
  56.7336388   1.2058496  66.3958511  80.6356812  49.4828606  28.7769547
  81.3002472  50.1709480  28.7435799  81.1305542  48.6677017  28.6941948
  62.7126923  31.8680305  43.7828102  62.5103607  31.3819923  44.5822220
  61.9595604  31.7147980  43.2122421  18.4797287  19.9889660  51.2363014
  17.8854980  20.3545246  50.5809479  19.1462002  19.5294685  50.7255096
  60.4749641  22.6497269   3.1114004  61.4204063  22.7025681   3.2513378
  60.0949326  23.0754166   3.8799019  75.5799942   8.2158728  32.1807060
  75.8386765   7.3381019  32.4614754  76.2047272   8.4406233  31.4911957
   5.2071247   7.3238559  -0.0478855   5.4721446   7.4549184   0.8625094
   5.7554202   7.9296260  -0.5465302  31.3705769  48.1853333  33.3059578
  31.0080547  47.3122787  33.1556778  32.1157188  48.0382462  33.8885078
  80.3911591   3.6597621  62.5513573  80.7200241   4.5429492  62.7188721
  79.5015335   3.7934601  62.2243767  36.9647484  42.1890945  87.8432312
  36.1334763  42.3387222  88.2935944  36.7493744  42.2595596  86.9132385
  46.6355553  42.3190994  76.0220490  45.8896141  42.6714630  75.5366135
  46.8718948  41.5199852  75.5511017  47.5752106  53.1551781  82.3297882
  47.9407425  54.0258675  82.4863892  48.3318558  52.5694885  82.3560791
  82.3855438   3.1276848  39.8833199  82.8831711   3.4956970  39.1531372
  81.7619019   3.8146951  40.1185303  75.8331985  20.7539921  66.5342941
  76.0353699  20.2975006  67.3509827  76.5657654  21.3573093  66.4094543
  22.6439877  50.1158524  44.7998314  23.1279602  49.5387306  44.2091255
  22.7621002  50.9907570  44.4299355  71.0917587  21.6962357   3.4697514
  70.8039246  22.2637844   2.7547204  72.0466385  21.7619019   3.4581161
  77.2958908   6.6306372   3.8388259  77.6640091   7.3889503   4.2923465
  76.6841431   7.0045571   3.2046432  86.5393143  32.1129990   4.2521329
  86.9576340  31.3456326   3.8617678  85.6360092  32.0795174   3.9372439
   5.0757055  51.2231102  27.0381851   5.1620340  51.7222939  27.8503380
   4.7458224  51.8570137  26.4013367  41.7324905  56.9031525  78.5097733
  42.5700417  57.2924919  78.7610779  41.4256058  56.4628792  79.3023758
  54.5007019   6.1817427  75.4901047  53.8762436   6.0259261  74.7815781
  53.9603615   6.2335935  76.2785034  47.9244652  41.3771400  68.5027008
  48.8394852  41.5399437  68.2736511  47.9101105  41.3958893  69.4596100
  71.0610428   1.1996861  61.4487114  71.0515060   0.9346923  60.5289726
  71.4304123   2.0827014  61.4397392  79.5969849  37.6818810  66.1729584
  80.3256149  37.3617668  66.7047958  78.8348236  37.2021751  66.4973373
  46.4254074  41.7787018   9.5530663  47.0688477  42.4811401   9.4592810
  45.7750664  42.1292953  10.1616497  56.1942329  18.7515640  19.4211903
  55.6396790  18.7888813  20.2004890  57.0412979  19.0879669  19.7136726
  78.3518982  56.4145164  81.6620865  78.0914230  56.5655670  82.5706940
  78.8307266  55.5859985  81.6847687  40.9049911  21.6569519   4.9179130
  40.6799393  20.7810020   5.2314363  40.1514816  21.9238167   4.3913794
   9.1337690   7.9743581  69.9003754   9.4771557   7.1799054  70.3092270
   8.1828012   7.8802862  69.9555359  33.2755737  61.3297081  48.0173569
  33.4846268  62.1717339  48.4217339  33.9567070  61.2057724  47.3563538
  47.0811234  66.0148392  39.6872368  48.0030937  66.0965118  39.4432411
  46.6035423  66.3926315  38.9487076  10.9527273  13.4784327   4.6202612
  10.0595789  13.2103167   4.8362050  11.0940037  13.1482687   3.7329817
  57.5142593  60.6959114  26.9315643  57.1531754  61.2919426  27.5877666
  57.8904037  61.2719040  26.2659950  77.6891632  24.8525772   8.4800730
  77.7272568  24.8705883   7.5238013  76.8904800  24.3638554   8.6787939
  27.9178295  51.8536720  40.0018578  27.5737381  52.6156883  40.4678688
  28.1353035  51.2282791  40.6931038  51.5195045   0.4437940  25.2158337
  51.6711006   1.2656885  25.6824589  50.7191811   0.5975229  24.7137527
  67.8433838  33.2868156  72.1612320  68.0695190  32.6830559  72.8687363
  68.0834885  32.8191147  71.3613281  49.2620850  54.7093124  37.0563278
  49.3243942  54.1494865  36.2824135  48.4407959  55.1871796  36.9407616
  82.8621902   0.0159323   5.4858780  82.8943329   0.8728093   5.0604835
  81.9685669  -0.0510926   5.8222928  80.7788773  27.4822998  34.5063667
  81.4234009  27.4675293  35.2138977  81.2986526  27.6003323  33.7113037
  52.8290901  16.6685219  76.8377151  53.5483360  16.1158009  76.5320816
  52.9736099  16.7500782  77.7804260  34.5579529  33.0934448  67.7666550
  34.1031265  33.4166183  66.9888840  35.3668480  32.7091217  67.4286957
  64.0000381  34.1467628  40.9261971  64.3747940  34.0087852  41.7961082
  63.5046463  33.3470764  40.7492256  47.1040611   6.5541282  35.8704872
  46.3861961   7.1106439  36.1724663  47.1871529   6.7551622  34.9383316
  29.6004372  21.1192932  72.6096344  29.1277256  21.0257301  71.7825775
  30.1065617  21.9251518  72.5063858  40.1442566  44.0274200  52.9875488
  40.5578041  43.2953072  52.5301361  40.5780373  44.8050423  52.6363068
  41.1536789  66.1477356  69.3140259  40.7492523  65.3464966  68.9813309
  40.4196243  66.7454224  69.4560318  21.2960205  13.5378036   1.7623330
  20.3838768  13.8108988   1.6641254  21.2693844  12.5836477   1.6908627
  84.3855743  68.1093903  81.5526428  83.6902390  68.1666260  80.8973083
  84.5466690  67.1708374  81.6495743   6.5026531  53.7602730  31.8003540
   5.5715170  53.6864624  31.5911446   6.6156025  53.2216415  32.5835190
  17.5843658  57.8468895  63.5699463  18.1689625  57.4285622  64.2019958
  16.7066212  57.5781784  63.8412209  41.3726730  44.1108093  87.8797226
  40.5309601  44.5665970  87.8763885  41.7862816  44.3655853  87.0549545
  18.7463818   6.7438211  69.9461060  19.5358219   6.9933028  70.4264984
  18.0478020   7.2593684  70.3491287  54.8124886  22.9307613  34.5943718
  54.2692680  23.4515190  34.0027962  55.6969757  23.0064335  34.2363358
  43.6135559  50.7643890  68.0441513  44.2363319  50.3943596  67.4184875
  43.9742699  50.5404930  68.9020538  40.1589966  57.3720016  32.5208206
  40.5549698  56.5009613  32.5477486  40.8334885  57.9527168  32.8730431
  51.3821716  33.3292618  64.6838150  51.0565872  34.0409851  65.2348862
  50.6957397  32.6632614  64.7223892  11.1694412  63.3074379  28.1448860
  10.5255356  62.7697487  27.6839027  11.5443611  63.8675423  27.4652157
  43.1637306  53.7505989  79.7186050  42.9000206  52.8518944  79.9161453
  43.9869881  53.8683052  80.1925430   7.2471285  61.4744186  86.6899185
   6.6078358  61.0224304  86.1392365   6.7215858  62.0571518  87.2380600
  86.3780670  28.5992813  45.9672050  85.5191956  28.3919334  46.3354034
  86.9790649  28.5332680  46.7092819  15.1585484  60.9531479  39.7369041
  14.2999868  61.2796173  39.4676056  15.5114965  60.5324020  38.9529228
   5.4632921  61.8116379  57.8486977   4.5269265  61.9411049  57.9993324
   5.8628807  62.6463661  58.0932159  72.1188660   8.6861067  15.1780949
  71.7498932   9.4466553  14.7290325  72.4446106   9.0330658  16.0086002
  67.8864517  29.9490032  74.9445038  67.6021118  29.6549950  74.0790863
  67.9048920  29.1519070  75.4741592  51.1332741  39.6833916  19.6574535
  51.9631844  39.4380684  19.2484322  51.3809929  40.2842064  20.3602276
  21.1276245   4.6720638  70.5892487  21.7767296   5.1134143  71.1370697
  21.6384792   4.0627365  70.0563507  19.6271210  70.0521774  42.6474266
  19.8222084  69.1299210  42.4812469  19.7580223  70.1586761  43.5896339
   9.2463608  33.2182350  84.0611267   9.5456352  33.4198151  83.1745377
   9.2052164  32.2623100  84.0884781  77.5840454   1.3744364   5.7623858
  78.0256577   2.0941048   5.3115115  76.8153458   1.7792888   6.1641679
  38.5236130  44.9491653  74.9050674  38.8491592  45.8057899  75.1815414
  38.4145737  44.4598007  75.7204590  25.9734592  16.8793468  67.6252975
  25.9561749  17.5975971  68.2577896  26.7488689  16.3704453  67.8619156
  26.1871548   8.1276016  19.3838787  26.4812298   8.9719515  19.0420818
  25.6624222   8.3501310  20.1528835  63.5989761  19.5468616   7.0603800
  62.6988716  19.4034595   7.3527513  63.6754723  20.4974346   6.9779782
  69.7788162  13.2027130  26.5956230  69.1070938  13.8482571  26.8153954
  70.5909958  13.7074127  26.5523548  39.6435356  56.1010437  35.5379448
  38.9588661  55.5434418  35.1684303  40.3696671  56.0313034  34.9181824
  33.0790291  41.8949509  30.1904297  33.5627823  42.3370285  30.8881264
  33.6789742  41.8969688  29.4445782  60.0694847  60.0287971  31.2676525
  59.3931541  60.3773766  31.8484287  60.5636711  60.7987595  30.9862766
  20.5720139  57.5564919  36.4976044  20.9608231  56.8122940  36.0380135
  19.6514740  57.3171883  36.6051750  47.4932518  16.1229343  11.6782141
  46.9507561  15.3639069  11.4641848  47.6387901  16.0548763  12.6218348
  74.1266327  41.9366531  86.7658005  73.6081619  42.6555824  86.4044724
  75.0314331  42.2448883  86.7152939  11.2888556  53.3697319  83.7800369
  11.0384865  54.2022285  83.3794098  11.5811863  53.6059036  84.6603699
  68.6256256  50.2880440   6.4870400  69.0460587  50.0391846   5.6639109
  68.0167084  50.9853630   6.2437267  18.3579483  50.6778564   6.3341613
  18.2189426  51.6177559   6.4503512  18.1314087  50.5135918   5.4187775
  82.1674423  52.7070732  10.7230892  82.3697662  52.2974586   9.8819504
  81.6875305  53.5026169  10.4928055  60.0732231  34.9656601  87.5730591
  59.4352531  34.2986221  87.3195114  60.0370102  34.9804573  88.5294571
   8.0255775  66.9521866  71.6539612   7.7600594  67.8495865  71.4529572
   8.0783253  66.5212479  70.8008881  11.2396889  58.4406815  82.7052460
  11.3519869  58.7898712  83.5893784  12.1316147  58.3363113  82.3738785
  68.1408310  53.3971558  83.8946304  68.0186005  53.0695000  84.7856598
  69.0557785  53.2027779  83.6913605  32.2719421  23.3117867  19.8554382
  32.4520149  24.1634007  19.4572449  31.3449841  23.3488445  20.0912495
  15.8906126  14.8719730  18.1133671  15.7034979  14.0034151  17.7572403
  15.2534485  14.9839287  18.8188591  15.2836514  38.6474953  40.5729485
  15.5617809  37.9146957  40.0235138  14.6027098  38.2796135  41.1361694
  54.8402596  42.8275948  86.3895798  55.1718216  43.7033005  86.1909943
  54.6455879  42.4454384  85.5338364  61.9455299  20.8910542  86.4837036
  62.8901062  21.0375271  86.5342407  61.7801743  20.1789646  87.1016159
  69.1809998   5.7995448  39.4668388  68.8654938   6.2989211  40.2200394
  69.2519760   6.4454260  38.7639656  50.6567230   4.8050904   9.5455618
  51.1254768   5.3905559  10.1403131  51.3272324   4.4949660   8.9369020
  64.0749512  20.2212906  80.6100235  64.0255585  20.1832733  81.5651932
  63.8987923  21.1377945  80.3973694   7.6811585  58.9582481  39.0776787
   6.8236966  59.3671875  39.1949844   8.2429476  59.6660995  38.7621307
  48.9384460  17.3792000  26.7560081  48.1971588  17.5008545  26.1627769
  48.8189735  18.0491524  27.4291496  84.6629410  62.1054688  58.9312515
  83.9398956  61.5145645  58.7208366  85.1371994  61.6625710  59.6349182
  76.3313904  52.3153496   8.3249302  76.1943283  53.1588211   8.7562075
  75.4575424  51.9281807   8.2728338  57.3525620  63.9893837  39.2892189
  56.7721481  64.6442719  38.9013062  57.8275032  64.4642334  39.9712601
  83.1327438  49.5416756   3.0042427  83.6336060  49.4527435   3.8150802
  82.4669495  48.8560295   3.0575633  82.7602692  30.8444881  56.0350151
  83.6361694  30.9794579  56.3966980  82.2426147  31.5700703  56.3839989
  57.5515289  13.6219959  59.6632347  57.9644127  14.4769831  59.5417671
  57.8653488  13.3235788  60.5168724  84.7727661  35.3870735  46.5219727
  85.5123978  34.7983665  46.6723137  84.8279343  35.6084099  45.5923500
  24.9055347  27.1764431  71.6555862  25.8338203  27.3233528  71.8370667
  24.8928280  26.4190598  71.0704041  44.4820824   8.3715658  17.8189888
  45.3501930   8.1348419  17.4925270  44.6462975   9.0729227  18.4493561
  54.2039413  42.6105156  72.3050308  53.8943634  42.5124283  71.4046021
  55.1222305  42.3422623  72.2731476  74.0445099  39.1273079  58.6802521
  73.1987457  38.8199692  58.3539810  74.1776810  39.9691963  58.2446823
  56.1489716  63.3405991  15.8428984  55.5997353  62.5878677  16.0619221
  56.9098167  62.9618797  15.4025345  64.8666687   3.4531338  30.3473797
  64.6569977   3.0789595  31.2031040  65.4849777   4.1581950  30.5392590
  19.4503574  60.0491409  36.4336586  20.0443058  59.3447876  36.6931686
  19.3305950  59.9266663  35.4919090  22.8410282  64.1466217   5.2663932
  22.2340717  64.1450882   4.5262356  22.4034824  64.6750870   5.9338527
   0.4334069  52.4439850  49.5340958   0.8908552  53.2086105  49.1843491
  -0.4945038  52.6701775  49.4704590  59.2276917  33.6545868  15.9013481
  58.4347992  33.7990799  15.3849411  59.1544609  34.2707901  16.6301575
  39.3934441  53.0296669  80.7806702  38.4990730  53.2389297  81.0500107
  39.2912521  52.3358917  80.1291656  52.6982689  47.8271980  47.3627205
  52.5426292  48.6759148  46.9483643  52.9020920  47.2393303  46.6353302
  34.6776848  59.0139427  43.8755569  35.2658043  58.3501434  44.2357178
  34.4115868  58.6625481  43.0258827   2.4262371  33.7340050  34.6388741
   3.0206206  33.2183380  35.1838760   2.8342907  33.7338181  33.7730103
  46.9994583  70.0486755  15.6149235  46.2455635  70.4558945  15.1882553
  47.6818085  70.7193680  15.5867128  35.5982437  36.7573051  66.8812408
  35.5592957  35.8224907  67.0833282  36.1095314  37.1358643  67.5964355
  45.1994858  52.4671822  34.4124451  45.6304474  51.7626801  33.9285240
  44.6243706  52.0161972  35.0305786  57.6394119  62.1478271  55.5402298
  58.0353050  63.0189476  55.5656471  58.0257416  61.7315559  54.7697105
  70.6840897  46.5190735  58.5158653  71.2735367  47.2639236  58.3976135
  71.1033783  45.9868088  59.1919746  10.3822641  33.8772125  31.4675064
   9.9637213  34.2663727  32.2353668  11.0451336  33.2885971  31.8285694
  12.4726057  56.1198235  20.8291588  13.1469603  55.4958801  21.0978088
  11.9893370  56.3110428  21.6329746  77.9645233  27.4599953   9.2326059
  77.6770096  26.6549034   8.8020267  78.4769363  27.1601982   9.9834614
  28.8914623  41.7037582  74.0400009  28.6503067  41.7886543  74.9624252
  28.0608578  41.7670021  73.5684891  63.0945168  63.7431564  18.9046707
  62.5517502  63.5377884  18.1434460  63.7512665  63.0471077  18.9253540
  23.7936382  43.4163322  24.6207180  24.6963406  43.6985474  24.4733582
  23.2623596  44.1714096  24.3680706  39.0537491  38.5791626  43.0337410
  38.6693535  39.4151764  42.7700157  39.9514389  38.6134377  42.7032738
  28.7082310   1.6660410  68.8392258  27.8329735   1.7789978  68.4685516
  28.9086876   0.7401442  68.7022400  51.9623718  12.5495081  48.8821449
  51.6295357  13.0625954  49.6184807  52.8982964  12.7483988  48.8552589
  59.0846634  32.7109451  19.2645912  58.8704338  31.8284283  18.9620934
  59.7625694  32.5789871  19.9273605  82.9137039   2.3843625   4.4445014
  82.4186249   3.1577768   4.7146025  83.8078613   2.7031846   4.3217263
  17.3236847   7.8826609  61.9726372  17.7485561   7.2871242  61.3553429
  18.0198269   8.4793825  62.2474861  84.8887863  18.1532784  61.8187180
  85.7226410  17.8066845  62.1361809  84.9603882  18.1134853  60.8650284
  67.3921509  26.3539467  38.3121223  67.6053009  26.1968002  39.2319641
  68.2237549  26.2431717  37.8512573  35.4756317  65.1946411  70.9005127
  35.0014725  64.4355164  70.5612030  34.9910889  65.4481430  71.6861267
   5.1011634  23.7127171  13.7147837   4.9919081  22.8253975  14.0567722
   4.2681942  23.9082584  13.2856474  52.7239532  15.4902554  62.9552994
  52.9052200  15.8176966  63.8362961  51.7877579  15.2909327  62.9617767
  39.1303520  22.8867893   9.3102684  39.1490631  21.9851475   9.6310873
  39.6390610  23.3804798   9.9534760  41.7396469  68.8090973  63.3175430
  42.3362198  69.5435638  63.1730003  41.5437164  68.4832230  62.4391060
   0.0059703  66.0739212  36.4973907   0.0492137  65.2389679  36.0313225
   0.6607652  66.6230850  36.0662346  23.2516098  62.1240807  17.5846958
  22.8027096  62.6648560  16.9348640  23.6255531  61.4026413  17.0788097
  30.9720306  17.8145370  20.1024532  31.7221241  17.2696819  20.3406143
  31.3526173  18.6671963  19.8918400  12.4176054  34.5825348  16.4729633
  12.7324133  34.3416061  15.6017113  13.2112865  34.6531372  17.0033588
  68.4450684  51.4447594  69.9526062  68.4178543  50.9079590  70.7446518
  68.2011719  50.8445473  69.2479858  82.1464157  36.0429993  63.6545677
  81.5057678  35.9329948  64.3572006  82.9928360  35.8975792  64.0772629
  23.6611347  69.2882919  32.9996223  24.5165272  69.3671341  33.4218979
  23.7883930  69.6644821  32.1286926  46.1310997  38.1273537  11.5586319
  46.0640297  37.3281021  11.0361996  46.7851257  38.6572227  11.1028700
  80.6055756  20.4084167  36.6126480  79.9205780  20.2107201  37.2513428
  80.3553314  19.9138794  35.8322372  48.8389778  61.1260719  51.5259018
  48.7407684  62.0216789  51.8491325  48.5449677  60.5758400  52.2518768
  74.1917877  37.4860916   1.8561636  73.5072403  37.2607231   1.2262141
  74.6172485  36.6522713   2.0560694  74.0730667  17.2735291  32.5504494
  73.2076645  17.5509281  32.2498627  74.4411392  16.7923241  31.8093719
  52.8924942  50.0701485  12.0360184  53.6504021  49.5769424  11.7220793
  52.1427040  49.5093193  11.8372316  55.6388550   8.4693975  64.4749527
  56.3321533   8.6697960  63.8461380  55.3899193   9.3201380  64.8362045
  63.1587944  70.5367966   6.6290340  64.0824356  70.7781830   6.6987371
  63.1573372  69.7500534   6.0838146  18.0173836  49.7906227  46.1374550
  18.0424423  50.7258911  46.3396339  18.5610828  49.3849449  46.8127708
  79.8494644  12.1813002  88.4395142  79.8604813  11.2342710  88.3007889
  78.9474030  12.3756170  88.6939850  21.5196648  51.8127327   3.2817667
  22.0696468  52.5957413   3.3072529  22.0874310  51.1107941   3.5998108
  56.0445290  33.1900482  34.1244926  56.2387962  34.1261101  34.1722450
  55.0923576  33.1384888  34.2078362  53.6881752  18.4536152   5.1290746
  53.5526543  19.1213322   5.8013992  53.1979446  18.7733898   4.3716779
  72.5906677  13.8139744  31.8502216  71.7968597  13.8878574  31.3204651
  73.2567825  14.2862415  31.3507290  53.5702438  15.6458998  21.2323074
  54.2723045  16.1854305  21.5959663  53.2912941  15.0923328  21.9616795
  79.8914566   5.6735620  37.3008423  80.4447403   6.3171453  37.7434540
  80.4687424   5.2643743  36.6562195  73.9129791  25.1066704  70.9197998
  73.8786697  26.0354710  71.1486740  74.7658386  24.8125134  71.2396927
   3.5712562  41.6604042  12.1804686   4.5269127  41.6275330  12.1372070
   3.2835667  41.4354668  11.2956696  71.1355209  11.0186701  48.4656334
  71.1223831  10.0666323  48.5640297  71.8532257  11.3078146  49.0291328
  31.9840775   9.3408432   2.3884001  31.7849922   9.8981180   1.6360425
  31.4015560   9.6549673   3.0799398   8.7520037   5.0466738  14.4638882
   9.1447439   4.3858552  15.0342445   9.1906796   4.9272923  13.6215439
   0.0486204  41.2829170  76.7225418   0.4486592  40.8527489  77.4782944
   0.4948363  42.1277122  76.6638489  13.0533066  60.2466774   4.3505793
  12.6280212  60.1541100   5.2031021  12.8038139  59.4565048   3.8714011
  83.0011749  60.2889862  70.9049072  82.1084976  60.6339073  70.9248886
  83.0693512  59.8498650  70.0571136  62.6805725   1.6878566  64.2265091
  62.0285759   2.3336306  63.9542809  62.2334366   0.8457464  64.1419449
  24.6443958  46.4015236  16.6218243  24.8727379  47.3258896  16.7200031
  23.7718410  46.3279877  17.0084400   6.9872303  39.9752808  40.1597786
   7.1371841  39.4866142  39.3504868   7.3646135  40.8387260  39.9916229
  60.8164368  63.0019760  44.2644958  61.2268219  63.2725067  45.0858536
  61.1944008  62.1421928  44.0797081  81.5272675   7.8932052  50.8906136
  82.3007812   8.4009848  51.1357040  81.4403381   8.0295105  49.9471626
  85.5438461  70.2298965  78.6637268  85.9748459  70.6055908  77.8960495
  86.0779114  70.5188904  79.4036484  84.3040237  24.5754070  27.2355595
  84.0341873  23.7348919  27.6056347  83.8396149  25.2280121  27.7596378
  28.1750584  26.4444103  84.6155243  29.1264515  26.5214424  84.6872787
  27.8777447  26.3029957  85.5143204  74.4020462  52.0471191  23.6142368
  73.8949432  51.2838669  23.3376141  75.1062088  51.6847839  24.1519146
   2.6104183  69.6664810  34.0370560   3.4152532  69.9466248  33.6011772
   2.6263452  70.1165466  34.8816948  66.1504211  47.0569382  18.0344105
  66.2279968  47.8984642  18.4839058  66.5787735  47.1961594  17.1898003
  11.5156946  58.2642746   2.7137249  12.3859196  58.4623299   2.3677280
  10.9285345  58.3821106   1.9670058  41.1185112   0.8294954  30.9308243
  40.7622910   0.9819593  31.8060932  40.7918282   1.5619777  30.4083481
  85.2639847  43.7667542  60.1220131  85.3902969  44.6060791  59.6795082
  84.3225479  43.7236099  60.2895470  12.9756432  48.9541054  61.6592102
  12.8619900  49.4781990  60.8663406  13.0851278  49.5984230  62.3585701
  69.6420288  62.7555466  46.8968048  69.7699890  63.6866951  46.7156410
  69.5723419  62.7043839  47.8500938  46.3756561  44.2412453  56.5292969
  45.9992599  44.1802177  55.6513252  45.9462509  45.0014343  56.9216728
  17.9449387  54.1205750  40.5156631  17.8129063  55.0581360  40.6562958
  17.4555073  53.7009888  41.2232170  80.0867386  43.0563469  64.1460114
  80.6881561  42.6174049  64.7475662  79.2683411  42.5663261  64.2255630
  10.6278934  16.9080753  14.1493578  10.1898403  16.5495510  13.3774767
  10.3400507  16.3476925  14.8700161  48.6077156  34.7529221   6.4781594
  48.2180939  35.5769005   6.7705445  47.9409256  34.0925293   6.6665859
  82.2547836  36.5451355  24.1724377  83.0106201  36.0785332  24.5291309
  81.7069397  35.8584251  23.7922726  42.9092140  23.2806568  65.6582565
  42.1788979  23.8595848  65.4398193  42.9823685  23.3364258  66.6110306
  10.1997471  42.9666634  21.7018776   9.8366480  42.2504234  21.1809254
  11.1097183  42.7130661  21.8563805  15.8499146  62.1045837  69.6496582
  15.1077118  62.7090416  69.6500473  16.5877991  62.6315384  69.3429337
  14.5659723  58.2677498   7.0656896  14.1418571  59.0968094   6.8442888
  14.1151962  57.9718208   7.8565488  43.0414238  65.5110779  76.5367355
  42.1741447  65.1519928  76.7241287  42.8964233  66.4529724  76.4470901
  73.0083542  62.4711876  77.6889114  73.8670120  62.8037148  77.9503937
  72.7125244  63.0787315  77.0109711  46.2301598  12.6751661  72.0858994
  45.5662193  12.4503651  72.7377243  46.1078262  12.0318804  71.3877182
  29.0180321  69.1357040  77.5864792  29.7435036  69.4488144  78.1267471
  28.8143711  69.8715439  77.0091553  19.3661880  52.8439522  38.3240356
  18.8238354  53.3111420  38.9595032  19.0815849  51.9324608  38.3904800
  25.2389565  26.7545624  13.5340433  24.6036282  26.9468079  14.2237034
  25.8325157  27.5054913  13.5390911  11.2094593  54.5031815  66.2971573
  12.0532818  54.2117233  65.9518356  11.2438297  54.2856255  67.2286682
  60.7297478   5.1427279  84.0336761  60.5156136   6.0487819  84.2560349
  61.1134453   4.7839961  84.8338776  14.0372057   9.2350454  30.8918953
  13.3780708   8.9522085  30.2580357  14.8578348   8.8667135  30.5645866
  51.7974052  48.0851974  18.5775757  52.0271072  48.0936012  17.6483822
  51.6723251  49.0073357  18.8017292   2.6558599  38.3504105  13.3394136
   2.0323739  38.4788208  14.0542612   3.4254379  38.8570023  13.5989218
  31.5822124  67.3561401  26.6757202  31.0593643  67.1100388  27.4388046
  32.0454254  66.5541153  26.4340038  56.2492828  58.6594505  86.4887085
  55.5837326  58.9630890  87.1060181  56.5650520  57.8367386  86.8624268
  46.1296005  32.3107758  17.2077770  45.2104683  32.5403099  17.0708733
  46.1340904  31.3544693  17.2488995  83.0320053  43.0030060  11.7927914
  82.8131638  43.4204102  10.9596577  82.5999985  42.1497192  11.7539434
  42.9772072  42.4793549  78.5941849  42.4402580  43.2095146  78.2863159
  43.6988831  42.8950310  79.0660248   2.0395367  22.4552479  74.0686188
   2.8907490  22.5285206  74.5002518   1.9530714  23.2677650  73.5700531
  46.9385529  24.0063744   3.5428123  46.3060570  23.3105717   3.3638051
  47.3681831  24.1617241   2.7016723  33.4818077  21.5205765   7.6349721
  33.6033440  21.2020664   8.5294056  34.1249428  22.2233372   7.5415182
  59.5237579   2.6137850   4.5013328  59.4064674   2.0105820   3.7674248
  59.6591988   2.0452242   5.2593737  12.4017305   9.1341429  84.8427963
  12.9294176   8.9343004  85.6159973  12.6181746   8.4407997  84.2193680
  79.9401550  12.5078392   6.8482237  80.8084946  12.5052767   7.2509727
  80.1085129  12.6511383   5.9169064  16.4149818  38.7554817   3.7276373
  16.1565552  38.9905128   4.6188202  17.3107529  39.0823212   3.6439428
   1.4854778  45.7026711   2.0360940   1.0221655  45.2828217   1.3113164
   0.8388399  45.7462997   2.7404997  28.8755703  48.8139420  12.0524025
  28.6268539  48.0065460  11.6024151  28.0816097  49.0859261  12.5127106
  11.5995140  58.3253059  48.7695541  11.9443769  58.5741577  47.9120140
  11.8980970  57.4246445  48.8956108  59.5530319  58.2795486  63.8906288
  60.2824669  58.4099884  64.4965515  58.8241005  58.7567711  64.2870483
  84.3606110  36.4552460  43.7619476  83.9096146  37.2637482  44.0051613
  85.2740326  36.7164040  43.6449356  73.6221542  16.0345459  25.1815567
  74.2414932  16.3832951  25.8226643  72.7848511  16.4355583  25.4146881
  62.6291885  56.3680840  79.6130371  62.4987564  56.5734634  78.6872711
  61.7448959  56.3351135  79.9779587  42.2078018  46.9790955  43.8975563
  42.8105087  46.4542694  44.4243698  42.2486687  46.5872116  43.0252075
  75.2947235  66.2950287  60.5176430  74.9969177  67.1926193  60.6655655
  76.2290649  66.3808289  60.3282089  35.6690750  44.9406471  74.5712051
  36.6168213  44.8068123  74.5810928  35.5612106  45.8778954  74.4094467
  53.7140503  31.6464634  70.8712463  53.8834801  32.3106003  71.5394135
  53.3282433  32.1327477  70.1426086  80.3171234  23.2143288   8.5215139
  80.0971909  22.4202461   9.0086422  79.6522217  23.8498249   8.7866116
  14.4733734  24.1958160   7.3683558  13.7323017  23.6268692   7.5765471
  14.8729076  24.3887310   8.2165232  51.1500359  56.6538925  88.3560333
  50.2579117  56.7469749  88.6902237  51.6391602  56.2686234  89.0830536
  55.4626503  15.5981159  47.0896034  56.4039307  15.4859228  46.9567986
  55.3836250  16.4336243  47.5499458   9.7149363  50.2069702  12.5760546
   9.6691208  51.1519356  12.7215691   8.8092136  49.9461517  12.4091082
  67.7673950  28.2924900  31.1344471  67.2282104  28.2412815  30.3452091
  67.7982941  27.3936596  31.4621410  85.8817673  25.5789890  57.5122566
  85.3694534  25.9290009  56.7833824  86.3689041  24.8474331  57.1331024
  77.4623795  57.4177246  79.2964478  77.8742828  56.8340645  78.6593399
  77.7447662  57.0814018  80.1469650  25.8375874  57.0056877   5.5617418
  25.7663689  57.9182587   5.8416920  26.5538120  56.6491547   6.0872283
   5.0043464  57.8943901  22.8504181   5.1182427  58.7867851  22.5234776
   5.5239415  57.8654976  23.6537971  60.8559952  51.0325699  34.4520416
  60.8955574  51.7316704  35.1046715  59.9377899  50.7622147  34.4460220
  51.7421570  51.1076050   3.8099713  52.0291519  50.8545685   4.6873760
  51.4445114  50.2903328   3.4103410  31.3216553  48.1447563  38.0320625
  31.5209293  48.5357933  38.8827171  30.6901093  48.7444191  37.6348381
  17.9978466  56.5234528  28.4288445  17.2848492  56.5627937  29.0662746
  18.2161922  55.5932999  28.3708153  37.8418884  47.3331833  70.5699692
  38.6263237  47.2658539  70.0255814  37.1742439  46.8435364  70.0896301
  68.5332031  19.0170593  63.9523811  69.3690796  18.6012745  64.1637192
  68.6545639  19.3630028  63.0681725  83.2423019  44.7488098  15.1674070
  83.1371994  44.8920822  14.2268448  83.7573090  45.4977074  15.4676781
  36.2842903  58.6356430  46.8316460  35.5560837  58.0525169  47.0459023
  37.0676765  58.1098785  46.9932289  55.8831100  62.4967804  28.4180756
  54.9721146  62.7689743  28.5286579  56.3878365  63.1432762  28.9115601
  82.3618774  39.7186394  51.6848030  81.4202576  39.8656921  51.7739601
  82.6299286  40.3049698  50.9772758  85.5954819  15.4389868  18.0811272
  86.2581177  14.7634335  17.9369850  84.8028412  15.0873613  17.6757755
   8.9531355  52.3256378  69.7844009   8.2739058  52.8612900  69.3745728
   9.6120024  52.9559479  70.0756607  23.1148109  47.2294655  37.2734070
  23.5941906  47.1830330  38.1006126  22.2841492  47.6470757  37.5010834
  11.5356693  50.7382050  69.6709137  10.7084827  51.0058250  69.2704468
  11.7998257  51.4905243  70.2005157  16.7035542  13.0755291  29.3989334
  16.1436653  13.8518896  29.3943329  16.3657856  12.5408955  30.1174812
  48.8721504  64.2610779  79.7281342  49.5223579  63.8887520  80.3238144
  49.0633430  63.8567581  78.8818436   9.0696583  10.9511604  70.0672073
   9.1180172  10.1668892  69.5205688   8.5602589  10.6798286  70.8308334
  80.1410446  59.9330215  11.9159460  79.6958389  59.9366150  11.0685902
  81.0478363  59.7067986  11.7091141  36.0374718  66.2057266  13.4962664
  35.3243484  65.5776520  13.3813572  36.1967773  66.2172012  14.4400473
  21.0343246  71.1630859  25.6757927  21.1284962  70.4393158  26.2950859
  20.9647694  71.9424973  26.2270718  82.8516922  25.2574596  30.1046543
  83.0309677  25.4825554  31.0175762  82.5629578  24.3453541  30.1351223
  24.6297188  31.2254906  88.1497574  24.2506924  31.2306919  89.0287018
  23.9031620  30.9797802  87.5770645  61.3933334  19.7767162  81.8393631
  60.9048996  19.8721199  82.6570129  62.1117249  19.1829109  82.0573959
  18.4209805  58.2583885  16.6880341  17.6414871  58.7412148  16.4132576
  18.1432819  57.7797012  17.4690437  52.1874313  35.5864944  68.2154083
  52.2465668  36.2426453  67.5209961  51.2783356  35.2882805  68.1863556
  16.7407417  30.1623249   3.5128438  16.5657616  29.6747684   4.3177676
  16.5768414  31.0761375   3.7459037  31.6557274   7.3152266  11.1154232
  32.0623856   7.2216287  10.2539711  31.1725311   6.4987168  11.2421732
   5.1130695  17.1192703  71.8877563   4.8107247  16.7987843  72.7375259
   4.5199957  17.8410664  71.6791687  65.3758545  44.0477562  87.3661804
  66.0765305  43.6440620  87.8783569  65.4258957  44.9785538  87.5837631
  80.7325821   4.5522299   5.1961784  80.0259018   4.6109371   4.5532269
  81.2403870   5.3533988   5.0677643  34.9256210   4.0231681  82.4355698
  35.7380486   4.4124045  82.7591324  35.1854553   3.1604373  82.1124420
  56.7322426  53.6091652  65.3637009  57.5374870  53.2972450  64.9507675
  56.8055916  53.3266792  66.2753220  47.0070496  49.5037231  61.9382820
  47.0052338  49.1963921  62.8448029  47.0042305  50.4583054  62.0090027
  84.0489273  56.0202904   9.6934910  84.2246933  55.8539238   8.7673922
  84.8873749  56.3176575  10.0467634  14.2683506  64.9262085  24.5282269
  15.0399456  65.4630432  24.7090130  14.4816895  64.4658585  23.7165661
  49.8129005  62.2640915  13.3290863  50.5692024  62.1855087  13.9105177
  49.0965118  62.5349579  13.9032402  50.5866814  28.9150124  84.8824997
  49.9679070  28.1850357  84.8605728  51.1554451  28.7696686  84.1264496
  36.7273712  32.4415207  70.2644119  37.6571426  32.3914948  70.0424805
  36.2993279  32.6957092  69.4468536  37.9029655  45.2805138  38.5468788
  37.0371399  45.5831032  38.8207741  37.8593063  45.2633095  37.5908279
  43.1034088  16.0841408  70.5757904  43.8813477  16.1403942  71.1306610
  43.2407112  16.7505684  69.9025497  27.4988003  56.7283325  79.4826431
  27.1859875  56.2215424  78.7332840  27.6978245  57.5920944  79.1213455
  46.9893646   9.9159565  22.2144527  46.1263504   9.7559986  21.8325520
  46.8124733  10.1019907  23.1365871  59.7532234  52.5979042  23.9779949
  60.1995773  52.4246826  23.1491413  60.4433479  52.5385780  24.6386337
  33.0935059  66.4565430  17.9435558  32.8432617  67.2305222  18.4481068
  32.2838020  65.9528961  17.8601646  12.7417469  13.6718931   8.6637917
  13.2286739  14.3522625   9.1287994  13.2405720  12.8702736   8.8213072
   0.2823866  36.9850693  43.3799438   0.8768182  37.1954422  42.6597862
   0.6246583  37.4789047  44.1250687  68.7064972  29.5267525  15.6099110
  67.8292389  29.3652992  15.9571619  68.6607513  30.4104843  15.2450056
  37.2566185  44.4392967  59.7583237  37.3786087  44.4003448  58.8097267
  36.6775856  45.1891899  59.8947525  11.2017632  61.6420441  33.2960014
  11.6257639  61.8670654  32.4678574  11.8717318  61.8046303  33.9600334
  58.8530464  49.3267784  44.2524490  58.3506088  48.5799408  44.5780563
  58.3599701  50.0931587  44.5453186   1.6924297   8.2149925  29.3827343
   1.1190265   7.4981446  29.1114979   2.5776176   7.8652363  29.2810268
  54.3377647  20.0768871  57.2118988  53.7534332  19.8993111  56.4748421
  54.4230347  21.0301819  57.2256737  82.2821960  29.7461910  63.5311775
  81.9399719  30.6280403  63.3846970  82.2281036  29.6226311  64.4788284
  73.9236526  67.9058228  33.6563988  74.6511612  67.2992783  33.7944908
  73.4810791  67.9459839  34.5041924   4.6381655  39.8650742  67.1658020
   4.3494825  40.7648354  67.3185272   4.5328374  39.7364845  66.2231445
  51.4551926  26.1541882  83.6070175  50.5825348  26.2425308  83.9902878
  51.2927399  25.9465408  82.6868362   6.7035403  30.5484810   4.9645410
   7.1703734  29.7161922   4.8897467   6.2971001  30.5181332   5.8306341
  75.2490005   2.3510585  54.5187988  76.1718140   2.1166346  54.4203873
  74.8455276   2.0880322  53.6915970  66.1166611  46.2998848  68.4347687
  65.9920883  47.1738815  68.0648499  65.4542999  46.2343254  69.1226807
  73.4278641   9.8917265  86.0694733  73.7357635  10.6279984  86.5979919
  72.6697159   9.5547304  86.5468445  41.9151535  39.5345306  64.2934341
  42.1137810  40.4509048  64.4858932  40.9639053  39.5124397  64.1891479
  40.5309677  10.3445854   4.9842081  39.6175766  10.3499403   4.6979899
  40.5678139   9.6626062   5.6548629  24.8186378  53.2786331  26.9607773
  25.0127296  52.3466148  26.8612766  23.9336109  53.3777733  26.6098766
  48.2515182  10.6118584  53.8799896  48.4399605  11.4045858  53.3776932
  49.1086693  10.2118711  54.0267220  21.6759567  63.1991920  47.8217964
  21.1919346  62.4084396  47.5837555  22.4923515  62.8749352  48.2020454
  77.0761719  48.2469215  34.2086754  76.5379181  47.6460571  33.6934433
  76.4585419  48.6707573  34.8045998  26.5079212  18.2541542  84.7843399
  26.7348042  17.5883045  84.1351852  27.0134792  19.0242367  84.5243149
  11.6376314   3.3810179  70.8418274  12.1057777   3.1230674  71.6358871
  12.3282461   3.6192558  70.2233353  16.6762714  22.1438618  57.3700142
  16.4021149  21.6697025  56.5850029  16.7477455  21.4687920  58.0448532
  37.7356033  36.8081093  17.7392540  37.7947159  35.9620781  17.2954445
  36.9328804  36.7511253  18.2575397  68.4838181  40.9623528  27.1665401
  68.5056915  41.6441498  27.8380394  67.5523987  40.7841682  27.0363750
  75.9354172  10.2122726  19.7588768  76.7531891  10.0466862  20.2279835
  76.0783691  11.0488672  19.3162632   4.1268315  67.4379578  12.7827349
   3.1902058  67.2406845  12.7758207   4.3881907  67.3271713  13.6968727
  51.5721436  46.3759995  24.4124317  51.6708946  47.2893333  24.6813107
  50.6436729  46.2889099  24.1965961   3.3501778  18.4425449  25.0295143
   2.5956323  18.7712650  25.5182228   3.7089262  19.2158413  24.5941486
  65.8628235  42.2126122  36.6834183  65.9034882  41.7106590  35.8694038
  65.4578781  43.0429420  36.4328194   2.4337342  22.9145260  24.5256920
   2.2116387  23.3654957  23.7111168   3.2890069  23.2682915  24.7698021
  50.1420593   7.9841204  87.1699142  50.0486870   7.2247252  87.7450943
  51.0426865   7.9328189  86.8498001  11.1575909  21.4626579  10.1627817
  11.5266533  21.8250275  10.9682093  10.2523928  21.7737064  10.1529722
  79.0979996  42.5035667   1.1701444  80.0488510  42.6136055   1.1687890
  78.8569489  42.4916229   0.2438697   8.4543257  41.1236229  20.4445343
   8.1061192  41.3875046  19.5928593   7.7554989  41.3328896  21.0642757
  65.0850601  53.7027779  17.8583660  64.2085495  54.0743713  17.9577942
  65.4312057  53.6637421  18.7499313  46.8774567  28.1556625  72.2902374
  47.3001137  27.2968311  72.2908859  46.7830048  28.3768215  73.2167358
  60.8187256   5.1040230   4.2166662  61.4720764   4.7129612   3.6366346
  60.2343445   4.3800979   4.4417462  61.6979713  17.4425983  66.7098618
  62.3205376  18.1495972  66.8795547  62.2459717  16.6749725  66.5465240
  60.6049423  49.1119652  86.4178314  60.5460434  48.2152977  86.0880585
  61.5038223  49.1911545  86.7371750  79.6685028  53.4614105  34.0894508
  79.2468491  53.3548622  33.2367592  79.5988617  54.3977165  34.2757645
  43.3254890  42.3226547   8.5720644  44.0658073  42.0816689   8.0152082
  43.5548172  41.9812431   9.4364014  41.3460922  11.8525620  84.6990814
  41.6306496  12.6927013  85.0588379  41.1389923  12.0417147  83.7838974
   1.2864850  34.2327728  25.4353867   0.8741691  33.9111023  26.2371082
   0.7935929  35.0225525  25.2128181  77.6231766   9.1077671  83.7971802
  76.9173050   9.0357246  84.4396667  78.4103851   8.8487406  84.2761765
  64.6208496  11.9840794  74.1940689  64.7033920  12.6080837  74.9152069
  65.4654007  12.0236034  73.7452850  69.7785339  53.8193321  75.2895432
  69.6724777  53.3585968  74.4572525  70.3936844  54.5264626  75.0951614
  49.0060577   8.6975403  28.3431778  48.6041260   9.5039139  28.0200005
  48.7688713   8.6664581  29.2700043  85.0400772  50.7359848  66.3561325
  85.4255066  50.4341774  65.5335770  85.3120728  50.0836449  67.0016556
  76.7671051  46.8736839  72.9866714  76.3751602  47.7465172  72.9588852
  77.4038925  46.8742142  72.2720108  26.8177891  54.9026108  26.5065079
  27.5544853  54.4006767  26.1578350  26.1412315  54.2474747  26.6776733
   2.2426424  30.9380150  85.2934952   2.5717590  30.4673595  86.0592575
   2.8433163  30.6974831  84.5881042  27.3752861  29.6301975  86.7271805
  26.7234249  30.0791912  87.2654343  26.8696060  29.2402515  86.0141220
   3.6499062  62.3901939   6.5499969   2.7752023  62.0205154   6.4297299
   3.4924016  63.2862320   6.8475456  58.4626656  51.7221909  55.5649109
  57.9508171  51.0031815  55.1944122  59.2325478  51.7843208  54.9995308
  79.3599854  25.2714081  80.8793793  78.5004959  25.4320011  80.4898605
  79.1734314  25.0689831  81.7961426  33.7073860   1.6215838  11.0288029
  33.9344864   1.9230558  10.1491594  34.0068054   0.7128052  11.0552769
  57.8167305  36.2056541  69.0847855  58.7226562  35.9473610  68.9150391
  57.4594116  36.4082260  68.2201996  46.7905121  54.3290596  24.0344601
  47.6999016  54.0583000  23.9082355  46.2774353  53.6714935  23.5647888
  31.7254429  27.1466846   3.0810802  32.3138351  27.7030334   3.5914774
  31.6407394  27.5957756   2.2400248  31.7143688  57.5792923  22.9713745
  31.3980579  56.7032394  22.7506695  30.9817429  58.1584206  22.7613735
  85.0068359   9.1184502  62.8124352  84.1535416   9.5432034  62.9002228
  84.8005600   8.1984940  62.6470184  55.3057289   7.4355578  37.1597748
  54.6820030   7.6428428  37.8556442  55.4621353   8.2719564  36.7213631
  32.2416115  44.4726715  73.5599518  31.6361122  44.0941849  74.1974106
  32.5933113  45.2491531  73.9954071  38.3157768   1.8214576  67.1447296
  38.2731590   1.1518066  66.4621048  38.5631561   1.3420500  67.9354324
  52.3014183  46.8823242  78.2608032  51.9032936  46.5360146  77.4621811
  52.8940620  47.5688553  77.9547272  78.3152008  60.6387024  16.1810837
  77.8359604  60.9914093  15.4313116  79.1445160  61.1166763  16.1816235
  56.0556145  36.6711502  29.3049355  56.6755981  37.3945084  29.3977222
  55.9088554  36.6009941  28.3616600  16.5864124  68.0761032  19.1340332
  16.7835617  67.5222855  18.3786182  17.3488998  67.9825821  19.7050838
  71.8431473  52.8033371  88.8867416  71.6692047  53.6329041  89.3314819
  70.9771194  52.4748955  88.6451721  10.9819756  65.1236420  35.8015518
  10.7808132  65.2404099  34.8730431  10.1446648  65.2550201  36.2463913
  12.5358810  23.6891003  81.2805405  12.0383244  24.2042046  81.9156265
  13.2920218  23.3683681  81.7720795  73.4469681  19.8034039  73.5183868
  74.1866760  20.1620998  73.0280762  73.2449188  18.9781876  73.0774536
  63.6667519  70.9734573  71.1353760  63.5213356  71.3253708  72.0135803
  63.3375740  71.6532745  70.5473938   0.8981656  41.6260223  31.0505676
   0.0010830  41.3486366  31.2363949   1.4380832  40.8785896  31.3075924
  61.6767921  44.4595718  70.9949188  61.9079857  44.5489006  71.9194717
  61.2356529  45.2808723  70.7779083  49.4373894  51.5811310  71.2168274
  49.3430252  50.7795753  70.7022018  48.9390755  51.4124146  72.0164871
  51.6447525  57.1558495  17.1457138  52.5342445  56.8078690  17.2085114
  51.7611694  58.0590973  16.8510551  22.5833645  10.9690857  76.9529724
  21.7723694  11.4226713  76.7232361  23.0335541  10.8453331  76.1173630
  70.9036255  48.1478195  42.3134689  71.7278976  47.8511353  42.6991959
  71.0770035  48.1790314  41.3726196  15.1604519   6.4851823  62.4193687
  15.3897467   5.6150641  62.0929489  15.8612251   7.0533447  62.0994644
  57.6059380  23.8801270  66.2089539  56.7761230  24.3441811  66.0980759
  58.1244698  24.1306324  65.4443665  44.5851479  69.7432861  71.5140152
  43.6603012  69.9179916  71.3397293  44.8805809  70.5000229  72.0202713
  72.6433640  27.2142124  81.1472778  72.1420593  28.0284100  81.1024704
  73.4098129  27.3742390  80.5966492  64.4315720  38.2026634  20.2988777
  64.5690231  37.5988960  21.0288162  64.7257080  39.0508499  20.6309853
  22.0021114  58.1925774   1.2564093  21.5340061  57.4880524   1.7044644
  22.8258972  58.2760658   1.7366575  74.7437820  61.3176689  45.9602394
  75.5128250  60.8982582  46.3461113  74.0985336  60.6143761  45.8876572
   7.7602854  65.3904724  85.8862152   8.1575336  65.5700455  86.7383804
   8.1910172  64.5905075  85.5849609  21.6054192  47.2649574  66.8144302
  22.2188015  47.2544861  67.5492020  20.8091812  46.8626289  67.1613770
  65.7220306  70.4444275  65.2221146  65.3015213  71.2212677  65.5907974
  66.3586807  70.1789627  65.8857651  21.8289719  25.1761379  46.4187279
  20.9133930  25.1686974  46.1396370  21.9614716  26.0516853  46.7821693
  17.8762035  16.1539841  88.6265717  18.1903782  17.0119934  88.3413620
  16.9938831  16.3201714  88.9584198  13.7354145  58.3048477  81.0435410
  14.2649679  59.0700378  81.2677994  13.0334206  58.6523056  80.4933472
  16.8114414  53.6063957  57.7471848  16.5077381  53.2883873  56.8969688
  16.4227123  54.4771805  57.8299904  68.0060577  62.4887123  61.4149284
  67.0582199  62.6219292  61.4245377  68.3626404  63.2750511  61.8281517
  22.8016090  32.9816589  12.5159597  22.5125732  32.5128822  13.2988644
  23.3819313  32.3657646  12.0685968  75.7076416   8.7808199  47.6673927
  76.6554031   8.8768606  47.5738449  75.4889069   8.0234089  47.1245155
   6.4976110  27.7021427  77.9810791   6.6834731  27.1283016  77.2378464
   7.2202125  28.3298836  77.9855728   4.6342254  67.0952454  70.2638245
   3.7559278  67.0770187  69.8836975   4.4978714  67.3766479  71.1685028
   1.2208352  51.6444855  36.4096489   1.2447194  52.5377045  36.7528992
   0.7689341  51.7227669  35.5694771  23.9866962  42.8405190  64.5868912
  23.1379547  42.4264832  64.4305496  24.5649300  42.4581413  63.9268417
   2.3785496  45.5852356  23.9037743   3.1383803  46.0657578  24.2323895
   2.2932186  44.8380699  24.4959698  42.9986496   0.6652508  24.9119072
  43.0779381   0.1752709  25.7303600  42.2753677   0.2425833  24.4488220
  82.4494247  68.7899628   5.2325521  82.7972641  69.6220932   4.9119291
  81.6550903  69.0302811   5.7095318  26.7592239  22.8996391  83.1904984
  26.9779472  23.7515907  82.8129120  26.4829350  23.0980110  84.0852280
  26.9506817  52.1118927  72.6766663  27.3532505  51.2475395  72.7606659
  26.2437229  52.1105881  73.3219833  15.2261019  47.8825684  45.8955803
  14.9772520  48.6701698  45.4118576  16.0618629  48.1068535  46.3047638
  82.1098785  30.4758797  21.1893101  82.4523392  30.0316010  20.4137001
  82.8488998  30.5003834  21.7971611  40.9039612  42.6284027   9.9243269
  41.2798653  43.1589775  10.6267643  41.5490913  42.6735191   9.2186327
  14.0878763  15.7920246   9.9915161  14.3265343  15.2512360  10.7443914
  14.4162741  16.6643124  10.2094641  64.8524017  21.0748730  64.5191269
  65.2909698  21.5660534  63.8244171  65.4912796  21.0449314  65.2312927
  80.0234604   6.7232556  56.1893120  80.1950302   5.7970648  56.0191154
  79.1648254   6.8836675  55.7978554  57.7324791  18.0894756  45.4674225
  57.1145554  18.1366196  44.7379150  57.9261513  19.0032196  45.6766930
  77.3018951  30.5516338   1.0538824  77.8252869  31.3105068   0.7961862
  76.5397720  30.5787106   0.4753796  52.5779915  62.8667450  61.0072670
  52.1671295  63.1155739  60.1793137  51.8570137  62.5344925  61.5420876
  41.4934464   6.6598563   4.5094237  41.7893295   7.2030468   3.7789259
  42.1512794   6.7963600   5.1912231  73.4325562  41.7905312  41.2670097
  73.7954025  41.7682648  42.1524925  74.0434189  41.2706451  40.7447128
  63.9746361  69.4546814  35.7040977  64.2142181  68.8895493  36.4385719
  64.4110794  70.2861938  35.8893929   5.5938520  56.3484917  74.0830917
   5.1214247  56.9973526  73.5615387   5.3635101  56.5554733  74.9888153
  48.5402107  26.2600460  59.7143326  49.4436874  26.1361847  60.0052223
  48.2800255  27.1002026  60.0920525  71.0637894  47.5256195  61.3688049
  70.1348419  47.4230156  61.1619987  71.1305466  47.2903557  62.2942352
  43.2093277  57.9340439  65.4132996  43.1891556  57.0208664  65.6995392
  42.3683205  58.0665550  64.9758377  84.5896683  47.5681076  24.3075314
  84.7894592  48.1054001  23.5409603  84.4729614  46.6849976  23.9572105
   1.7439771  69.6489410   7.8865151   2.1528714  70.2754898   7.2894597
   1.1193063  69.1709213   7.3410635  23.2723522  71.5213089  68.4378281
  23.8619270  71.4396973  69.1874771  23.1183949  70.6199112  68.1549606
  28.7412109  35.0607758  23.0522614  27.9047318  35.4772110  23.2599010
  29.0515385  34.7160873  23.8895912  28.2808628  49.4029427  23.6151848
  29.1074657  48.9218178  23.6536255  28.1386185  49.7066994  24.5116959
  66.8987503  42.8313370   9.3548374  66.4520493  42.3709145  10.0652580
  67.6169815  42.2493362   9.1065454  32.0637627  45.8039474  76.7350616
  31.4596024  45.0644569  76.6689301  31.5853786  46.5390930  76.3517380
  76.8922806  17.4957962  22.0012112  76.9010239  18.4266624  21.7784061
  77.2482452  17.4586544  22.8889828  47.0177002  71.5956955  79.9327240
  47.1601791  71.2438583  79.0540085  46.0699348  71.5493393  80.0585175
  21.1531029  15.8818398  55.4276772  20.2640762  16.1762371  55.6256523
  21.1410217  14.9426374  55.6120300   6.9701266  33.5336304  10.9363871
   6.4423366  33.7355614  10.1637974   6.9585185  32.5780792  10.9913092
  78.4615631  53.5282364  43.1858444  77.9107285  52.7998695  43.4727211
  79.0282440  53.7097435  43.9356155  63.0533752  18.6971607  78.2418900
  63.2100449  18.6429558  77.2991562  63.7889977  19.2092171  78.5778885
  48.3334808  56.0167618   9.7029390  49.0023384  55.5821953  10.2320995
  48.5529289  55.7836571   8.8008661  57.6305351  70.2176437  64.8484344
  56.9178429  69.9607925  65.4335251  57.2207985  70.2820129  63.9857597
  46.3050308  -0.2522584  73.9835587  45.5621262  -0.0925874  74.5656509
  46.2574997   0.4511338  73.3360977  26.5104694  62.6835365  23.3174629
  26.2922192  61.9525185  22.7393551  26.4447594  62.3188286  24.2000160
  10.0389662  43.9960442  37.4833984   9.5678358  44.2762451  36.6986961
   9.4465427  43.3771210  37.9102440  58.8649635  22.1943836  75.6820984
  59.6423302  22.6903210  75.4252396  59.1483154  21.6791630  76.4374084
  20.4301376   7.1742058  72.6181870  21.0438671   7.3305049  71.9004517
  20.4066677   8.0022144  73.0978546  63.2041969  10.3447447  76.1406403
  63.4391708  11.1633759  75.7037582  63.2813950   9.6782207  75.4579849
   0.2416097  42.4393806  70.8987808   1.0842043  42.0404549  70.6817017
   0.4556624  43.3456726  71.1202545  20.5246410  21.9988422  13.1729736
  19.6571102  22.0303669  12.7697039  20.3891048  22.3340530  14.0592556
  81.6397095  62.2662926   0.9005420  81.3352127  61.3805695   1.0980610
  82.5516586  62.2764397   1.1911973  46.3134460  64.1883621  26.3255939
  46.5593300  65.0109406  26.7488403  46.0082664  63.6321068  27.0423031
  82.0313416  68.8581543  43.5478706  82.8243408  68.5734024  43.0936737
  81.6802216  68.0589752  43.9406319  41.0100899   0.3855078  38.3541718
  41.3476486  -0.4495063  38.6782646  41.7124786   1.0118635  38.5289841
  27.9623470  32.8055305  78.9757309  27.6256294  32.1306572  78.3863220
  28.3722763  32.3171844  79.6896744  42.7823677  68.2696304  54.4571304
  42.0460854  67.6582413  54.4752769  43.4790611  67.7922211  54.0066490
  66.8991928  67.5353851  79.2367554  66.8939667  66.5810623  79.3107300
  66.0828705  67.7449112  78.7829361  28.6616402  27.5613918  13.5648098
  29.4039974  28.1509361  13.4322405  27.9128838  28.1439724  13.6920729
  59.3258705  55.5989723   5.4517217  60.0333595  55.0112953   5.1865277
  58.8871384  55.1381950   6.1668663  46.3933411  65.9165039  36.9384308
  46.7852898  65.1967468  36.4439087  46.5766106  66.6955795  36.4133720
  70.6034927  31.0448971   2.1463943  69.9561462  31.2949772   2.8056653
  70.3144989  31.4860020   1.3475568  62.3373756  61.7417336   3.1271467
  62.8480415  61.5501137   3.9137430  61.5296631  61.2401619   3.2378728
  55.9589729  22.3979950  71.7430573  55.9859810  23.3472500  71.6229935
  55.0325394  22.1722565  71.6594009  14.7063322  31.8406487  14.6365747
  14.5945921  32.1376762  13.7335129  14.9366484  32.6325722  15.1224203
  25.5988884  17.1580467   6.7550583  25.2039471  16.6218319   7.4426107
  25.2255058  16.8179874   5.9419298  16.3397312  62.8570518  63.7536201
  16.9991283  63.4984016  64.0183792  16.8392735  62.0610428  63.5718079
  12.1086731  56.5019302  26.8987122  11.2232094  56.6852837  26.5847569
  12.6789131  56.7744827  26.1798439  74.0131378  24.6157703  28.5474949
  74.3350754  24.1164150  29.2979794  74.3746643  25.4934387  28.6709042
  55.6076660  60.7302628   2.9014142  56.2011337  60.5428276   3.6286643
  55.2285194  61.5827522   3.1152861  84.3927002  49.1174736   5.5044851
  84.3779526  48.5290222   6.2592959  84.9672394  49.8350372   5.7713909
  12.3321152  42.2954445  56.6316872  12.9209929  41.7244911  56.1382637
  11.4587994  41.9414177  56.4637146  72.5080185  34.4424019  33.6381493
  73.3695221  34.7285461  33.3345528  72.3892441  33.5789566  33.2424431
  55.4773750  61.8775673  38.7107162  56.0004044  62.6706772  38.8275490
  55.5028534  61.4459038  39.5646744  13.4797525  69.5159454  37.6683846
  14.4059114  69.4913177  37.4278526  13.0850525  68.7966385  37.1753883
  49.0333481  31.1276627  72.5355835  48.6154861  31.6329479  73.2329407
  48.3067780  30.8244038  71.9911880  54.6239967  40.0366096  16.8024788
  53.8744011  40.6257324  16.8877735  54.4374771  39.5240059  16.0159187
  10.3016443   6.5263348  16.3499241   9.8857489   6.2182546  15.5447226
  10.6458769   5.7330661  16.7603645   5.1204467   3.8725972  59.7037163
   5.7777500   3.1773474  59.7322197   4.4477329   3.5419478  59.1084366
  53.0509415  13.0290108  82.5358505  52.9324722  13.9725485  82.4266052
  52.9090691  12.6669493  81.6611938  13.8682127  57.1812859  39.6526031
  13.5533485  57.8260689  40.2861252  13.8564100  57.6434631  38.8144608
  79.3673172   7.3785868  71.2706528  78.9730682   8.0978289  70.7771988
  78.6575012   6.7457809  71.3800049  24.1907043  22.0250645  48.2076645
  23.4362984  21.5244408  47.8970490  24.2322769  21.8384399  49.1455727
   5.5434442  56.7194366  17.5788746   5.9816413  55.9901886  18.0175228
   4.6621981  56.3939133  17.3953800  58.8199348   2.6952517  40.4348984
  58.9342880   2.0078990  39.7786217  57.8779488   2.8650744  40.4422340
  49.9267006   4.9883490  33.3197060  49.0439644   5.3549461  33.3708687
  50.4286003   5.6398554  32.8299446  20.1634789  19.1849384   4.5547562
  19.3358879  19.2368317   4.0766020  20.8321114  19.1355076   3.8715880
  46.8097382   2.2188904  60.9202766  47.4772949   1.5656252  61.1296730
  47.3055649   3.0144260  60.7265968  56.9629631  38.2981453   5.1933184
  56.0860863  38.3487701   5.5737882  57.5447960  38.5977669   5.8918381
  53.3855629  40.4095955  66.6749191  52.4389992  40.5320320  66.6023788
  53.5665131  40.4908867  67.6113358  71.3138428  21.3117714  16.7094517
  71.0836868  22.0311699  16.1214676  70.7171402  21.4087620  17.4515934
  15.2527905   8.6895504  24.5356159  15.2126007   7.7432976  24.6742611
  14.4740067   9.0294752  24.9762726  26.5151730  17.3808708   2.3232584
  26.1142044  16.7615032   1.7134720  26.2029877  18.2381649   2.0337431
  55.3525696   1.5908102  25.1622181  54.6956978   0.9876734  25.5100307
  56.1787643   1.1129174  25.2346992  48.0457191  25.2438583  67.5047379
  48.6662712  25.0808220  66.7944107  48.2160454  26.1480217  67.7687607
  33.3792877  43.9191513  18.5524044  32.7736053  44.1459694  19.2580452
  34.2259598  44.2554550  18.8461437  76.2060852  28.8407764  57.6797142
  75.5189819  29.4268551  57.9969292  76.1230698  28.0577202  58.2239265
  14.5847120  16.1339321  64.4699402  14.9760237  15.9904737  63.6082382
  13.6469698  15.9998598  64.3324738  60.4282990  31.5531693  80.0150986
  61.3792534  31.5009689  79.9192276  60.0866699  31.2923489  79.1598282
  67.9388428  18.3017979  38.4640732  68.8596191  18.0602264  38.5643044
  67.4990234  17.4815922  38.2403450   3.8221471  50.6284904  18.8035011
   2.9468653  51.0098991  18.8716183   4.1144443  50.5362320  19.7102985
  -0.2350313  40.6242065   6.1390977   0.1002630  40.2436790   5.3273044
   0.4545932  41.2229767   6.4256725  40.2996559  16.1563225  70.7229385
  40.1010170  15.7813444  69.8649368  41.2536659  16.1132774  70.7880859
  70.8170166  26.1793404  68.7028961  71.7550888  26.0082684  68.6193314
  70.4099045  25.3149033  68.6459579  56.8272324  52.3224182  68.1526031
  56.1992035  52.3073921  68.8748169  57.6209373  51.9308472  68.5172119
  48.2527122  29.1386566  15.5251665  48.8651428  28.7525043  16.1513023
  48.7289009  29.8794899  15.1501408  45.0496025  12.8255310  61.0796852
  45.0586777  13.7452974  61.3445969  45.9299049  12.5091295  61.2826347
   4.4440880  41.5426750  56.5438614   4.2849593  40.9736786  57.2969589
   3.5700645  41.7739525  56.2294960   3.5994337  52.0847626   7.6587410
   4.0831299  52.8194351   7.2812138   2.6804371  52.3445930   7.5942054
  64.3065338  20.1301422  39.3072205  64.6994400  20.4369297  38.4900703
  63.5038300  19.6854763  39.0348778  57.9555588  62.4640007  24.7976112
  57.0705376  62.1167030  24.9087734  57.8651199  63.1394463  24.1254292
  16.8204098  23.6255932  16.8815327  16.4170189  24.3573303  17.3485107
  16.2700996  23.5025120  16.1080723  73.7953873  50.0206528   6.0010242
  73.3184891  50.8123665   6.2499928  73.9417038  49.5594864   6.8269477
  78.9916916  53.5115395  74.9056854  79.1555099  53.6109161  73.9678574
  79.6482086  54.0686302  75.3238525   3.1261215  61.9340591  38.6558914
   2.4686768  62.6256943  38.7309875   3.9500117  62.3600578  38.8924484
  57.9410629  24.3375053  68.8850708  57.5833130  24.0415230  68.0480270
  57.2700195  24.9208755  69.2394867  38.6546211   8.9469690  74.0004883
  38.2140312   8.1078920  74.1348953  38.2591934   9.3001766  73.2035522
  35.0491829  69.9871063  72.0686646  34.2506714  69.6233063  71.6862259
  34.9645844  69.8167801  73.0067825  56.6137466  26.5822563  82.6122589
  56.4660339  27.3755512  83.1271286  57.5531731  26.5872936  82.4287338
  30.1641541   4.1530852  23.5912743  30.5616856   4.9606504  23.2656384
  30.3068581   3.5165026  22.8908253  73.1089935  70.4095764  41.1187248
  73.1360245  70.0547485  42.0073204  72.9111252  69.6541977  40.5651131
  75.7224579  52.8357697  32.7729454  75.5869904  52.1345024  32.1356812
  75.3680878  53.6170158  32.3483200  57.2171593  53.2462654  71.9422531
  56.3363533  53.4831696  71.6519241  57.0838127  52.8207550  72.7892456
  61.3195648   9.4137688  29.8838520  61.5188522   9.6295052  28.9728222
  61.9958000   9.8639936  30.3900452  44.4417152  -0.0128298  19.1344185
  44.0198936   0.5883506  18.5205116  45.2979317   0.3799751  19.3042107
  48.5155525  64.5341492  45.2963333  47.6405411  64.3444366  44.9578171
  49.0796890  64.5202332  44.5231667  81.3396530  17.3404217  79.3741302
  81.7614822  18.1834011  79.5404816  81.5932388  16.7946682  80.1184998
  57.3278656  11.8753233  76.9091263  56.9278564  12.3676605  76.1923141
  57.8388710  11.1923838  76.4747314  70.7006989  18.4378853  86.2607727
  70.6414490  17.5654087  85.8715363  70.7623062  19.0306416  85.5117188
   3.9668756  12.8930054  28.5074310   4.2194142  12.5570869  29.3674393
   3.0585601  12.6116667  28.3976860  42.2922668  58.1148376  73.4470978
  42.5421677  57.4013748  74.0342560  42.2275734  58.8818092  74.0161285
  50.1937408   8.2251940  58.5010338  50.8252983   8.7369652  57.9956017
  50.3351593   7.3221297  58.2169418  27.1753273  36.0259895  31.2658043
  27.7448692  36.4646034  30.6337662  26.7290554  36.7396355  31.7216377
  19.4190464  68.0459824  78.6100388  20.2238026  67.8362427  79.0839691
  19.7194252  68.4040985  77.7747192  64.3183975  13.2963963  59.3478508
  64.7069778  12.5915289  59.8659248  64.5835495  14.0985498  59.7978249
  52.8443375  24.3493900  58.5787506  52.1033516  24.9291172  58.7550812
  53.1167183  24.0393772  59.4424248  84.8024445  70.8517990  40.6307564
  84.0271301  71.3418884  40.3570213  85.2171936  70.5823898  39.8112221
  46.0012817  54.4924507  52.0369186  46.7578354  53.9221992  51.9002762
  45.5734215  54.1398735  52.8172073  66.4698563  33.1100769   4.4410238
  65.7817993  33.2772942   3.7969403  66.8602142  33.9689369   4.6029372
   7.0160513  44.5260429  84.1241074   6.3013620  44.0344200  83.7194366
   6.5902429  45.0580750  84.7963104  12.6523218  66.0714951   5.6010046
  12.5864210  66.6623917   4.8508468  12.8954515  65.2275162   5.2204657
  29.7898598  20.6816711   0.7411991  29.6681881  19.7373886   0.6424175
  29.9700813  20.8037281   1.6733227  30.8344002  63.4446030  27.6685658
  29.8837967  63.4618111  27.7794113  31.1744461  63.2629242  28.5446911
  62.8788338  35.9967728  76.5013046  62.6387749  35.1021500  76.7426605
  63.7036285  36.1555634  76.9603577  28.0468903  54.6405411  19.5450897
  27.6348476  54.5071220  20.3987007  27.3966198  55.1273232  19.0387077
  72.0952759  21.5906925   6.7273645  72.0463638  21.3106918   7.6413879
  71.4448166  22.2892704   6.6557336  37.7345848  31.4585323  14.7138462
  36.9160919  31.6899204  14.2747984  38.3769760  32.0757790  14.3637457
  46.8593178  19.6856041  11.1547089  47.4024658  18.9804802  10.8025389
  47.3181915  20.4881496  10.9065418  80.9500504  29.5058079  54.6268349
  80.5319138  29.1536045  55.4125443  81.6437988  30.0752659  54.9595070
  62.7404251  10.3541822  73.0623322  63.4397583  10.9565535  73.3159332
  61.9339981  10.8027105  73.3167496  60.0308113  34.1862679  50.0224533
  60.3138046  33.6683197  49.2688751  59.4899864  34.8807030  49.6462860
  53.8245926  57.4014244  73.9134445  53.0429306  56.8757973  73.7432861
  54.5438766  56.8861656  73.5482483   4.0843434  44.8780365   2.1447701
   4.7451301  45.3479919   1.6361116   3.2704287  45.3530426   1.9770151
   0.6068029  42.2192688  22.0593910   0.5017619  41.9382820  21.1504116
   0.2540013  41.4949799  22.5762749  74.2267609  42.5250206  32.6177368
  74.2900696  43.4155579  32.2725334  74.7880859  42.5282173  33.3930664
  21.9016895  46.2172356  77.1456299  21.3147717  46.4612885  77.8613129
  21.7195683  45.2901535  76.9920731  11.2659798  55.5675774  37.2384262
  11.2807379  56.4085960  36.7815857  12.1445990  55.2099991  37.1103668
  82.6151810  66.6077271  63.9503517  81.9429092  67.2397766  64.2048950
  82.4670639  65.8562622  64.5244522  12.1598883  46.4458084   4.0023761
  11.5785427  46.6809502   4.7255478  11.8976240  47.0244331   3.2863843
  37.5934067  30.3328915  25.9405060  37.0633812  29.6532555  26.3569202
  38.4686012  30.2136803  26.3093586   7.5556989  47.2974052  32.9476547
   8.0745106  47.6721382  32.2358665   6.7653728  46.9675941  32.5200577
  34.4584846   1.9030266  86.6382828  33.7291565   2.2251639  87.1679382
  35.2365150   2.0879121  87.1643219  25.3834610  22.5629501  15.7940331
  25.4132557  23.0974312  15.0005140  25.4480572  23.1942787  16.5106106
   2.3728735  70.4076614  45.4069443   2.7214389  70.8358917  46.1888351
   1.6156687  69.9139023  45.7217102  62.4574852  11.6516409  43.2358131
  62.3659821  12.0220757  44.1136742  62.5899200  10.7152367  43.3835983
  72.1398010  39.9251709  54.5004387  72.2195435  39.9927711  53.5489616
  71.8672714  40.7989311  54.7806244  37.2618332  49.2689781  79.0103683
  37.2973328  50.0843849  78.5102921  38.1054535  49.2272758  79.4607086
  23.8245621  49.7038689  61.4542923  23.1725311  49.2741394  60.9007378
  23.4011135  49.7782288  62.3095055  79.8981018  19.9631462   2.3829687
  80.4770813  19.2147732   2.5277128  79.2895203  19.9414959   3.1214745
   2.1514878   0.6867826  24.8197803   1.7141469  -0.0693690  25.2111874
   1.7262721   0.7955968  23.9691448  34.2261887  68.3861923  63.8843269
  33.4745636  68.9775696  63.8447113  34.9731903  68.9314041  63.6374245
  20.9861698  40.7541351  19.1949310  20.5190029  41.5862503  19.1202831
  21.2569637  40.5503426  18.2997379  25.8061562   4.3404255  70.0537415
  25.5280418   4.8981285  69.3272095  25.7556171   3.4503059  69.7053680
  14.1317854  59.9160233  63.2961273  14.0690651  60.8012886  63.6547394
  14.7717905  59.4758148  63.8554497  46.4598007  23.7385387  22.2348671
  46.4689484  24.6750698  22.4325008  45.5461159  23.5473614  22.0230637
  15.8017559  48.2102966  76.4760590  15.6114330  47.8208199  75.6226501
  16.7345924  48.0445290  76.6123199  37.7204971  60.3534966  81.2643585
  38.1521950  59.7386780  81.8575439  36.8992538  60.5738640  81.7039413
  59.2325706  46.1921463  24.1360397  59.7771530  46.1629257  24.9226818
  58.3759689  45.8784294  24.4259567  43.2370377  49.7978172  54.2350998
  42.5764618  49.1985741  53.8875694  42.7809830  50.6353493  54.3174934
  26.1581955  41.9615555  21.4489307  26.1207142  42.6864243  22.0729408
  26.3261909  41.1891975  21.9888153  64.7328644  59.8341141  76.4055786
  64.2109375  60.3181496  77.0455246  65.3513412  59.3292351  76.9336166
  84.3403625  35.7113266  16.0205669  85.2387009  36.0362625  15.9602346
  84.1756058  35.3034172  15.1704512   1.5489788   2.0128968   4.1742358
   1.5700890   2.9146292   3.8538222   0.6370096   1.7422442   4.0679755
  75.2695160   8.6330166  53.5231667  75.2165070   8.8622627  52.5953369
  74.6744843   7.8895879  53.6205711  80.6792297  11.1263781  56.8463249
  79.9801331  10.7177525  57.3567352  81.0353851  10.4143372  56.3149300
  48.0434761  41.6851425  33.8614883  48.4878159  42.5287170  33.7767601
  47.1310616  41.9120140  34.0410995  59.8018723  29.0655460  40.6244965
  60.5850372  29.5854130  40.4438782  59.3938370  28.9415054  39.7675514
  77.5617599  55.8278618  20.3971291  77.0433807  55.7697868  19.5945435
  78.3529968  55.3233871  20.2082367  44.5231285  51.9743919   9.3040915
  45.0520935  52.5131721   8.7157545  43.6184120  52.1795845   9.0682602
  75.9038544  18.0933533  88.7535706  76.2620773  18.9582443  88.9532394
  75.0436325  18.2722530  88.3737717  48.1387978  25.3211040  20.1863174
  48.3707123  24.5109615  20.6403160  47.1876106  25.3814144  20.2748508
  34.1599083   5.2822213   7.0744696  34.2116203   4.4252911   7.4978232
  33.3020096   5.6230474   7.3276076  55.4784889  14.0718927  29.3746643
  54.7472076  14.6662855  29.2068596  55.3539810  13.3568316  28.7506332
  47.5957069  37.0905991   7.7103014  48.2630081  37.3756485   8.3345537
  46.7708969  37.4033661   8.0819139  28.5678616  48.0798607  71.0305786
  28.7727489  47.9993706  70.0990372  29.2565804  47.5820961  71.4711761
  16.2622280  30.3353672  12.3025360  15.8272543  31.1222153  11.9740553
  16.6990051  30.6205063  13.1051273  67.3908081  43.4065628  74.4543610
  68.2583847  43.7857857  74.5948639  67.0918579  43.1615143  75.3300400
  51.9220810  28.5867004  44.7803383  51.0666771  28.9975872  44.9055862
  52.5519295  29.2707329  45.0075378  33.5800056  46.8397598   6.0449228
  33.0744667  46.0976830   6.3765669  33.4498520  46.8137169   5.0969706
  14.7060404  68.3733978  48.7370529  14.4726362  67.4456558  48.7695122
  13.9660654  68.8210297  49.1472816  40.2589836  50.7773895  25.1925220
  40.9735947  50.9681549  24.5849285  39.4646263  50.8854446  24.6695023
  -0.0584316  13.2217093  69.6637192   0.6495450  13.6945248  70.1012650
  -0.0624351  12.3590298  70.0784454  38.7873650  44.7040482  41.6660690
  38.4980850  45.4126205  41.0911980  39.0504456  45.1438179  42.4745369
  79.3994522   5.8543749  34.1549644  79.8814087   5.8142290  33.3289261
  79.8800888   6.4927659  34.6819115  37.6206856  63.4370003  61.6287956
  36.6991425  63.4148865  61.8866692  38.0896568  63.0853500  62.3855247
  74.7333450  11.3736858   0.5336238  73.8129120  11.1130571   0.5003832
  75.2179947  10.5529232   0.4459104  74.8105850  22.6167068  18.0328827
  74.4903183  22.7586021  17.1420841  74.0793839  22.8745441  18.5942116
  44.9322014  44.8908424  68.7227859  45.7918091  45.0444107  69.1148605
  45.0007935  45.2609558  67.8427048  28.2877541  27.8986702  89.1285095
  29.1055679  27.4367561  89.3130341  28.4662247  28.3908596  88.3271790
  53.4711380  26.0530491  17.6433029  52.6399422  26.4540768  17.8973255
  53.7566032  26.5561333  16.8806458  81.1680145  45.5116997  87.4047852
  80.2146378  45.5428810  87.4843445  81.4780426  46.2294197  87.9570465
  49.4701080   6.8855929  24.3024731  49.8129845   6.5956402  25.1478100
  49.6112289   7.8323259  24.2987576  46.3918037  52.0612946  27.7065849
  46.7586174  52.8086777  27.2342529  46.8602295  51.3034554  27.3565979
   3.1845374  50.6060562  23.8882732   3.8901792  49.9755936  23.7439728
   3.6338725  51.4232216  24.1040726  61.6501236  23.7937088  47.5953674
  61.5523071  23.4344673  46.7135468  62.5875473  23.9675217  47.6805611
  60.7347107   1.9938128  34.3702393  60.4365807   1.5070868  33.6018333
  60.2784386   2.8333764  34.3138237  21.7052937  10.6901512  70.9794540
  20.7700367  10.5348415  70.8475266  22.0774765   9.8174210  71.1061554
  17.4112625  70.1568375  46.0279465  18.0280952  70.2912216  46.7474518
  17.8645229  70.4980621  45.2570000  31.9622364  63.1380577  83.9583664
  31.3759327  62.6823997  83.3543396  31.4633904  63.9030418  84.2450485
  24.0088654  70.1253128  79.0215378  23.5072269  70.5945358  79.6881866
  24.9204140  70.2174606  79.2987061  50.2757149  49.0819855  25.6069221
  50.7021751  49.9254761  25.4556503  50.6896553  48.7432671  26.4007435
  50.6037788  32.1898270  39.5923576  50.8741302  32.1108322  38.6775360
  50.0913658  32.9977875  39.6217690  61.6799965  18.9342937  88.5595703
  62.4115829  19.2469349  89.0918045  62.0463371  18.2117710  88.0496826
  27.6065483  23.1469364  79.8270111  26.6849575  23.3638744  79.6861572
  27.9432697  23.8669109  80.3603897  71.6222076  34.6561699  73.8272934
  70.7292862  34.9782333  73.7040405  71.7486115  34.0239944  73.1197586
  16.8427849  63.9366226  59.4162483  16.3909397  63.1649628  59.0747681
  17.5594902  64.0868454  58.7998085  51.9574623   0.6893347  54.5764503
  52.6980553   0.9773349  54.0427704  51.7424850  -0.1800525  54.2385406
  83.1271973   3.1570385  36.8620071  83.8687363   2.8068788  37.3557053
  82.3919220   2.5931613  37.1020966  82.1705322  17.9356136  39.8872948
  81.6261063  17.1688747  39.7085838  82.3169556  18.3309536  39.0279350
  86.8903656  26.4943981  12.2558489  85.9613953  26.7225819  12.2214909
  86.9936295  26.0356274  13.0895739  17.8857727  61.8419113  47.3820305
  17.5754013  62.7470741  47.4061584  18.6620312  61.8697090  46.8226738
  60.1532059  39.7792587  79.4673767  59.9865074  40.7217941  79.4589386
  59.5599442  39.4370842  80.1361008  53.5937042  35.9214592  80.1166229
  53.4987907  35.1074104  79.6221085  54.2131157  35.7071114  80.8142014
  20.4029675  47.1325188  79.2327728  20.7758694  47.1406403  80.1143112
  19.5845032  46.6445351  79.3234177  34.4056015   0.0762932  15.5465612
  34.6721802   0.9837790  15.6936560  34.0572548   0.0705006  14.6550159
   7.4264045  12.4978380  34.5562477   6.8780532  12.3742151  33.7814865
   8.2581863  12.0817728  34.3298416  45.2970047  69.0494232  37.7949295
  45.1283913  69.9893265  37.8612022  44.9617233  68.8062057  36.9319954
  64.7635117  22.2483196  56.1661186  65.2915192  21.4925137  56.4234009
  65.3642273  22.9912453  56.2246475  36.0677185  20.9678059  78.2288055
  36.5855942  20.1802254  78.3954010  36.3907013  21.2935677  77.3886871
  72.9458008  49.4734154  45.4443054  72.6223984  48.6076469  45.6934700
  73.8965988  49.4089012  45.5340843  12.9835577  15.0655975   5.8882270
  12.4424105  15.1583681   5.1041446  12.7526989  14.2050743   6.2381353
  56.9316406   4.0734773  20.3974953  57.8707581   3.9269507  20.5106983
  56.7728233   4.9287691  20.7968502   3.2275310  56.2732239  83.3977051
   2.8775294  56.3093719  84.2878876   2.8513777  55.4760017  83.0246429
   0.1200779  38.2962418  20.7027798   0.2594874  37.3656616  20.5272141
  -0.0498765  38.6794891  19.8422756   4.7262616  57.8442230  30.3040485
   4.0821300  57.1799622  30.5491734   5.5698342  57.4586143  30.5405293
  32.3190804  66.1862793  80.9764481  31.6168957  66.2238388  81.6258774
  32.8359451  65.4204330  81.2265854   2.3907106  36.1857872  86.9801331
   1.9644855  36.7826576  87.5951996   2.9053984  35.5986366  87.5338287
  82.2054443   9.4761724  75.9521942  82.3639221  10.2713318  75.4434357
  81.6941605   8.9160719  75.3681488  37.6052628  42.7984009  34.9565582
  37.9487953  42.6471291  35.8370857  36.8671837  42.1937103  34.8802643
   6.2829843  47.2657852  19.7625179   5.4800429  47.7842369  19.7103348
   6.0892925  46.5888786  20.4109879  36.7667847  38.2052650   7.3040338
  37.4970741  37.9155617   6.7572446  37.1432076  38.2926750   8.1797590
   5.9445481  70.9495544  48.2968292   5.8597460  70.8971252  49.2488213
   5.9888716  70.0375061  48.0097237   4.5599990  14.3977022  24.1285686
   5.5048447  14.3057098  24.2511902   4.2675247  14.8997993  24.8892193
  39.2905235  47.5564880  66.1261063  39.7688217  48.2161980  65.6238632
  38.7374649  48.0628624  66.7210312  63.6651802  60.4069481  42.3258400
  63.1647224  60.4875183  43.1378021  63.1579399  60.9010811  41.6818123
  69.8287201  33.9532890  43.9524384  69.5718002  34.3479538  43.1190948
  70.7291565  34.2477303  44.0893860  62.4546967  42.1673470  79.3464966
  61.9780159  41.4812927  79.8137665  62.3510933  42.9460297  79.8934402
  28.6609230   9.7627745   0.3957556  28.5303574   8.8417654   0.6214229
  28.8311157  10.1929007   1.2337638  54.7209511  65.0674591  70.9196396
  54.4147453  65.1721725  70.0188065  54.4932175  65.8928680  71.3475037
  67.8682861  59.2290192   3.9129164  68.6534500  59.6939125   4.2020979
  67.8741913  58.4138374   4.4145904  54.7161560  12.0532866  61.8269539
  54.0409546  11.9639559  62.4995270  55.4804993  12.3857555  62.2975693
  17.9183407  66.0450287  33.1963463  18.7721291  65.8075104  32.8345985
  18.0875530  66.8337631  33.7116089  12.3755074  44.4723091  54.9497185
  12.4383030  43.8279533  55.6547737  13.0050898  44.1721458  54.2941589
  60.3371391  24.3037949   5.5528774  61.2644539  24.4420280   5.7457800
  59.8859367  24.5419044   6.3627849  42.8390388  64.4966278  51.7973480
  43.0670662  65.3964005  51.5635872  43.6724663  64.0940018  52.0413284
  54.3936386  35.7390785  77.3572922  53.6785278  36.3669319  77.2540894
  55.1744919  36.2815132  77.4680634  14.1992941   8.4822302  59.3826103
  15.0805683   8.8279104  59.5243607  13.8524370   8.3420029  60.2636681
  25.8113708  10.3070345  69.2238846  25.9523849  10.9553404  69.9138412
  26.5393600  10.4409552  68.6169815  47.2882881  47.3060074  72.0203934
  46.6109467  47.8166237  72.4639206  47.0688972  46.3952599  72.2169647
   9.5825539  32.9961090  78.7099228  10.3832407  32.4718323  78.6936798
   9.4692764  33.2884178  77.8055115  35.8822479  58.4728203  54.9909668
  36.5367775  57.7792397  54.9086800  36.3902626  59.2840195  54.9804802
  25.5787830  52.8954964  30.2045288  24.6975479  53.2536659  30.0979099
  26.1593857  53.5940018  29.9025002  21.8938313  65.8209152  65.9888000
  22.7879715  65.6307831  66.2726898  21.3427391  65.2808380  66.5552292
  68.3439026  17.9822521  26.9678097  68.5344696  17.5975914  26.1122684
  69.0896606  18.5558739  27.1439896  78.5031662   8.6772203  61.7205238
  78.7001038   8.0469694  62.4135132  77.9334259   9.3227730  62.1387177
  66.4276352  40.5953712  41.8502884  66.4135818  40.5734673  40.8934441
  67.2537918  41.0270615  42.0678711  57.4118195  26.0004292  74.9037704
  58.0737152  25.5046234  74.4217911  57.7387848  26.0251160  75.8030548
  52.9512367  20.2685528  45.9027519  53.3926125  20.4835262  46.7244606
  53.4867363  20.6846752  45.2272415  22.8043346   4.9177618  85.3954773
  22.6462669   3.9952438  85.5959930  21.9301796   5.3032875  85.3367081
  71.6668549  69.4108276  28.6861687  71.4450684  69.1422501  29.5777435
  70.9266052  69.1156464  28.1559582  15.4599380  56.8867912  42.9430885
  14.6672640  57.3748360  42.7201271  15.1391363  56.0529938  43.2867393
   0.5848497  54.6038551  19.4393101  -0.2426848  54.5442085  19.9166565
   0.4883894  55.3810234  18.8889141  75.7660828  60.6284981  77.8584213
  75.2380371  60.0674133  77.2904587  76.6660538  60.3361244  77.7141953
  23.8504677  38.7822189  48.7425728  24.3507481  38.8527031  47.9295654
  24.4382553  39.1247139  49.4159470  73.0848389  42.2673187   5.2934566
  72.6994705  41.5873871   4.7408085  72.8793793  43.0867500   4.8434005
  68.9227066  37.8655052  75.9030380  69.8484879  37.6574440  75.7770615
  68.7974243  38.6921501  75.4369965  17.2242107  19.3413124  28.9201374
  18.1698780  19.4890614  28.9095116  17.0549335  18.8167953  28.1375389
  58.5801926  63.5413780  72.8854065  57.9920616  63.9608536  72.2574158
  59.0858421  62.9198227  72.3617477  79.9871597  56.8300705  17.8313274
  80.5982285  56.6595306  17.1145706  79.1236954  56.8156929  17.4184628
  41.8428726  36.1390877  85.4663467  42.4656601  36.7940292  85.1510391
  42.3679504  35.3479347  85.5872192   0.3366661  28.3632832  85.4018173
   0.2261758  28.3192406  84.4520340   0.3020539  29.2982750  85.6038666
  29.4939289  51.3989410   5.3157473  29.8010826  51.4993935   4.4147487
  30.2153149  51.7268677   5.8526821  20.0903168   8.8871841  26.0902023
  20.6344261   9.2450714  25.3887081  19.2497654   9.3347759  25.9934006
  31.2701092  27.8446083   9.2969255  30.4528599  27.8679752   8.7991400
  31.0067081  27.5768757  10.1773634  14.3412151   5.6580667  22.2052498
  14.3175344   6.1340137  23.0353966  14.8799314   6.2032719  21.6318665
  47.3911171  48.2369194  33.2110367  47.7205620  47.7936897  33.9928589
  46.4532166  48.0457802  33.2046509   3.3527408  50.6069221   9.9055977
   3.5142486  50.9423447   9.0237598   3.4276969  51.3752365  10.4715500
  69.1814499  31.4506340   4.3670826  68.2563095  31.2818871   4.5456123
  69.1792068  32.2222366   3.8006401  71.7580643  40.7777824  48.3341751
  71.0766144  40.1308899  48.1514626  71.2925491  41.6135483  48.3661308
  26.4136372  13.2205038  19.1359653  26.8854656  13.5685167  19.8926010
  25.6815014  12.7331247  19.5136852  13.9144859  44.1465263   4.2570724
  13.4423418  43.3787117   4.5792141  13.2390976  44.8168030   4.1530981
  53.5518036  70.2046738  67.2754593  54.4147873  69.8057785  67.3866882
  53.0089684  69.7924118  67.9474716  84.9508743   5.9909601  25.9514656
  85.4019623   5.3578424  25.3929768  84.7138519   6.7055917  25.3604031
  69.0742569  24.6526203  71.0913162  69.0127792  25.0418568  70.2189941
  69.7279892  23.9595795  70.9988251  29.3142700  53.7202835  66.4121933
  28.7921619  53.4612846  67.1715012  29.5489902  54.6324425  66.5827866
   9.0722075  36.9834938  86.9239120   8.3501453  37.1389999  87.5327454
   8.9394808  36.0858421  86.6192169  83.8552780  55.4445724  25.3198643
  83.0328827  55.4789200  25.8084450  84.0681763  54.5124512  25.2745075
  35.6377869  47.1992683  10.2729912  35.2551308  47.5804443   9.4827309
  35.1393318  46.3947792  10.4164228  63.1703072  56.9136047  43.8740540
  62.2392654  56.7335968  44.0044022  63.6178169  56.1889610  44.3109245
  75.0815353  57.7497864  11.1502399  75.2447586  58.6886406  11.2405090
  75.3939209  57.5358162  10.2711124  40.2341156  52.6825180  77.5728531
  40.8828621  52.1086235  77.9802933  40.2411270  52.4337311  76.6485748
  70.1066360  21.3991508  41.1301575  69.4114609  21.8786507  40.6795578
  70.5981369  22.0738354  41.5986290   8.5495548  16.2424126   3.8945928
   7.8221917  16.7732735   3.5699983   9.3338833  16.7196522   3.6238427
  74.9007492  61.9090805  30.8681774  74.4998779  61.3233833  31.5104313
  75.8261719  61.9339523  31.1115131  23.5925236  62.6957397  44.8500404
  23.7071209  63.6459160  44.8339653  23.5019093  62.4810905  45.7784500
  51.0662537  57.6780472  67.8950272  50.7758636  56.7680397  67.9565582
  51.9075623  57.6308098  67.4409332  61.3904877  23.0413036  24.1127796
  61.2036972  23.7652092  24.7105274  61.6537209  22.3202896  24.6846886
  50.6861458  66.0720139   7.2710342  51.6353111  65.9644547   7.3323054
  50.4391022  65.5780487   6.4892416   0.3594239  43.1032486  38.3304825
   1.2373790  42.7656937  38.5079155  -0.1839730  42.3206558  38.2383156
  17.5176239   8.9126816  18.4615002  17.7042885   9.7383099  18.0145931
  17.9085732   9.0162201  19.3290653   6.0807104  28.1057014  57.8025475
   5.4535704  28.3004665  57.1061325   5.5413280  27.9875202  58.5844231
  16.7978783  53.9303894  65.5266418  17.2856350  53.8047180  66.3406067
  17.4702549  54.1127434  64.8702240  46.7172966   4.2768540  25.4729881
  47.6536446   4.2747340  25.2742901  46.4012756   3.4343524  25.1465645
   1.0382162  56.6778450  63.9144669   1.1554136  57.6090927  64.1022949
   1.7600609  56.4597282  63.3248940   6.2401996  12.9787302  79.9626923
   5.5591865  12.4179249  79.5912781   5.7608638  13.6326914  80.4714203
  14.5714054   5.8518648  58.5602608  15.3692265   5.4829016  58.9391823
  14.5246277   6.7387519  58.9172974  75.2196350  13.9887972  65.1923065
  74.3828964  13.9436836  64.7296371  75.1227417  14.7294731  65.7908401
  63.3646698  29.0846443  11.3116217  63.1183281  29.8614960  10.8095760
  63.7550125  28.4958763  10.6656971  79.1959839  29.5032997   7.4743633
  78.7086105  28.9662170   8.0990515  78.8443069  30.3857861   7.5917110
  65.7978897  46.8444633  22.2236843  65.9545441  46.5430603  23.1185856
  66.1530838  47.7331161  22.2046165  17.9927139  40.9170761  68.0183258
  17.4296799  40.5979156  68.7235641  17.3957787  41.0698891  67.2858276
  69.8157501  26.3758087  31.6427364  69.5953751  26.5959454  30.7376385
  70.7044449  26.0235558  31.5939770  19.1765881  45.1536255  16.7510891
  18.6748676  44.3485146  16.8787746  19.1789722  45.5733299  17.6113644
  20.5868320  68.7314911  12.5316935  21.4480705  68.8304520  12.1258545
  19.9763298  69.0930634  11.8892097  63.9165993  68.4018555  70.0118256
  63.8130341  69.0395279  70.7181396  64.1089630  68.9309998  69.2377243
  79.2382278  41.0409355  16.1901855  78.3409271  41.1186676  15.8660870
  79.2402725  40.2290421  16.6971893  47.9893799  57.4747963  11.9876995
  48.0311508  56.7434235  12.6038008  48.1917877  57.0838318  11.1377516
   9.3909874  20.9646645  87.1556473  10.1067333  20.5827923  87.6636887
   8.8705301  20.2128677  86.8725281  25.1141891  12.8013744   5.2328272
  25.4960289  13.0054903   6.0865059  25.8643208  12.7536488   4.6401582
  42.5543098  67.7517776  47.1225929  42.6936188  68.1962662  47.9588089
  42.9463882  68.3352890  46.4729538  42.2629623  67.3970413  14.8930645
  42.1462975  67.4341888  13.9437275  43.1622581  67.0915375  15.0120897
  17.4939957  24.7198563  56.8778381  16.9223633  25.1069431  56.2147903
  17.2258892  23.8018856  56.9188347  21.6515045  14.8586073  87.0193558
  22.5912247  14.7701578  87.1785278  21.5235329  15.7926111  86.8535538
  16.5794430  69.3318863   2.0755527  16.6334724  69.3621750   1.1203589
  15.8597221  68.7270813   2.2556784  82.5612564  54.9924545  63.2365379
  82.8076248  54.6086922  64.0781174  81.7744980  54.5135155  62.9760399
  60.4865189  50.3336143  64.5267410  61.3766632  50.0058517  64.3984909
  60.1340866  49.7978706  65.2373810   0.4911424  52.2218475  54.5090561
   1.0372505  51.5352898  54.8919907   0.6108133  52.1240768  53.5644150
  42.7940979  14.3535843  73.1312256  43.0243797  15.2721643  72.9918976
  42.5081940  14.3141012  74.0438766  45.9763870  15.8542433  23.6275787
  45.0652237  15.8223009  23.3360481  46.4798012  15.9930439  22.8253689
  86.3638840  56.1218452  51.0322037  87.0541229  55.6590729  50.5571861
  86.4064026  55.7685585  51.9208031  38.3739967  19.0923023  87.6734238
  38.9296303  19.2690163  86.9142914  37.9337692  19.9243698  87.8469009
  14.0544529  60.9153748  71.9011230  13.9680614  61.8577271  71.7571182
  14.9809389  60.7330513  71.7442322  75.8436737   1.3520072  20.5006580
  75.2709503   1.7314901  21.1671505  75.4010391   0.5458381  20.2353306
  37.0162354  35.6629105   3.7086217  37.3969154  36.3578415   3.1716025
  36.0728111  35.8200607   3.6701226  68.2347565   3.5461292  13.5765467
  69.0136261   4.0944066  13.6713285  67.5089188   4.1680079  13.5249472
  22.6046734  33.8116150  71.4083176  22.0102711  33.9205284  70.6659851
  23.3955116  33.4294586  71.0278397  73.9022446  13.5280027  17.3513317
  73.2642441  13.1949778  17.9824276  73.5063705  14.3304262  17.0112858
  77.1860733  43.8551369  41.7218475  76.8776474  43.8930206  42.6272049
  77.5428009  44.7273102  41.5536499  65.5882492  11.1440067  10.1083765
  65.6195908  10.8247414   9.2065344  65.4074478  12.0802584  10.0248604
  76.8043213  46.5952950  65.6968536  77.3796158  45.8535843  65.8843079
  76.3002625  46.3199120  64.9311371  36.4743500  46.7154083  84.3990860
  36.0530930  45.9606209  84.8102646  35.8413887  47.0175705  83.7477112
  14.0556135  32.9985733  74.9468842  13.9276838  33.8621330  74.5542908
  13.1697931  32.6837273  75.1269531  34.6864204   5.0364690  87.8667984
  35.2364578   4.6677771  87.1755981  34.0631104   4.3401690  88.0738831
  78.7692184  21.3537140  66.3693314  79.0299606  20.7872124  67.0954971
  79.5264740  21.9209423  66.2242279  52.2207642  67.3862076   2.9304633
  52.6507416  68.1383820   3.3373804  52.6852608  66.6262283   3.2810364
   3.1079190   9.3053761  70.8354950   3.9929986   9.6144152  71.0287857
   2.7542932   9.0444460  71.6858444   6.6829805  44.6129494   0.7671947
   7.5556016  44.2346306   0.8750794   6.8416724  45.4758644   0.3845340
  35.0696487   2.6513798  36.0114059  35.5754585   3.2310455  35.4418640
  34.1783371   2.6931911  35.6649284  86.7160187  16.3659592  38.8532715
  86.2126999  16.3945255  38.0395889  86.5370407  15.4981136  39.2152710
  73.0140228  63.5477333  54.8317871  73.8218231  63.9718742  55.1212616
  72.9407730  63.7787132  53.9057655  50.6156769  27.1056881  13.1054182
  50.8612366  28.0295677  13.0566511  49.6760941  27.0976315  12.9227924
  39.6083298  57.6400604  75.6935272  38.7483292  57.9952545  75.9181671
  39.6497536  56.8027382  76.1554871  12.9561720  35.9542313  70.6796036
  12.9756355  34.9978180  70.6460190  12.6370974  36.2177544  69.8164825
   4.5546393  36.8932610   4.5033293   4.7536726  37.5404434   5.1799173
   4.2537889  37.4117203   3.7570572   1.6474541  13.2380276  64.2349472
   1.5752161  13.8705311  64.9497528   1.1171367  13.6108875  63.5306931
  37.7953949  34.9398460  67.2633438  37.3953171  34.0758171  67.3614349
  38.6664543  34.7616005  66.9087830  84.7156525  68.2552567  72.7548828
  83.7629929  68.3090439  72.8309784  84.8642731  67.6354141  72.0407867
  18.2881393  20.4762726  83.7094345  18.7344704  21.2433929  83.3508987
  18.0362129  19.9646778  82.9406433  47.1844101  23.4401741  18.0899105
  47.4586258  24.2621746  18.4965515  47.0218811  23.6682854  17.1746063
  70.4130554  30.0066242  86.7248383  70.8746643  30.7593117  86.3552322
  71.1055603  29.4587898  87.0943680  45.9018707  22.7554722  67.3561783
  46.1605759  23.5500355  66.8893051  46.7083130  22.4472752  67.7695770
   7.0646062  40.1422806  68.4521332   7.1086335  39.4100189  69.0670090
   6.1710835  40.1143379  68.1099777  77.4531937  61.5474510  70.9014511
  78.0283356  61.6631584  71.6577988  76.5872574  61.8055496  71.2173233
  12.2186384   7.6850543  29.8514233  11.3251219   8.0080070  29.7349682
  12.1762695   6.7645416  29.5923996  69.3850555  41.6262970  53.1075134
  69.7633743  41.7742310  52.2407837  68.4550323  41.4737930  52.9400558
  62.1952858  12.9558449  38.4151382  62.1211395  13.1440144  39.3507271
  61.7814636  12.0991993  38.3095894  55.3774948  44.7624054  63.8556976
  54.5188179  44.9041100  63.4571686  55.9673119  45.3330574  63.3630486
  55.0360909  43.4956551  15.5060091  55.4954491  43.6502190  16.3314362
  55.3742561  42.6550064  15.1974821  34.1503220  63.7178535  57.5956497
  34.9514542  63.1962051  57.5476913  33.5204239  63.2395401  57.0565071
   0.8754830  19.7075024  70.8026199   0.3495659  19.3327847  71.5091858
   0.6615230  19.1750393  70.0365067  45.3688431   1.1186260  84.4394455
  45.3784637   2.0317838  84.1525955  44.5661392   0.7577788  84.0630264
  32.0569382  47.7658882  14.3941469  31.7878323  48.5216675  14.9162683
  32.6429901  47.2739182  14.9692459  51.9286652   5.5463347  86.0031967
  52.4134712   6.2955003  86.3495255  52.2511215   4.7988648  86.5067291
  41.9865837  53.1409950  29.1982613  42.6650238  52.4845619  29.0399895
  41.5756798  52.8678017  30.0184784  30.4321003  62.7474442  81.4510498
  29.4798698  62.8400307  81.4813232  30.7460842  63.5995064  81.1483383
  21.2983036  53.3556442  77.2783890  21.0224266  53.3766823  78.1947250
  20.9213257  54.1482849  76.8964996  69.6942444  52.0039291  32.7822609
  70.3120880  52.1065025  33.5061226  69.0921173  52.7422371  32.8748665
  38.2158623  28.7297878  14.3545599  37.9019432  29.5633926  14.7049751
  37.5171165  28.4377041  13.7691774   3.2603028  43.0830269  37.2949219
   3.5643480  43.4429970  36.4617310   3.2697837  42.1348839  37.1639099
  19.1714134  59.4448624  60.9017754  18.5747452  58.6967545  60.8781891
  18.9336014  59.9651833  60.1343498  81.4941101  20.0170097  48.9361382
  80.5853271  20.1885395  49.1829681  81.9094009  20.8794270  48.9370346
  56.3829460  10.2099295  39.3677025  56.7352257   9.9788990  40.2272110
  56.1231499  11.1271496  39.4539909  26.7771950  70.4776230  65.9549332
  26.3329315  71.3253708  65.9414062  27.5009022  70.5765762  65.3363190
  74.5994492  25.1562729  57.6181908  75.0461044  25.7281837  58.2424088
  74.5743103  25.6617832  56.8057518  44.8280563  70.2083664  10.0654469
  44.0779533  70.4388046  10.6135979  45.3171158  69.5701065  10.5847616
  63.8834686  16.8017979  62.9560738  63.6126976  17.5110741  63.5390320
  64.6613541  17.1400604  62.5125580  10.8807039  45.7519722  72.7227554
  10.8502226  45.5158348  71.7956390  10.3818350  45.0631180  73.1618958
  78.5954285  50.3316269  12.2121201  78.6834793  50.7106247  11.3375692
  78.0443192  49.5595245  12.0841789  59.2835197  58.7363358  11.1433477
  58.9371986  58.4571609  10.2957897  58.6793251  58.3615036  11.7841902
  67.8103027  43.9903145  42.2724075  68.4263687  44.6569405  42.5762177
  67.6157913  44.2380981  41.3685265  74.1077881  31.2080326  53.7342949
  74.5994339  30.5488548  54.2241936  74.2770538  32.0275116  54.1990891
  32.7940063  28.2041721  17.2118378  32.2185669  28.9445362  17.4040966
  33.5647583  28.3512115  17.7600632  30.9010544  40.4464417  64.5682144
  31.3777504  39.6203537  64.6492767  31.5846081  41.1160851  64.5444946
   4.0680771  29.9398499  12.5667534   3.2433357  29.5228786  12.3174181
   3.9145801  30.8747787  12.4304562  34.2633896  69.9828339  31.6392403
  33.6232529  69.3868866  31.2502747  34.8930855  70.1490097  30.9377365
  73.8644714  44.2395554  29.0325985  73.5412292  44.4105072  29.9172039
  73.7675781  45.0755005  28.5764828  64.0433578  47.4160500  25.3449440
  63.8015976  47.8334541  24.5181694  64.9934464  47.3122902  25.2920380
  46.0927925  43.4700432  19.0659676  46.5798950  43.6489449  19.8703041
  46.6167793  42.8113556  18.6101170   5.4402270  30.3512459  21.1874027
   6.0610981  30.2590237  21.9100685   5.9743075  30.2545147  20.3989658
  33.5783882  65.1337280  87.6328964  34.4588013  65.2002487  88.0025940
  33.3381233  64.2146454  87.7503281  68.3327942   1.1241504  46.9531212
  69.0638199   0.6667932  46.5375977  68.2002487   0.6617207  47.7806625
  10.3834105  44.4488907  26.3358288   9.5352831  44.8809662  26.2347164
  10.2262344  43.7611580  26.9827843  33.4162903  30.7989883   6.2661071
  32.6771584  31.1991196   6.7241578  33.9114113  31.5401325   5.9171185
  60.3565331  46.7552109  48.3383598  60.7126808  45.9906311  47.8858032
  59.4110680  46.6957970  48.2012749  64.8672943  14.6112404  16.2761555
  64.9341965  13.9569836  16.9716434  65.3545151  14.2332478  15.5440598
   1.4849558  49.1047249  86.1595535   1.7974821  49.2270203  85.2631149
   1.1024452  48.2272797  86.1622391  44.2818336   8.9466276  65.7199326
  45.0029373   8.5453672  66.2049408  43.5951157   8.2798128  65.7165680
   3.1784129  59.2979774  50.4342995   3.9562571  59.2113457  49.8832207
   3.5097120  59.2252350  51.3293877  12.4613171   0.6064146  63.9780769
  11.8831215   1.1776209  64.4836884  12.4403181  -0.2291441  64.4445877
   2.9094112  53.0233154  73.3722916   2.9147925  52.8051987  72.4402924
   2.0214622  53.3394318  73.5391769  60.4923248  65.1256027  23.6230755
  60.4175110  66.0767899  23.6997509  61.3920288  64.9788818  23.3311100
  43.3375015  68.4351730   0.6813158  44.0180359  69.0294266   0.9974931
  42.6159859  68.5462341   1.3004392  69.3501587  50.3223724  38.2538948
  68.6112976  50.8023643  37.8798294  69.7047653  50.9103355  38.9208183
  25.4783192  71.1927185  70.3904877  26.4278069  71.3094406  70.3576050
  25.1993446  71.7106476  71.1455688  53.7936745  13.5570440   5.9659309
  53.8110733  14.0468416   5.1437221  54.6826553  13.2147646   6.0596776
  38.9761314  65.0007477  36.3939362  38.5683594  64.1591415  36.1898384
  38.2637825  65.6359558  36.3211403  56.5258179  18.8857193  16.2793674
  56.2890205  18.7334270  17.1942253  56.2572289  19.7886333  16.1095524
  51.5435371  21.1007156  24.0419445  51.5132561  21.9309578  23.5665379
  52.4711304  20.8647518  24.0530205  55.5060844  66.3316650  63.5297585
  55.8388557  66.2230911  62.6388550  54.6606827  65.8827591  63.5260277
  56.4239807  64.3296967  87.7272568  57.0248146  63.5865898  87.6723022
  56.6252823  64.8580856  86.9549103  55.7775307  56.4162598  53.8799477
  56.0813560  57.3101540  54.0376701  54.9781837  56.5224762  53.3642044
   0.3273397  47.5828133  48.4415283  -0.2021130  47.7737732  47.6672897
   0.3787152  46.6273270  48.4668427  61.0679092  10.0624866  38.4607506
  61.1875534   9.5023508  39.2276688  60.1203613  10.0867405  38.3273468
  20.7983532  65.7968750  49.5045776  20.6611481  65.4098969  48.6399078
  21.0995750  65.0686264  50.0478477  41.4629402  48.4698715  59.6737862
  41.7800102  48.8723373  60.4823151  40.5203323  48.6363487  59.6770172
  11.9662905  30.9606113  15.0526781  12.3571386  30.4193344  14.3667574
  12.6077423  30.9471817  15.7630234  16.0094337  50.1037216  59.6749191
  15.1203270  50.3738251  59.9046249  15.9031525  49.5810089  58.8801193
   3.6663885  39.5284843  45.5576096   3.6909966  39.9633751  44.7052612
   3.3274128  40.1939545  46.1563377  67.8269348  15.3679867  84.3115616
  68.7406921  15.0957117  84.3960953  67.8462067  16.0741386  83.6656418
  10.3294344   3.2354798  76.1188660   9.5085306   2.7513764  76.0294571
  10.2065039   3.7730167  76.9012756   1.1995183  47.0322609  38.5160408
   1.1376420  46.5083694  37.7173309   1.7209257  47.7940598  38.2630043
  38.7082100  25.8893433  78.7982254  38.3417320  25.0813751  79.1575470
  38.6224442  25.7903061  77.8500366  83.2386932  45.3406715  70.2757034
  84.1073227  45.1311722  69.9324570  83.0799179  44.6769676  70.9469070
  76.3065491   0.3590243  11.9816198  75.6135254   1.0156022  12.0513210
  75.9622116  -0.4030459  12.4473562  50.3949890  22.3560944  29.6790218
  49.7362518  22.1816502  29.0068130  50.3823051  21.5768299  30.2347355
  86.6154861  10.3445730  54.6111221  85.8191605  10.8135824  54.8603668
  86.3073578   9.4847593  54.3247566  75.0040512  25.6200314  16.4387341
  74.5033340  24.8464737  16.1796494  74.3494034  26.3139782  16.5168762
  77.7965622  41.2415695  74.4303970  78.4346924  41.9547195  74.4092102
  77.2980194  41.3421059  73.6194839  14.8212690  23.5132294  15.0980091
  14.6556644  22.5750523  15.0051184  13.9833155  23.9261723  14.8893366
  65.1884842  18.8147087  85.0692520  65.2736435  18.2468777  85.8351135
  65.0462418  18.2123241  84.3390961  24.3288994  40.4091759  66.6777267
  24.7914829  40.5689888  65.8551102  23.5368214  39.9378624  66.4194565
  53.0101471  23.0545101  17.7795677  52.6976051  22.9695606  18.6803093
  53.5136032  23.8686066  17.7765121  82.1622696  70.9033966  35.1672592
  82.5778427  71.3524399  35.9033890  82.8901978  70.6485825  34.6003151
  86.7065353   5.0117884  74.3353348  87.3147354   4.9085450  73.6034470
  85.8387756   4.9443669  73.9369888  31.4040890  36.8659058  34.5010605
  30.9289513  36.9805107  35.3240700  30.7575455  36.4942589  33.9009857
  42.9236870  46.9822311  47.7347145  42.2025604  46.5843239  48.2224388
  42.9733429  46.4751549  46.9243813   1.3961394  17.1119022   9.8884783
   2.1815934  16.8013229  10.3388491   1.6209304  17.9953804   9.5966434
  68.4576416   0.1879228  81.0501785  69.3105316   0.5475848  80.8063583
  68.2037582  -0.3539307  80.3030701  41.7158585  36.8902054  11.8162899
  41.9124451  36.3782349  11.0317688  42.5676804  37.2106400  12.1128597
  45.6280060  45.8173981  39.5443878  45.7199440  45.0025864  39.0505638
  46.3869591  45.8309937  40.1275139  76.6141663  59.0586014  13.6695433
  77.0448914  59.6528091  13.0550346  75.7107010  59.3718987  13.7123032
  49.1298637  56.0969391  58.4506035  49.1631241  55.2112350  58.8120651
  48.1961555  56.2741890  58.3365707  56.3523941  38.7784500  60.9901505
  57.0721245  39.3950768  60.8560219  55.6104507  39.1729393  60.5317535
  56.0711555  30.8820190   8.2233629  56.1624603  30.1459522   7.6183004
  55.1779861  31.1969280   8.0843925  58.5964928  27.3989296   6.3248830
  57.8488235  27.8081684   6.7604799  58.3506546  26.4775372   6.2422414
  81.4356384   4.1213698  57.1680565  81.4699554   3.1717343  57.2831497
  81.4415283   4.4709959  58.0591011  42.2438965  58.9936256  55.3296852
  42.1355400  59.7339325  55.9267082  43.0255699  58.5418777  55.6477127
  69.8556442  65.6004944  25.3306179  70.7556000  65.3199615  25.4968014
  69.8428955  65.8257980  24.4003983  73.3012772  37.1053429   4.8169065
  73.2492981  36.2272186   4.4395089  72.4721756  37.5188522   4.5764313
  86.6036148  31.5437908  75.5405197  85.9418869  32.1679192  75.2425079
  86.4165573  30.7436848  75.0495300   2.3884857  19.7154770  73.8330078
   2.2598712  20.6635418  73.8035965   3.2982018  19.5887108  73.5636063
  55.5646286  59.9407730  11.5238914  55.2548447  60.6111870  12.1328306
  55.2772675  60.2472305  10.6638117  64.2393417  21.2931843  34.2816200
  63.6022034  20.8648739  33.7099266  64.2363052  22.2081738  34.0005226
  57.8706055  51.2332344  61.8113480  57.2867470  50.8263130  61.1712265
  57.7682571  52.1736374  61.6650467  83.7447968  62.9841232  71.0361938
  83.3440323  62.1158333  70.9950714  83.8286514  63.2527847  70.1212997
  58.4465981  29.7863770  38.1931190  58.2871017  28.8610439  38.0072365
  58.5600204  30.1876621  37.3315277  86.1695862  61.6732559  69.3574066
  85.8193893  61.3992081  70.2050400  85.4394684  62.1210861  68.9300766
   4.3484726  56.8423157  51.2682381   3.8804114  57.1622772  50.4970207
   4.0555162  55.9364700  51.3674927  78.7639694  45.9399681   6.2716851
  79.0469284  45.7565651   5.3758440  78.1995392  46.7089157   6.1918979
  46.9903793  68.9839172  52.4938622  47.8486900  69.3966751  52.3981018
  46.9647293  68.3216019  51.8032761   5.3610244  70.4940643  76.2960052
   6.1680808  70.4422455  76.8080673   5.6533661  70.4681854  75.3849030
  70.3108902  15.2979212  13.3808622  70.6672440  15.3928041  12.4975500
  70.1134491  14.3646975  13.4605131  43.7014122  49.4183540  13.9745731
  44.4929657  49.9455757  14.0827980  43.4758911  49.1398964  14.8621731
  30.5787220   2.0409489  84.1902161  30.4226704   2.6080122  83.4350204
  31.5313950   2.0192237  84.2806244  48.6286430  29.1906719   9.1884842
  48.4145279  29.5256538  10.0592155  48.5923691  29.9601097   8.6202564
  85.9666214   2.3748071   6.5357060  86.2664948   1.5578544   6.9343195
  86.4205322   3.0608554   7.0251236  22.1900826  47.5425949  64.2351990
  22.6685867  46.7234459  64.1076813  21.9322548  47.5283775  65.1569138
  86.0750351  45.4741859  17.7161026  86.5443954  44.7828598  17.2492027
  86.7020569  46.1954498  17.7695084   7.7248993  23.3904648  82.8586884
   8.5708885  23.7251186  83.1562500   7.9414649  22.7982388  82.1385498
  71.5431213  40.3225136  13.8798323  71.0647659  41.0902901  14.1927671
  71.3491898  39.6408501  14.5232296  20.0021362  36.2337227  73.0197830
  20.4079838  36.5496979  73.8270493  19.5982380  37.0113106  72.6344833
  57.6346970  60.6303215  82.5668106  57.6998940  61.5519142  82.3165131
  57.4224472  60.1752434  81.7518997   7.4203529  57.9536476  80.4092026
   7.5788178  58.7502785  80.9156647   6.7028332  57.5168381  80.8681030
  45.5801926  54.9386368  35.6584778  45.5873871  54.1540642  35.1101875
  44.6787987  55.0018883  35.9742699  26.2200966  25.3187332  16.3775272
  25.3024368  25.3898106  16.6403599  26.5528698  26.2149830  16.4247360
  30.9888878  54.0533600  87.2061844  30.4904251  53.7207489  87.9525986
  30.4243469  53.8921318  86.4501877  48.8530121  21.0302181  18.5577431
  48.1917496  21.7059269  18.4081535  48.4441528  20.4285374  19.1798744
  80.9226837   4.1363845  44.1726608  81.3429565   3.3564110  44.5349350
  81.4735260   4.3818808  43.4293365  26.0968761   5.0903788  63.5205307
  26.3749275   5.9223833  63.1375313  25.1927853   4.9812393  63.2256775
  54.1934891  12.2634945  35.7446823  54.4698524  13.0383797  35.2553864
  53.2456322  12.2250233  35.6169395  74.1550446  37.4446983  60.9803696
  73.4777222  36.8680038  60.6269646  74.1866989  38.1800652  60.3684349
   3.3698773  40.0295181   6.1699409   2.7872610  40.7639351   6.3633890
   3.0079386  39.6398582   5.3740788  80.2265167   1.8642378  17.3257999
  81.0845642   1.9843851  16.9189167  80.1875153   0.9301439  17.5311756
  51.2130585   5.6001582  18.9342003  51.5066452   4.8472204  19.4471550
  50.3761749   5.3238602  18.5606823  45.6246033  15.7161255   3.7249258
  45.2376328  15.8616276   2.8616095  45.5069923  16.5480995   4.1834221
  50.6913872  11.8562021  81.9208755  51.1741486  12.0734358  82.7183609
  50.8950691  10.9346695  81.7611237  49.3905716  39.0574532  71.1229553
  48.5501137  38.6857605  70.8551712  49.8483086  38.3325462  71.5486603
  23.3107738  35.0310326   7.8809204  22.9311180  34.5028229   7.1787167
  24.0124302  34.4864159   8.2377167  69.1200256  13.1739206  36.6325722
  68.5786057  13.6210709  37.2830772  69.2809601  13.8352232  35.9595108
  58.2982254  56.8302498  87.8113022  58.8774757  57.2713966  87.1899414
  58.8247337  56.7375870  88.6053009   8.1215048  16.2268791  72.3692703
   7.7777276  15.3575974  72.1633606   7.4288211  16.8289566  72.0973816
  59.0058556  25.7983799  51.6458549  58.3252869  26.3323479  51.2360535
  59.7546349  26.3885860  51.7308159   4.2718797  60.6796532  64.7416458
   4.0709090  61.2041473  65.5167313   4.9266243  61.1929436  64.2682877
  79.3669662  19.0323620  20.6980114  79.7796326  18.8305988  19.8582325
  80.0272903  18.8007832  21.3511372  26.9263802  38.8521194  73.3622284
  26.9714985  39.7947311  73.5224686  27.1638622  38.7542839  72.4401321
  27.2581139  43.1588440  89.0611115  26.7139626  42.3722420  89.0238113
  27.5500317  43.2911263  88.1591568  81.3930817  38.8628578  63.8523636
  80.6262894  38.8217316  64.4238205  81.7353516  37.9689636  63.8461037
   3.2243814  70.9088516  63.8876877   3.3143578  71.8540039  64.0094910
   2.4858909  70.6646957  64.4455872  67.5563202  42.2130966  50.9238892
  66.6481247  42.5026817  50.8369713  67.8549194  42.0875320  50.0231667
  14.2855062  50.2796135  42.4460182  13.4643736  49.8495483  42.2072372
  14.2745848  50.3022766  43.4028893  38.7701607  46.9677887  52.6633530
  39.5789146  47.0123558  53.1734161  38.2175598  46.3514214  53.1439362
  32.0217323  55.6979218  50.0120239  31.3525772  55.5572853  50.6818619
  32.8439827  55.4623260  50.4417076   3.1397660   4.4621191   8.4515209
   3.8347569   5.0111594   8.8145285   3.4333835   4.2602739   7.5631075
  12.3176489   2.9787703  29.4563999  11.9676895   3.8435137  29.2419720
  12.6672249   3.0747957  30.3422928  39.0331459  53.1512184  28.6516018
  38.7706413  52.2617874  28.8887386  39.9329796  53.2279854  28.9688320
  69.6234207  31.9272804  73.8688126  70.1493607  31.5662556  73.1551743
  69.1369629  31.1772728  74.2109833   9.6162777  69.6698914  18.2516327
   9.7118015  68.9821777  18.9105396  10.4959583  69.7794800  17.8905468
  40.7286415   6.2787042   1.2237575  40.7363892   6.1687617   0.2729239
  41.4433975   5.7232475   1.5349224   1.9222394   0.8256727  82.9223709
   1.9978486  -0.1195643  82.7918320   1.0726593   1.0524846  82.5442200
  32.5081596  24.2167759  13.2640171  32.9943161  24.2642250  12.4408321
  31.6357460  23.9158249  13.0099459  43.9403572  43.2252960  71.7633438
  43.2829819  43.8262253  71.4126663  44.2001152  42.6902771  71.0133362
  27.3707333  70.3115463  58.8755493  27.3767891  70.5748825  57.9553032
  28.2875767  70.3635483  59.1455917  71.6140518  12.3557482  13.1334457
  71.0670700  11.7404842  13.6218033  71.9732056  11.8374624  12.4132919
  86.1306305  52.3221817  30.8512096  86.1347961  51.4878387  30.3820763
  85.4292679  52.2308083  31.4961720  69.2225952  23.9983234  22.8591232
  68.4452209  23.6417789  22.4292431  69.5730591  24.6319771  22.2331142
  69.7481003  49.4118309  11.5237350  69.1268005  48.9675102  12.1006193
  69.2050095  49.7876549  10.8308830   0.0719863  52.0449295   0.4392778
   0.9133044  52.4300957   0.6843549   0.2149397  51.1002693   0.4977114
  58.6170158  68.7273560  48.6304779  59.0360870  69.5661621  48.8228798
  57.6791878  68.9077988  48.6949158  43.4827766  49.1561546  50.0554390
  43.7450180  50.0747871  49.9956627  42.6519127  49.1129761  49.5821228
  12.4199543   4.2829437  61.1970940  13.2503948   4.1107492  61.6408844
  11.9853506   4.9350309  61.7467613  49.5139503  29.1783066  19.3439522
  48.9551048  29.9146976  19.5922527  50.1939430  29.1559906  20.0172615
  38.4868584  58.2529984  30.2775269  38.8428421  57.8269272  31.0572529
  38.7520866  57.6865921  29.5529079  63.1936531  16.8350410  80.8828125
  62.6646385  16.0775318  81.1329193  62.6674271  17.2875328  80.2235947
  13.5479803  66.4032211  89.0227509  14.1880388  65.6937637  88.9659042
  12.9006052  66.1963272  88.3487091  69.5711899  18.6459198   2.2640836
  69.1605606  19.4864349   2.0612233  68.8511734  18.0959053   2.5727804
  20.4142952  54.0793457  70.7572250  20.8574486  54.0859985  71.6056366
  19.4844875  54.0084305  70.9732285  53.7568169  61.5142250   5.8071156
  54.6557884  61.6627464   5.5138164  53.7350655  61.8624649   6.6984558
  70.1633530  70.1596909  78.0981827  71.0404510  69.7777176  78.0661316
  69.8005676  69.8570175  78.9306564  66.5993347  26.2542686  48.0868797
  66.4468384  26.7433510  47.2783165  67.2500381  26.7720757  48.5609016
  49.5397263   2.4851425  30.2765694  50.4413643   2.6995597  30.5159569
  49.1042709   2.3145962  31.1117477  34.1349106  47.6549377  56.1376953
  35.0447197  47.4492836  55.9227905  34.1698151  48.5367470  56.5084076
  71.3823700  42.9528961  50.7818642  72.2046127  43.3511925  50.4963684
  70.7313004  43.6468277  50.6778984  11.6976318  59.6340904  79.2362823
  11.3648205  60.4756927  78.9245529  10.9232826  59.0735207  79.2850342
   6.6415315  20.3212814   0.7823715   6.0733037  20.4739685   0.0273644
   7.3006167  19.7038708   0.4651284  59.8975525  41.9163208  74.8631439
  60.7518005  42.3394547  74.7768478  59.3886909  42.2512474  74.1248245
  65.2680206  48.3621254  28.3310680  64.7657166  47.9868660  27.6078110
  66.1510696  48.0107498  28.2170773  28.9772892  63.4213753  66.5388947
  29.8433475  63.8259468  66.5888901  28.6275253  63.4936905  67.4269638
  14.2961245  56.3436356  36.5181885  14.8156939  56.3255157  35.7144737
  13.9802008  57.2451591  36.5788803  67.4666977  52.9586830   1.5417335
  67.9995270  53.5258293   2.0991077  68.0408554  52.7348404   0.8092966
  47.1070900   4.2124882  47.8836670  46.2292938   3.8648779  47.7259598
  47.4251709   3.7242606  48.6430702  76.1516342  12.6807251  43.2681160
  76.2717743  11.7484550  43.0873642  76.6146622  12.8263550  44.0931206
  31.0890198  65.0585632  15.9344988  30.5466919  64.8530731  15.1729965
  30.5610714  64.7862167  16.6850510  15.4097300  34.1447754  23.4710255
  14.6401987  33.8417091  23.9528980  15.2118006  33.9480095  22.5554161
  74.4895020  11.9174747  83.1669312  75.1934280  12.5504723  83.3084641
  74.3652344  11.9056835  82.2179031  85.4651031  53.3287277  77.7916794
  86.0487595  53.3544960  78.5499115  84.6098862  53.5821037  78.1390152
  15.1785421   1.3551176  63.9656563  15.7504721   0.6903657  63.5819473
  14.2929316   1.0232242  63.8180962  55.8565407  60.3866196  40.7502060
  55.8542671  60.6015358  41.6829643  55.7334480  59.4377632  40.7227440
  25.5873775  13.4682264  74.4077454  24.7119007  13.1743612  74.1559143
  26.1222363  12.6747398  74.3846359  62.6360092  36.7551193  32.0398254
  62.9549332  36.4347572  32.8835564  62.2811813  35.9784203  31.6073132
   0.8982244  29.1586933  14.6497507   1.4584383  28.4036293  14.8293915
   1.0556003  29.3596001  13.7271996  74.2153625  22.9390125  61.7845764
  74.4077530  23.8507538  62.0035477  73.5697174  22.9930172  61.0799828
  77.5540390  60.5661926  23.4662514  76.6462402  60.3240242  23.2832451
  77.8927002  60.8776932  22.6269016  20.3922577  70.4991989  40.0171509
  21.2788429  70.8594055  39.9958916  20.1027565  70.6285858  40.9202995
  77.1854630  54.3440933  62.5012207  76.6943588  53.6122665  62.1277580
  77.1879807  54.1748962  63.4433441  52.1425133  15.9870434  18.7281170
  51.1911125  16.0909805  18.7118816  52.3423004  15.7515678  19.6341362
  56.7471504  16.9207802  76.5747299  57.6906166  16.8689423  76.4217072
  56.3700829  16.2894344  75.9619904  61.2742844  53.3198967  65.0312653
  60.4990616  53.7912216  64.7261124  61.9149780  53.4326820  64.3291092
  73.4019775   2.5316396  14.3999014  73.4717102   1.9649534  13.6316328
  74.2960815   2.8363547  14.5547018  34.4846382  52.3951759  42.5306969
  34.3868866  51.4812813  42.7980347  34.8950691  52.8221169  43.2826920
  52.3899498  45.1150093  28.0911369  53.1471977  44.8742943  28.6248627
  52.7240791  45.1299744  27.1942730  32.9540062   2.0670123  73.8296127
  33.5675125   2.5264080  74.4030228  33.4553452   1.8926963  73.0330505
  85.5548096  51.1788177  38.1118050  86.2775192  50.9102173  37.5445557
  85.7551498  50.7815590  38.9593201   5.2245321  50.0855331  85.6532059
   5.7963295  49.4117126  85.2854538   5.4514098  50.8810921  85.1716995
   1.6678662   6.3225751  66.7353592   2.4360061   6.8312540  66.9950562
   1.8166410   5.4551091  67.1116638  54.9839706  64.7941208   0.7699890
  54.4280586  65.4421082   0.3371944  55.6002617  64.5163956   0.0922839
  60.2582588  39.0430908  32.1970100  59.3093033  39.1630287  32.2334557
  60.3819084  38.2823944  31.6293087  65.4061432   1.2881414  26.5839748
  64.7156982   1.5381746  27.1979790  65.3601608   0.3327257  26.5479431
   7.8742442  38.5996704  46.1852837   8.1811295  39.4984093  46.0655899
   7.5903206  38.5631752  47.0986786  13.6781092  49.9529343  64.3198547
  14.0672255  49.7924500  65.1795425  14.4227037  50.1582985  63.7544899
  23.5535831  59.1405258  18.1914444  23.4306355  59.6174927  17.3707047
  22.6767120  58.8360825  18.4252090  31.0184193  10.7017279   9.1478739
  30.3866482   9.9918566   9.2626848  31.0911255  11.1002455  10.0151272
   3.4089458  62.8784981  13.4840488   3.8330851  63.4404793  12.8355789
   2.6032493  62.5865517  13.0576067  72.8176498  38.9671822  38.3205452
  72.3081436  38.8829422  37.5146065  72.7963562  39.9029846  38.5206604
  82.8453674  34.5494728  20.5307541  82.5276489  34.1730576  19.7100258
  83.6431503  34.0581284  20.7266026  53.2249985   9.8638020  18.3818626
  52.7531815   9.8043928  19.2125797  52.8454399  10.6261435  17.9448261
  14.7432117  61.9488525  53.1277542  14.3396873  61.7707672  53.9772758
  14.4288597  62.8215523  52.8915138   5.3688154  55.2901535   8.4818821
   5.9326458  55.8020439   9.0617933   5.9195337  54.5622482   8.1936226
   2.9624345  43.3839569   6.9681988   3.3822148  43.0125885   6.1922474
   2.1051462  43.6772232   6.6595178  29.3819065  41.3997536  85.2616730
  30.1786556  41.0275536  84.8836594  28.7287159  41.3238983  84.5661011
  14.8804817   5.8851752  14.3642149  15.1275854   6.7505035  14.6903734
  15.6630001   5.3488026  14.4914989  65.8171005  45.1584129  83.9848022
  65.6334534  44.8681870  83.0913391  65.4115295  44.4931641  84.5408554
  67.3638153  58.2394714   0.6573635  67.7944107  57.5416107   1.1511378
  67.2536774  58.9483871   1.2910340  34.5251007  38.5242653  84.8577805
  35.0129318  39.1839485  84.3647614  34.7592430  37.6938324  84.4433136
  84.4501419  52.6504021  55.6164055  84.3144379  52.8394279  56.5448914
  85.3914871  52.4953537  55.5386314  80.7500763  61.6453285  70.2168427
  80.6402588  62.5539360  69.9364700  80.1843338  61.5614700  70.9843903
  51.2412949  57.1823959   4.3074918  51.7714539  57.2552490   3.5138576
  51.6637611  57.7714081   4.9326472  72.8165512  35.6789589  78.7672119
  72.7881012  36.1535110  77.9364090  73.5269623  36.0943375  79.2561035
  63.8504219   8.4436674  16.0551319  64.2033234   7.6747823  15.6073532
  64.0770493   9.1781054  15.4846296  19.0443039  39.6335106   5.0865436
  18.9590492  38.9286499   5.7285180  19.4972343  40.3329659   5.5575504
  12.4194307  49.1189499  48.9508972  13.1390209  49.4994965  49.4544945
  12.4431467  49.5807533  48.1128006  16.2100124   7.1760969   7.0540919
  15.7947493   6.4792461   6.5459709  17.1284580   7.1536860   6.7854171
  54.2492867  41.9241524  78.2713470  54.7727394  41.4756584  77.6072083
  54.8780899  42.4698296  78.7436523  35.3377419   6.5982943  17.5330276
  34.9822884   5.7099805  17.5050774  35.8662109   6.6699247  16.7381535
  72.1138840  41.7268028  88.6335983  72.7626190  41.7252884  87.9297714
  72.6327515  41.7039032  89.4376373  10.5939684  47.4609947   5.8499408
   9.7400322  47.8696022   5.9915867  10.9864845  47.4179535   6.7218990
  17.1296673  12.2437315   8.3934097  17.2437439  11.3652086   8.0308971
  17.2933388  12.1391830   9.3306999  67.8243332  28.2911034  61.5332184
  68.6440125  28.3260193  62.0263100  68.0895081  28.0556583  60.6441307
  59.4992905  49.8082390  50.0627022  58.7936058  49.1620407  50.0367088
  59.1956749  50.4695702  50.6845436  18.0434666  40.7820930  61.3312416
  17.9490490  40.4870987  62.2369423  18.8995838  40.4511871  61.0595818
  82.0966492  22.6418076  87.3136520  81.4720078  22.2715168  87.9373093
  82.0406570  22.0682125  86.5494003  39.7717972  46.8407707  23.4273148
  40.0115013  47.5001945  22.7762108  39.3598213  46.1416245  22.9196758
  54.8892059  60.9100456  16.9943523  54.0648575  61.3054123  17.2778492
  55.4115639  60.8459892  17.7938957  39.0552750  31.4061680  72.3095474
  38.1458778  31.1270065  72.4158249  39.0673523  31.8691597  71.4718552
  79.3084946  13.4726124  53.3570747  78.4533386  13.0459566  53.3032074
  79.4818420  13.7750597  52.4656067  15.7506933  57.7898941  31.9594574
  16.3745022  58.4722214  31.7114182  15.6269083  57.2767868  31.1609402
  63.6686554  48.6520691  44.7750778  62.8746834  48.7482681  45.3009949
  63.3804474  48.1883316  43.9888725  54.1815834   0.5353070  42.6640205
  54.7771645   0.6499101  41.9234962  53.4820747   1.1701027  42.5092583
  64.0269852   1.4734496   0.9346935  64.7498627   0.9438296   1.2711228
  64.4497375   2.2488799   0.5656077  21.1762009   1.5430638  74.3607407
  21.6898499   1.4357622  75.1612930  20.2659740   1.4777709  74.6496277
  71.1060257  59.6030807   6.6726007  70.6520233  60.3735695   6.3313289
  72.0096817  59.7057838   6.3741131  83.6136017  59.6925087   7.6457701
  84.3141556  59.7536240   8.2951784  84.0530853  59.8264999   6.8060451
   2.2350328  35.5396957   2.4164762   1.7788584  34.8845940   1.8882921
   1.6404257  36.2896042   2.4339633  45.4648857  10.6996355   7.2577186
  46.0850258  10.0465784   6.9334106  44.7607002  10.7039595   6.6093884
   9.5267258  23.4670639  18.6556320   9.7798567  24.3652782  18.8686314
   8.6955156  23.5566158  18.1894760  81.7355881  40.0360680  38.0635643
  80.8432159  39.7769852  37.8338280  81.6236267  40.7452965  38.6965714
   1.6152630  12.1800499  48.1919556   1.8569037  11.3556929  47.7697258
   2.1596131  12.2148438  48.9785347  10.2290297  44.2868538  79.8018341
   9.8959446  44.9583244  80.3971558   9.6533241  43.5351715  79.9424515
  18.9785252  43.3969307  60.0591660  19.2112675  42.5667419  60.4749184
  18.1288376  43.2304955  59.6510468  34.1438408  40.5626564  10.0590706
  35.0551605  40.7960129  10.2359257  34.1856384  40.0066223   9.2810545
   1.2453643   9.7107058  31.5278969   1.4607483   9.1056185  30.8181705
   1.2591866  10.5755053  31.1178207  82.8282623   1.7271621  43.9281235
  83.3837662   2.2132607  44.5375099  82.6339035   0.9075961  44.3828430
  10.5899191  63.8110619  88.4783096  11.3578091  63.4758759  88.9411545
  10.0730171  64.2466736  89.1560135   1.9311713   5.4491773  70.1957169
   2.0497229   4.5475855  69.8968658   2.2244227   5.9860497  69.4595032
   1.2073393  54.1413994  44.8311234   0.8465613  53.7692032  45.6358223
   0.7122316  54.9497375  44.6981201  37.8551025  60.4511871  31.5089226
  38.0838051  59.7011604  30.9599380  37.3455887  61.0222740  30.9340439
  43.1124077  36.0249176  59.1370659  42.6532173  35.4462051  58.5284004
  42.7703400  36.8974190  58.9422226  68.1130905   4.0323238  43.2311211
  68.2351456   3.2040617  43.6951447  67.7019806   3.7845759  42.4029655
  31.2449760  60.4462624  18.6518097  31.4270401  61.3215408  18.9938221
  30.2896271  60.3883171  18.6383343  77.6527863  37.6494637  30.8162746
  77.7596130  38.1130295  29.9856586  78.3381424  36.9813042  30.8075352
   7.5538988   8.2590485  24.8065968   7.8733840   7.3653836  24.9311886
   7.1195679   8.4753485  25.6317043  65.2409592  36.2859001  29.5306072
  64.5228882  35.8403091  29.9801159  65.4450912  37.0355110  30.0897560
  25.6355019  69.7740707  35.9306984  24.9929523  69.5731735  36.6111412
  26.4805107  69.5704041  36.3315887  24.9421482  51.4724197  11.6678286
  24.6702976  52.0420341  12.3874598  25.4419346  52.0443764  11.0853252
  86.0601196  10.1458330  20.4471474  86.9451675  10.4243402  20.2118530
  86.1819916   9.5785608  21.2084484  46.5208588   9.5999632  10.0042086
  46.7875862   8.9957323   9.3113928  47.2601395   9.6086321  10.6121731
  81.2068176  55.1229935  69.2509537  80.9951935  55.0197220  70.1787415
  81.1302414  56.0636368  69.0910873  70.6127930  40.8291664  30.6610870
  70.4947510  41.2981644  29.8350506  71.5618668  40.7824211  30.7764664
  51.8350945  59.1145859  53.6209183  52.5789185  59.5972900  53.2604332
  51.4116135  59.7351494  54.2140427  54.8575821   5.1955872  62.0349159
  55.7222099   5.5743065  61.8761024  54.9721832   4.6568899  62.8177986
  62.8231850  25.4917717  10.1476650  63.7272797  25.4991169   9.8333549
  62.3981094  26.2047634   9.6710253  83.1457901  59.1594810  68.1190796
  83.9578629  59.2791672  67.6266861  82.6373672  58.5400352  67.5956039
   4.0171390   2.1094406  64.2843857   4.6806717   1.9705076  64.9601517
   4.4921947   2.5232275  63.5637398  55.0565262  44.3958778  67.8698425
  55.4747009  43.5575066  67.6736374  54.8511314  44.7676353  67.0120316
  18.0222301  15.9100456  11.1488323  17.8877220  16.0499554  10.2115145
  18.8464203  16.3569088  11.3418522  66.3246613  63.1945038  71.1249771
  66.4084091  62.2497635  71.2541351  65.5415039  63.4354019  71.6198120
  36.8066940  68.6436615  78.9907150  37.7210388  68.4615936  79.2076416
  36.7782440  69.5896988  78.8477554   0.3437445   6.1179862  28.1524487
  -0.4914898   5.7518959  28.4432983   0.1849483   6.3878999  27.2479267
  44.9088326  26.0669384  73.6902847  45.7238846  25.7984333  73.2662201
  44.8957710  25.5798817  74.5141983   6.9066000  24.0416546  85.3580246
   6.6386929  24.9451981  85.1904907   6.9558420  23.6415462  84.4898605
  69.2216339   7.6704068  46.4830551  69.9555359   7.0565186  46.5107155
  68.9921799   7.7277641  45.5555344  52.7018585  64.2946014  79.1835175
  52.0116959  63.7943382  79.6190033  52.3940964  65.2005844  79.2100677
  67.3740997   9.0416899  77.8926239  68.2482452   8.6518002  77.8834610
  66.8044128   8.3447962  78.2182465   7.5282569  66.3247833  62.9126701
   8.2951841  65.7551651  62.9726181   7.2868104  66.3047256  61.9866371
  78.4016800  58.1016235  25.1866760  78.2550430  58.9967346  24.8808823
  78.7783661  57.6493340  24.4318447  69.9821091  43.2305946  87.5206146
  70.4539490  42.6989174  88.1616440  70.6505737  43.4910240  86.8869324
  60.9196777   0.1633487  42.5369720  60.5210724  -0.0203185  43.3876266
  61.8415070   0.3283603  42.7350464   8.1085196  62.9857597  16.3155956
   8.5796309  62.1610260  16.4343433   8.3807449  63.2948341  15.4515362
  31.0866184  63.6289330  38.6147804  30.4069653  63.9277382  38.0106125
  30.6468391  63.5772133  39.4633980  77.1474457  15.8138494  80.1515579
  77.1207504  15.4702082  81.0445480  76.2279587  15.9279652  79.9112473
  50.1714821  33.1555481  53.2391472  50.4747887  33.9971924  53.5795517
  50.5031319  33.1266060  52.3417053  50.0416756   2.1857643  12.9098310
  49.7443810   2.3119981  13.8108921  50.9918671   2.2926431  12.9539309
  50.0312729  32.5693092  44.1161041  49.6782646  33.2102318  44.7332230
  50.1942520  31.7898903  44.6473083  68.4805984  61.7205276  67.1296616
  68.8583145  61.7079315  66.2502289  67.8334198  62.4252510  67.1023026
  37.0209770  42.6493454  71.4330139  37.6757317  43.1971970  71.8658905
  36.2576752  42.6877594  72.0093231  36.4836006  53.0924110  30.8414707
  36.3785210  52.5816803  30.0387573  35.6406441  53.5304871  30.9586983
   6.5665336  52.7601395  37.0679283   7.1063399  52.7217674  37.8574677
   6.1932516  53.6415215  37.0756035  17.9497261   0.5037288   1.4181042
  17.0615406   0.6925507   1.7209295  18.4814377   0.5142617   2.2139714
  48.9407730  59.3110313   6.1154699  49.1897240  60.2090950   5.8969769
  49.6562958  58.9910774   6.6649165  58.6499214  36.2367554  54.8653259
  59.3177872  36.9210739  54.8218307  57.8239059  36.6988029  54.7223396
  35.7664070  50.1388931  65.2151337  36.6959076  50.3666534  65.2346802
  35.7081718  49.4243927  64.5808411  33.6153870  13.9441385  84.8724518
  34.2249947  13.2718458  85.1768036  33.7565575  14.6818085  85.4658737
  62.8953171  36.6529274  23.7337170  62.4543190  36.9301605  22.9306622
  62.2615852  36.8308983  24.4286556  71.1079788  29.3412685   4.9059706
  70.4594803  30.0443077   4.9436812  71.9505997  29.7880688   4.9871240
  47.8874931  32.1548157  54.6758156  48.7782402  32.4564934  54.4975052
  47.3485527  32.9424019  54.6017609  70.1350098  71.7316513  45.4274940
  71.0541534  71.9970627  45.3965187  70.1091309  70.9018784  44.9509964
  26.9260292  58.4907379  74.8276672  27.0327396  58.7210197  73.9047241
  26.8242779  59.3313484  75.2740402  53.2286758   4.9169607   7.4296813
  52.8995132   4.7827234   6.5409393  53.4044952   5.8564954   7.4806147
  60.5709190  65.3929977  13.6544752  61.4197311  65.1579132  14.0292921
  60.5496216  64.9439545  12.8094082   3.6878123  63.4921799  21.1291199
   4.4797573  63.2518921  21.6100731   3.8875029  63.2796211  20.2174320
  84.6805267  71.1772156  53.9903297  84.6623306  70.9802780  53.0537834
  84.5114441  70.3363190  54.4152336  77.2611084  38.5242958  27.7979336
  76.3613358  38.2219238  27.6746311  77.8011627  37.8276443  27.4247627
  69.3428268  31.5052681  70.7126541  69.5138931  30.5981865  70.4593353
  70.2047729  31.8595276  70.9312286  64.5312958  10.4661589  30.6383305
  64.4626923  10.6345234  31.5781059  64.1883163  11.2596073  30.2271900
  28.9226265  12.9944143  13.4764881  28.0515556  12.5980139  13.4947367
  29.1868000  13.0345755  14.3956356  72.8078156   1.0812366  79.4821243
  72.4117126   0.5546582  80.1764221  72.7478867   1.9818457  79.8007812
  30.0711308  64.6792526  23.1727314  30.5782318  63.8722382  23.0843773
  30.5063038  65.3006897  22.5890579  26.2480583  68.7121277  43.0503273
  25.9562321  69.6200256  43.1327362  26.9031582  68.6075439  43.7403564
  76.8159714   3.8205013  81.5130997  77.1246033   3.3255980  82.2720795
  76.3977814   4.5961595  81.8868637  84.1447906  27.1867638  65.2930450
  84.8212051  26.8423748  65.8762207  84.6301346  27.6520252  64.6117249
  32.7502403   4.3191447   1.8406521  33.0734367   4.3027663   2.7414882
  32.3955650   5.2012272   1.7294414  60.6639519  60.5650291   5.9462032
  60.7947235  61.4291954   6.3365202  61.5381660  60.1756020   5.9281311
  82.2755966  29.6233730  86.0966339  82.7308960  30.0427418  85.3665237
  82.9752579  29.3497906  86.6898117  11.2435369  62.4747581  78.9058151
  11.8253088  63.2237854  78.7764511  10.3657303  62.8238029  78.7513580
  17.2664585  57.4963837  18.9857731  17.1628742  58.3419075  19.4223442
  16.3740082  57.2299194  18.7649593  34.4792709  53.2565880  19.4368572
  34.7888031  53.9584274  18.8642807  35.2786484  52.8387680  19.7572479
  19.0500221  43.1650352  83.2675476  18.2350731  42.8490410  83.6577225
  19.7140007  43.0067329  83.9385986  21.6742535   1.9372132  57.4168854
  21.4044399   2.6688917  56.8618355  20.9347572   1.3300848  57.3890762
  23.1046352  28.0999355  76.8958282  22.6021461  27.4294815  77.3586731
  22.4678345  28.5200500  76.3177109  22.1723537   7.5495663  74.9090271
  22.8952732   7.2810192  75.4760437  22.1303635   6.8698993  74.2363281
   2.8489053  65.6898956  45.1219101   2.0693738  65.1756439  45.3319321
   2.5645375  66.2826385  44.4261971  25.6980133   2.9208264   9.0966473
  25.5827637   2.2648571   8.4091492  26.6460304   3.0364666   9.1608610
   3.0761750  62.8866920  29.9236870   2.3300300  62.6044693  29.3946781
   3.5810692  63.4548187  29.3418388  31.4389820  57.3094406  77.8341446
  32.3170242  57.1435509  77.4909897  30.8965530  57.4320107  77.0550537
  36.2556267  16.8566284   9.0738459  36.4373894  16.0874538   8.5338793
  35.3501587  17.0868797   8.8656397  38.3183174  65.0981216  30.5278225
  38.5364037  64.4316635  31.1793594  37.8121643  65.7502136  31.0123997
  48.3623695  19.4018402  58.5037079  48.1295624  18.6623707  57.9422646
  47.7917023  20.1128826  58.2121773  37.2610931  39.5082626  10.0306082
  37.5597076  40.3741570   9.7526016  38.0133934  39.1302681  10.4860125
  52.9629021  12.8172073  74.2328186  52.0289993  12.6232100  74.1526871
  53.3678360  11.9710159  74.4231415  31.4358807  34.5875740  10.8794003
  31.3194790  35.1129379  10.0877733  32.1078110  35.0520134  11.3784342
  16.4444561  44.5248337  32.4925461  15.5002604  44.3750992  32.4445305
  16.7452087  44.4498749  31.5869179  44.8500557  28.3908310   7.2108226
  45.5005417  27.8114281   7.6075506  45.2483177  28.6688709   6.3860111
  66.8760376  24.8422050  27.5917912  66.9639511  24.0320740  28.0939808
  66.1634979  25.3146954  28.0222225  62.3660698  41.5196533  37.4142456
  62.8434677  40.8971558  37.9627151  61.4440918  41.3551064  37.6119995
  21.2350578  63.2765884  75.1707535  20.3587284  63.6088066  74.9760513
  21.5521717  63.8377266  75.8784180  17.5048485  59.1082840  23.9080830
  18.0127296  58.8646812  24.6819992  17.9525642  59.8798027  23.5608864
  23.3305893  34.5273285  67.6859283  23.4445400  35.4017448  68.0582733
  23.3054008  34.6712418  66.7399445  41.6051598   2.7059109  53.6927223
  41.5044670   1.9174793  54.2260780  40.7158279   2.9190810  53.4100952
  37.6575851  29.9775333  21.3171139  36.9246292  30.5734463  21.1625328
  37.4926796  29.2381897  20.7319565  81.8322449   8.6438684  55.1040764
  81.5354462   8.9512243  54.2475243  81.3768082   7.8115649  55.2308846
  13.9596758   5.4488335   1.3177079  13.2198467   4.8619084   1.4739242
  13.5568027   6.2849221   1.0834405  22.1039982  48.9594460  59.1356125
  21.4463482  49.2206116  59.7802200  21.9160824  49.5008011  58.3688965
  53.2629814  59.5768166   1.9989038  54.0008392  60.0873337   2.3323247
  53.3968773  58.6996880   2.3580017  24.7185898  28.3097706  16.1557961
  24.1259747  27.8064194  16.7140770  25.1909409  28.8809338  16.7615108
  13.3003168  18.1373940  19.9049492  13.6481485  18.7778168  20.5255165
  13.2414637  18.6138229  19.0768280  24.3564358  64.4622955  75.2391281
  23.4518452  64.4947357  74.9278488  24.3140163  63.9480057  76.0453186
  32.0883713  53.5971146   4.0041738  31.7035141  53.7544632   3.1419921
  32.3693047  52.6824493   3.9777527  53.9029617  41.6158867  83.4122009
  54.6561394  41.0536880  83.2308502  53.2345276  41.0194244  83.7493362
  45.9301643  20.9529057  27.2991562  46.2927971  20.8214703  26.4231110
  45.8974113  20.0749207  27.6790257  67.5490189  32.3148842  19.9244022
  68.4967957  32.3618584  19.7989292  67.2605972  31.6330242  19.3176785
  78.5577469  11.9159479  70.4054642  79.1447983  12.5833435  70.7606964
  77.6935120  12.1539516  70.7411575  55.1724815  48.5161514  67.7786560
  54.5740738  49.0475922  68.3037338  55.6014748  49.1431389  67.1963501
  21.5910587  15.1119719  52.9228134  21.5603123  14.1564922  52.9712410
  21.5842171  15.3984270  53.8361168  49.5476723  54.1755028   3.1501346
  49.6107941  55.0561905   2.7804897  48.7785683  53.7930183   2.7277460
  82.5026093  21.3109722   9.4709501  82.4400558  21.7915325   8.6454926
  83.3211441  21.6146126   9.8634291  63.4910583  19.8454781  45.4815445
  62.8598022  19.1260662  45.4954681  63.6938362  20.0040684  46.4034805
  42.8191032  24.9697647  15.5095758  43.0203285  25.0355015  14.5760775
  42.8444557  25.8734016  15.8242674  84.5233154  52.3609962  63.5014725
  85.2293854  52.9734573  63.7078667  83.8839111  52.4875755  64.2024536
  70.1720886  11.5628366  82.3702316  69.8716049  10.6667776  82.2185135
  70.0458755  11.7020979  83.3087997  80.5758057  42.4486771  33.4147148
  81.2775269  43.0995750  33.4024467  81.0298462  41.6080589  33.4733200
  38.5851822   7.9752674  86.3359528  39.1585693   7.3729362  85.8619766
  39.0317116   8.1252604  87.1692276  54.0885582  44.9665718  22.0751457
  53.7159271  45.8476219  22.0415173  53.6422234  44.4908485  21.3746452
   4.2884521  69.4935532   8.9917240   4.2666607  69.8835831   9.8655844
   3.3948674  69.5921707   8.6630707  51.5768623  48.7603645  58.2242966
  51.3627701  49.6393776  58.5369110  50.8821983  48.2046776  58.5776901
  57.2644539  13.1189537  45.4394913  57.3137093  12.3876438  46.0551147
  57.5555115  13.8777561  45.9451981  49.2935333  71.6638260  17.9468555
  49.1538315  72.2347717  18.7023277  49.3296738  70.7817154  18.3167248
   5.2876987  66.6253128   3.8614709   5.3509068  66.8805847   4.7818370
   5.6681333  65.7475357   3.8297043  48.7795677  22.0471554  21.9519444
  49.4542656  22.5025978  22.4555149  48.0195007  22.6277504  21.9899292
  69.4711304  32.5865555  14.9631138  68.5890350  32.8171234  14.6715899
  69.9238358  32.3147278  14.1647434  66.8390579  54.0325317  79.2412109
  66.3296127  53.9446144  78.4356232  67.5796051  54.5876274  78.9969025
  43.4762039  26.5552120  13.4232788  44.4120979  26.7272034  13.5269928
  43.1475372  27.3074989  12.9310646  47.3192558  67.7360687   7.9049449
  46.6072350  67.5666809   8.5218430  48.0459328  67.2017059   8.2253151
  42.7110558  43.8079529   1.0378999  42.0433159  43.8657227   0.3545100
  42.5046997  42.9992867   1.5066377  54.6925163  71.3618393  81.8412704
  53.9610062  71.4722137  82.4486694  54.3063278  70.9355087  81.0762024
  53.1952324  32.9194412  74.6464539  53.8474808  33.6020851  74.4889679
  52.4051170  33.3968925  74.8994141  26.9694309  34.0006790   2.6582439
  27.2867966  33.1966286   2.2471244  26.7160416  34.5608978   1.9246370
  83.9001541  28.1000576  70.4398727  83.4550476  27.7327957  69.6761780
  83.1911087  28.3868446  71.0154114  35.3342133  49.8720818   0.6720473
  36.1134186  50.2606926   0.2744941  34.6050529  50.3795242   0.3155993
  81.8885345  44.5131798  74.5474625  82.8058167  44.5260391  74.8207016
  81.5855331  43.6321564  74.7670670  86.7285004  22.3051720   4.3132501
  86.3740463  22.8990345   4.9750094  86.0575790  22.2788868   3.6310427
  50.3814964   9.4351110  16.8989487  49.4399376   9.5543079  16.7744770
  50.7656975  10.2712116  16.6352177   5.1057000  65.3975677  81.4456024
   4.3159542  65.3004227  80.9135361   5.0553050  66.2898712  81.7883759
  82.9125061  55.0247231  47.0069580  82.1345901  55.5088615  47.2838707
  83.5578384  55.1957550  47.6929092  45.0889854   1.7250021  16.3740807
  45.4868622   1.6440084  17.2408924  44.2512169   2.1592500  16.5347137
  63.4392548   4.9115696  34.1471062  62.6404190   5.2922344  33.7821503
  64.0407257   5.6515002  34.2305336  81.0070343  45.9333267  61.0286942
  81.0389252  46.8557510  60.7750282  81.1712570  45.9384308  61.9716873
  52.6039848  71.0295181  83.4377518  52.4121170  71.9312897  83.6951141
  51.7602425  70.6762466  83.1557465  52.0796661  59.6637268  23.7752743
  52.2936707  60.1918907  24.5443497  51.8780327  58.7971840  24.1283836
  45.4331131  48.5296173   7.3812723  45.8064308  47.6519356   7.4621592
  45.0642090  48.5525475   6.4983134  42.3640976  13.8258562  67.5747757
  43.1132774  14.1529675  67.0768280  42.2786102  12.9112291  67.3057404
  68.9838943  35.5254250  73.4018707  68.7080231  34.9386749  72.6977081
  68.1878815  35.9978027  73.6456985  11.3519154  67.5760956  39.8950348
  11.9718761  68.1964951  39.5116577  11.8938332  66.9945602  40.4283028
  25.3481369  47.0832596  68.1479034  26.1406975  47.1208801  68.6833115
  24.6334152  47.2305412  68.7673492  68.6165237  50.0226250  44.7667694
  69.5054703  50.1365318  44.4305611  68.0504837  50.2886353  44.0421600
   1.1158288  52.0271492  86.9868164   1.3473184  51.1389732  86.7151794
   0.2549641  51.9359818  87.3952713  34.6912880  52.1866989  80.6881104
  34.4913139  51.2658691  80.5198364  33.9092026  52.5259705  81.1233978
   1.1744982  63.4688339  47.6284256   0.4369056  64.0781708  47.5984192
   1.3853992  63.3937035  48.5590744  40.8877716  61.0633163  77.6182861
  39.9559479  60.8900948  77.4843750  41.0876198  60.6590614  78.4626007
  75.0269852  37.0636063  45.1256790  75.5765305  36.4731064  45.6409798
  75.2845688  37.9403229  45.4107246  19.3183956  49.1305618  50.9737701
  20.1375713  48.6356621  50.9577332  19.1321526  49.3153648  50.0532303
  78.0366211  57.9840164  15.7928247  77.5220795  58.2016640  15.0155849
  77.8217850  58.6720238  16.4226818  11.8376236  10.8503885  31.9325981
  11.6437531  10.4600782  32.7848320  12.3025436  10.1635332  31.4547787
   4.7850146  66.4854202  24.8917961   4.0088277  66.5403366  25.4492455
   5.3983870  65.9433823  25.3879795  85.5206833  19.8726120  16.7470093
  86.1473160  19.4030323  17.2975216  85.5517731  20.7749615  17.0648651
  24.8360939   8.4140301  70.9594650  25.0579376   9.2053404  70.4687042
  25.4737930   7.7633948  70.6657867  64.8255692  11.1031446  80.2940979
  65.7373810  11.2374477  80.0356674  64.3753891  11.8970261  80.0054474
  79.7350235  71.5823059  34.0680122  80.6374130  71.4024734  34.3318100
  79.2102356  71.3456039  34.8327370  36.1301918  28.4094200  86.4766617
  36.1126213  28.2708817  85.5297012  35.8207245  27.5821419  86.8455353
  74.2651825  35.8122559  10.2860880  74.5381851  35.8447075  11.2029572
  73.4072495  35.3882751  10.3064985  75.1327515  20.5873585  13.7493658
  74.4444427  19.9656143  13.9857769  75.0084457  21.3221378  14.3500986
  54.1226730  56.9543266  79.2569046  54.3037109  56.3898811  80.0084763
  53.1972198  56.8054619  79.0629807  70.3286514  24.9915009  62.4737663
  70.5060425  24.1419163  62.8774643  69.3736420  25.0438137  62.4356003
  53.0430489   7.2307668  25.7692833  53.0321236   8.1872187  25.7330589
  52.1263237   6.9853320  25.8942337  76.6302719  40.4612770  15.4582605
  76.6744537  39.5509872  15.7509232  75.9508972  40.4633675  14.7839594
   9.1965904  28.7107372  86.0530472   8.9730101  29.3527565  86.7268829
   8.8022251  27.8942966  86.3598557  44.3238602  61.0584030  62.3033905
  44.2662506  61.5886421  63.0982246  43.4962883  61.2168808  61.8492508
  22.4801636   4.7445121   7.9042835  22.9225655   4.5465550   8.7297077
  22.3021736   3.8876960   7.5164461  20.3565617   7.3493185  43.3807259
  19.8632011   6.8028331  42.7690239  19.8137608   7.3769102  44.1686592
   8.7914343  63.8015633   3.8160820   9.4498091  64.2732697   3.3059180
   8.3016977  64.4883728   4.2684951  40.9707069  -0.3675360  35.2128487
  40.7838173   0.2973542  34.5501099  41.3263931   0.1249530  35.9525604
  84.0705719  57.7990875  78.7574615  84.6301575  57.5582848  79.4957733
  84.6787949  57.9398689  78.0318756  30.7202911  55.7298813  19.6592541
  29.7829437  55.8972664  19.5613003  30.8040485  55.3379250  20.5284977
  44.3609161  51.5405846  37.4355278  44.5231094  51.1596832  38.2985687
  44.5270576  52.4760895  37.5515480  27.6495132  13.4711666  88.0942001
  28.3971081  13.7678452  88.6131516  27.4873257  14.1853037  87.4778061
   9.5184813  36.1023254  38.4269333   8.5912542  36.1945839  38.2079124
   9.9692392  36.6755142  37.8068504  54.5511742  62.9810524  12.1939697
  54.0160332  63.6236458  11.7282085  55.4454041  63.3139496  12.1180487
  31.8229542  52.9557610  19.8107681  31.6068268  53.7398109  20.3155308
  32.7255630  53.0962753  19.5247841  60.7258530  42.4331055  59.8196907
  60.9122238  41.8258133  59.1036644  61.0480995  41.9864616  60.6025696
  78.7653427  26.4287891  41.8557816  79.0028687  26.0445538  42.6996880
  79.5486908  26.9050236  41.5804672  30.0099773   7.5389748  52.9334259
  30.6407890   7.0621848  53.4728508  29.1610851   7.3480821  53.3323936
  57.6747246  15.4274206  22.7590218  57.9537163  15.9719925  22.0229244
  58.4909554  15.1549969  23.1782932  73.9031143   8.4878368  40.1465683
  73.3776550   7.6991644  40.2811928  73.9381027   8.5929213  39.1957970
  40.7449112  36.8621101  55.9258652  41.4128113  37.0308647  55.2612877
  40.8681107  35.9424896  56.1611366  20.1243095  56.5119286   2.1548057
  19.3551369  56.1014862   1.7596567  19.8473797  56.7335281   3.0438695
  51.0374680  54.5754662  47.7551117  51.6202202  55.3312950  47.6819305
  50.5507584  54.7258606  48.5654984  14.0870390  69.2193451  20.0156307
  14.5011854  68.3564453  20.0261822  14.8188391  69.8363266  20.0215187
  75.9607468   9.4075203  81.4537048  76.5133972   9.5270157  82.2260590
  76.3640289   9.9586916  80.7830276  40.8868561  62.3279228  31.5536671
  39.9894180  62.6042595  31.7393398  41.1219597  61.7657852  32.2918816
  32.3634720  48.3204918  89.2083206  33.2182655  48.0552139  88.8689346
  31.7877789  47.5815353  89.0114670  32.1098175  41.5257530  84.6152267
  32.0775833  42.4666481  84.7881699  32.6522675  41.1711884  85.3196869
  16.6814728  60.3256569  10.9552708  16.7994232  61.0583649  10.3507366
  17.5675831  59.9992523  11.1117868  10.8762245  48.5619049  42.3019791
   9.9405451  48.5332603  42.1021957  11.1608191  49.4221153  41.9933128
  62.6980934  30.9068031  70.1249008  63.1464729  30.4133530  70.8117065
  63.3903008  31.1386852  69.5057831  55.1744156  46.4637871  69.7704315
  55.1531754  45.7794304  69.1015244  55.1414185  47.2828674  69.2762222
  11.1948900   1.6401664  34.6476402  10.2517262   1.5080271  34.7436218
  11.2790976   2.5350444  34.3185005  21.4470787  26.2408295  77.8567200
  21.6584778  25.9110069  78.7300797  20.5830898  26.6410713  77.9544983
  55.7029800  70.6650696  20.0800667  56.4682159  70.2935181  20.5189266
  56.0334587  71.4529266  19.6484394  18.8730869   8.7777834  65.3249893
  18.9381104   8.0783806  64.6747284  18.5840893   8.3362322  66.1235809
  37.4534187  24.7718678  12.9833441  37.1442566  24.9450417  13.8725348
  38.4076004  24.8077755  13.0502796  43.4180527  58.0961266  60.1879883
  44.3388252  57.8625755  60.0702400  42.9362335  57.4140396  59.7201843
  37.5841293  24.4099636  73.5322113  37.5003395  25.3247128  73.2630463
  37.9747581  23.9725227  72.7757111  44.4048347  11.8264494  73.7757187
  43.9698181  11.1499205  74.2946625  44.1731987  12.6474037  74.2100143
  69.8377762   8.4981890  49.3521500  69.3698578   7.9301882  49.9642410
  69.3596878   8.4074173  48.5278778  58.5722580  27.0328941  38.1706924
  58.4604721  26.5113831  38.9655304  59.4562340  26.8234196  37.8691368
  86.2071457   8.0588369   8.4582844  86.9155579   8.6956177   8.3639812
  86.3885727   7.6200566   9.2894211   7.5448351  16.6591702  84.5408554
   6.8230915  16.2485886  85.0170288   7.1308799  17.0569153  83.7749100
  17.9025078  65.1358261  53.3711700  16.9866142  64.9488983  53.1651840
  18.3068619  65.3162155  52.5225296  12.1408911  39.4277458  49.3833122
  12.7161236  39.2714500  48.6343727  11.2897415  39.6280556  48.9938889
  39.8692513  18.9926701  60.8500481  40.4730644  18.6766949  61.5222092
  39.0121231  18.9866447  61.2761078  19.1342812  67.2561264  74.8307343
  19.4224472  67.9463043  75.4281006  19.0662422  67.6889496  73.9796982
  47.5014915  40.6076050  38.1615524  47.2809982  40.1511383  38.9734955
  48.4576569  40.5824890  38.1247330  20.4272499  70.9709778  45.1487846
  20.0536766  71.0144958  46.0290031  21.3620834  70.8236542  45.2923622
  37.6854553  61.5216789  11.2859964  38.3590012  62.0737190  10.8887339
  37.7298355  60.7001610  10.7967453   0.7052223  31.2635441  59.8980446
   1.3815814  31.6524086  59.3434715   1.0196222  30.3765240  60.0729141
  39.5054779  13.5148735  73.5417633  38.9574471  13.3648367  72.7714539
  39.8350220  14.4067326  73.4312210  25.9821739  41.9288979  62.7116013
  25.4613838  41.3168488  62.1916008  26.0257549  42.7212105  62.1762733
  22.7457848  57.2262230  50.9984322  22.7010746  57.0658417  50.0558243
  21.8767300  57.5561447  51.2267418  53.9626541  55.4422989  61.3962173
  54.6997070  55.6280670  61.9780045  53.2058945  55.3841400  61.9794502
  44.7063866   7.8305721   3.0639329  45.2283783   7.8018899   2.2621017
  43.8684349   8.2041626   2.7909846  67.5251007  57.9214706  75.2348785
  67.5465012  58.4258690  76.0481186  68.0802383  58.4157600  74.6317825
   7.5460477  56.4874153  31.2581291   7.9757113  56.1094780  30.4908066
   7.3343930  55.7340889  31.8094330  20.0103378  35.8780899  65.9279633
  19.2247066  35.3492622  65.7888489  19.7067795  36.7826653  65.8516235
  69.0969086  63.0885620  85.4147415  68.6482849  62.8799515  86.2341614
  69.9636307  62.6933899  85.5088730  38.8979912  22.7923679  71.9060287
  38.6576424  22.1428394  71.2452850  39.0909157  22.2771301  72.6893158
  38.4363670  67.0280609   0.4497025  38.8670120  66.8573990   1.2873505
  39.0718956  66.7460556  -0.2081791   4.9730401   1.4769802  40.4808235
   4.6541677   0.6512576  40.8451500   5.8531332   1.2747079  40.1634064
  20.7705975  47.1235046  82.0093307  20.4252491  46.9828568  82.8909149
  21.6263752  46.6947517  82.0161133  82.8157654  37.1580353  51.2561836
  82.3787613  37.9725227  51.5049133  83.7472382  37.3783531  51.2495537
  16.7016621   1.7553341  81.3846893  17.0879745   2.4267359  81.9470215
  17.3480034   1.6227890  80.6912155  55.5449944  12.6333485  40.6352501
  56.4657135  12.6583538  40.8957901  55.0734062  12.9910326  41.3875160
  80.9149704  57.2584534  25.9568901  81.1392136  56.5927963  25.3066216
  79.9780884  57.4095268  25.8317242   0.6961581  34.3036194  57.4155617
   0.3776997  33.8010788  56.6657143  -0.0347835  34.3008614  58.0335808
  47.7727814  46.8464355   0.8618658  47.3087273  47.3388939   1.5388986
  47.5815620  47.3165054   0.0502599  76.5621490  36.1046066  61.7661247
  76.5418396  35.4902649  61.0323639  75.6753769  36.4630890  61.8029785
  71.2916870  50.6139450  43.7814445  71.7152863  50.3261337  44.5901222
  70.9681854  49.8073006  43.3803139  -0.2079185  61.5078430  41.5019569
   0.3484267  60.9377480  40.9711952  -0.0450674  62.3870239  41.1602707
  81.4506226   6.7056637  86.3560715  81.6375351   7.4959769  86.8627319
  81.1966019   7.0296407  85.4919281   8.1663465  36.1560898  53.4661903
   7.9280090  35.2666283  53.7275009   8.4412766  36.5791473  54.2796173
  78.3952026   8.8856535   8.1049423  79.1605759   8.5913782   8.5987358
  78.1528244   9.7173862   8.5120106  72.9425278  21.2968388  43.0613899
  72.6130447  22.1846638  42.9219780  73.7031860  21.2302608  42.4841499
  65.2440720  30.9913521  71.6830902  65.0831604  31.9082050  71.9060669
  64.4344482  30.5407753  71.9233475  16.8975639  21.6109200  18.7064419
  17.3736668  22.0958424  19.3805389  16.8279839  22.2238789  17.9745445
  26.3950272  41.7130814  73.0693893  25.6773205  41.8362541  73.6906433
  25.9615326  41.5650673  72.2289124  52.6682663  17.9127617   9.0658216
  52.5329437  17.6871929   8.1454744  51.8889923  18.4136829   9.3067331
   1.5081177  52.0442162  41.2754211   2.1677082  52.3252335  41.9096184
   1.8800735  51.2581940  40.8753662  58.6990471   6.7328191  15.7079601
  59.3288498   6.1259313  16.0968933  57.8439064   6.3870955  15.9637699
  46.7423325  53.1076241   6.6618347  46.4407196  52.5169640   5.9716334
  46.9479218  53.9236984   6.2057767  55.9870529  14.3784475  71.7242050
  56.1631241  15.2801704  71.4556427  55.1667900  14.4304857  72.2148132
  77.4177322  35.0906563  52.7322311  77.0509262  34.5662003  52.0204544
  76.6679230  35.2927055  53.2918625  54.6809044  62.9385796  36.3403816
  54.6241074  62.4222565  35.5363770  54.8103256  62.2903442  37.0326767
  36.0958290   1.0283147  72.6494141  35.7605934   0.2315076  72.2383804
  35.5713425   1.7329164  72.2690430   9.3975668  18.2855911  17.7457905
  10.0186262  17.5655537  17.8556137   9.9473572  19.0598469  17.6254139
  52.8413315  16.5898075  51.6970634  52.5799866  16.8022804  52.5930443
  53.7960434  16.5312538  51.7335510  16.8957462  49.5594826  18.6729641
  16.1766605  50.0083199  18.2283363  17.4779472  50.2637863  18.9579773
  67.2605133   5.6145005   6.0141001  66.4904327   5.5852575   5.4463406
  66.9187775   5.4375334   6.8905301  20.6265926  62.3177757  54.2586479
  21.1457748  62.1453514  53.4731865  20.6049881  61.4795151  54.7202606
  21.8434086  28.6408024   1.0017028  21.2216759  28.7489223   0.2819872
  21.7488937  27.7252064   1.2643474  74.9472046  68.1044464  24.8940601
  73.9997711  68.0861588  25.0292225  75.2597275  68.7924042  25.4816589
  57.0023308  69.5849152  55.6414719  57.0166206  70.2330627  54.9372559
  56.3341904  69.9046555  56.2477570  74.4001083  19.7609367  18.0608559
  74.4575577  20.7128906  17.9789104  75.2651978  19.4946995  18.3722534
  39.3251266  10.0423927  71.1564484  39.7569466  10.4945431  71.8812408
  39.5485458  10.5609589  70.3835297  69.3866577  18.4237843  77.2086105
  69.4315186  17.5019073  76.9549179  69.0525208  18.8702984  76.4306564
  11.1370268   6.1229243  52.5402412  11.7192450   6.8824940  52.5226784
  11.6856375   5.4080424  52.8630447  34.4141998  70.0298233  40.5119247
  35.2725143  70.2072601  40.8966866  34.4701958  70.3879547  39.6260109
  20.4091549  28.0219078  11.0204134  20.2322311  27.7797928  10.1113977
  19.7370777  27.5641155  11.5253611  73.5141144   0.3800217  34.6243858
  73.8376160   0.6543570  35.4824753  74.3053436   0.2080131  34.1139030
  82.5169525  49.4074783  20.9654160  81.9635620  48.6348839  21.0798397
  83.0282059  49.2213860  20.1778717  41.7984276  34.7541466  81.1600800
  42.0568237  33.9838715  81.6661835  42.3247566  35.4666481  81.5227737
  58.2575912  57.1974449  82.2003632  57.5072250  56.6038628  82.2294083
  58.6654816  57.1101990  83.0619049  35.1555138  42.8055115  80.9224091
  34.2846680  42.6386833  81.2829971  35.4408073  43.6133194  81.3493652
  43.6248779  14.0689545  45.1612244  43.8620110  14.9552460  44.8883018
  43.8278656  13.5222349  44.4021950  48.4344521  53.2330742  51.7232018
  48.5972633  52.4776611  51.1583328  48.3242569  52.8591156  52.5974121
   6.8946657  25.3337822  63.5142365   7.7496037  25.2964211  63.0853806
   6.9667788  24.7209301  64.2459793  36.9624939  54.5391693  12.1449776
  36.9035683  53.6758728  11.7357388  36.6562195  55.1453781  11.4704857
  33.0010643  47.2916527  61.6206818  32.7493019  46.3914452  61.4145966
  32.1747932  47.7317047  61.8203392  74.2807999  62.4723969  58.5346031
  73.9583969  63.3369293  58.7893105  73.5531464  61.8800507  58.7240181
   3.0128098  70.7721558  31.0037823   2.1251168  70.6312408  31.3329887
   3.0186114  71.6842346  30.7134247   7.7918596  49.5470390  89.2726898
   7.2281518  48.9368324  88.7971725   8.0694170  50.1813736  88.6117706
  66.0324173   0.6854061  88.2887650  66.6354065   1.4265386  88.2308426
  66.4164810   0.0190565  87.7189331  54.8375168  47.5374298  48.8925705
  54.4496803  47.3117142  49.7380714  54.1077957  47.4926186  48.2747269
   0.7764760  63.5177917  77.9151459   1.5760735  63.4619102  78.4383621
   0.6270983  62.6230202  77.6096954  76.9823990  48.2327995  12.4454603
  76.6387253  48.2707672  13.3380289  76.2187958  48.0356827  11.9029741
  84.1727982  46.3569870  65.1345673  85.0311661  46.5382118  64.7516861
  83.9644089  45.4685440  64.8456345  61.9718552  12.2569666   0.4846369
  61.5194855  11.4549007   0.2233238  61.9012718  12.2716436   1.4391181
   2.5199916   7.9979839  88.9371948   3.2465649   7.5052519  89.3186874
   2.6531143   7.9276862  87.9919052  40.4936104   6.3765616  71.9095993
  40.0575485   7.0623493  72.4153442  41.1267166   6.8456292  71.3661041
  50.0002213   7.2670021   7.1498904  49.7642632   7.8582401   6.4350524
  49.7158318   7.7232537   7.9418430  44.9287910  29.9805603  57.1922493
  44.6329803  29.3196583  57.8182945  45.0535049  30.7702484  57.7186241
  26.7740803  67.7921524  55.0088730  27.4512062  67.7916641  55.6854324
  26.7666645  66.8944397  54.6767845  55.1465073  62.4991302  24.9894276
  54.2929802  62.3371010  25.3912659  55.1486130  63.4377708  24.8018494
  17.7426434   5.0476561  25.9330673  18.1373329   5.3513980  26.7504978
  17.2215405   4.2860198  26.1872215  67.1427536   7.7152128  11.9632130
  67.5821533   7.7595062  12.8124437  67.8523712   7.7704425  11.3231993
   7.7016439  17.2671566  74.9695206   7.8159027  16.9223824  74.0839157
   7.4037261  16.5158901  75.4824295  67.9525681  16.1370945   3.9594963
  68.1738586  16.2753143   4.8804526  67.0181808  15.9294863   3.9662299
  21.6792297  69.7535477   7.9491587  21.2038631  70.5291214   7.6512713
  22.3840542  69.6447296   7.3107119  29.0737476  40.8600960  22.4985867
  29.2846851  40.6859932  21.5812950  28.8388748  40.0041542  22.8569641
  20.3895340  53.1785088  10.8367567  20.3935547  52.7319336  11.6833878
  20.3681393  52.4707069  10.1927166   8.4396124  63.4494514  37.6223068
   8.5730247  63.7579613  38.5185509   8.4848232  64.2417221  37.0870590
  41.9103546  49.7659225   7.1531472  41.1118279  49.6881256   6.6310983
  42.6174088  49.5610161   6.5413294  82.8052521   5.1002617  32.0938110
  82.5530777   5.0911431  33.0171509  82.5088806   4.2550235  31.7562256
  73.3085632  53.4931450  18.5480251  74.1958923  53.3385048  18.8720169
  73.2711029  54.4370575  18.3935566  70.6871796  46.1487007  64.0521469
  71.5873642  45.8244324  64.0245667  70.1625443  45.3802071  64.2766418
  65.4049835   6.6055660  20.0203762  64.7140732   6.0695047  20.4096127
  65.7894211   7.0752072  20.7605648  80.2400436   0.3054720   6.5255046
  79.5101929   0.8612364   6.2522388  79.9505844  -0.5849679   6.3265963
   4.9250364  39.9213600  25.0250034   4.9496732  39.7985497  24.0760345
   4.1246510  39.4762726  25.3034153  25.6505890  61.7730675  29.2627907
  25.5680332  61.4237061  30.1501255  24.7979374  62.1680717  29.0806141
  44.2443275  18.1886997  27.2234821  43.6198120  18.7489414  26.7626801
  43.9510117  18.2018642  28.1345387  32.6711082   9.9174967  20.6234188
  33.5300026   9.9054279  21.0457745  32.0862427   9.5036354  21.2581482
  58.3414307  43.2945251  36.3493500  57.5811005  42.9494209  36.8173599
  58.9247704  42.5418587  36.2521782  66.9922562  62.5752144   3.3953118
  67.9327545  62.6210289   3.2232964  66.6198730  63.2931519   2.8833265
  11.8111153  48.8647003  11.6497545  11.1223669  49.4689255  11.9268293
  12.4125347  49.4055481  11.1378841  17.9533062  50.8488007  69.6943436
  17.7718620  50.5554810  70.5872421  18.8410130  50.5383224  69.5159760
  27.8725262   4.9665527  81.8543549  28.6971607   5.3076525  82.2005692
  27.6572647   4.2317786  82.4288177  20.8378487  55.2063751  73.3795853
  21.6042671  55.2628555  73.9502335  20.0922565  55.2001572  73.9798203
  64.6008377   6.7635798  82.4204330  65.1313477   6.0750709  82.8213654
  63.9521751   6.2922950  81.8975983  54.4779816  52.9118462  77.3723984
  53.9442825  52.7011223  78.1385498  55.2323914  53.3816528  77.7278976
  27.4723740  54.7120056  51.2983971  26.7957420  55.3490524  51.5276833
  27.0238361  54.0764809  50.7405853  70.1815186  24.2808552   9.0226965
  70.7118607  23.5186901   9.2552414  69.6708908  23.9952087   8.2651377
  79.4762344  52.1117249  27.9599991  79.8272171  51.2257538  28.0499573
  79.5945892  52.3233604  27.0340195  47.6610985  45.5199089  69.1407547
  47.5665779  44.8801804  69.8464813  48.4847832  45.9682083  69.3325958
   6.1615691  14.4406786  73.9164886   5.4234209  14.8875027  74.3308716
   6.6167307  14.0090036  74.6394730  53.9166565  21.9933014  51.9223022
  53.6883736  21.6734791  52.7951317  54.7682457  22.4150753  52.0369148
  58.2859726  31.6801815  55.7267876  57.9432449  32.3556824  55.1415787
  57.5071373  31.2852116  56.1187630  55.7309418  63.7797775  49.3405342
  55.0031013  63.9380226  49.9417305  55.9404984  64.6436539  48.9855118
  66.2606430  47.5229683   7.5007663  66.0830688  47.0220070   8.2968407
  65.4294739  47.9519196   7.2973070  67.3330765   6.2899899  26.4839668
  66.3910599   6.2583632  26.3171120  67.6408997   7.0417185  25.9776268
  53.0966492  29.1467590  86.8593979  52.7155991  28.2710190  86.9235611
  53.6900063  29.0954666  86.1100464   2.7676408  58.6953468  42.9923668
   2.4632351  59.6007195  43.0545845   3.7097449  58.7478180  43.1533585
  30.3683758   5.9621787  82.6677399  30.3322105   5.7922220  83.6090393
  31.1643047   5.5185227  82.3746567  54.7868538  14.8241186  75.8353271
  54.4984093  14.8893061  74.9249496  54.4135933  13.9993992  76.1463699
   3.9635565  50.6533012  49.8448753   4.7560358  50.5776024  50.3763618
   3.6548946  49.7527008  49.7454796  84.9958649  20.1650505   6.0510249
  84.9199600  20.5430069   6.9271626  84.1705093  20.3891735   5.6211605
   2.7314372  11.2070446  65.8040390   2.7970307  11.4863062  66.7172470
   2.2544479  11.9148674  65.3707962  59.4196739  12.2729416  23.4823742
  58.5371780  12.0687828  23.7918205  59.5877953  11.6279259  22.7954102
  49.9054871  13.9749966  83.7972183  49.0574760  13.5833626  83.5880814
  50.2305527  14.3040314  82.9591827  66.0437317  65.1177826  68.5030746
  65.4354019  65.0209274  69.2357330  66.8565445  64.7177429  68.8121490
  13.7208567   5.8691559   5.5017314  14.4018211   5.2202797   5.6791520
  12.9433527   5.5271983   5.9430761  34.8707504  48.2868919  28.6385651
  35.4987755  47.5645294  28.6399593  34.6422729  48.4038506  27.7164211
  16.0176659  48.8969421  25.6429482  16.2051868  49.3976097  24.8489704
  16.7362537  48.2676048  25.7045631  46.6237793  70.6324310  62.0781326
  46.8537292  70.0644531  62.8134918  46.9725685  70.1816559  61.3091240
  52.6893349  53.3917198  42.0582047  52.9875908  53.3445129  42.9665260
  52.7080307  52.4848328  41.7525330   2.5330467   0.3953634  52.3001480
   1.9844781  -0.0963750  51.6890030   2.2317839   0.1211501  53.1663361
  63.1129761   3.9367676   7.8277464  63.1331711   3.0267446   8.1238585
  62.3183823   3.9985657   7.2976217  13.7745237  10.1132488  70.3118668
  14.0988379   9.9620562  71.1996689  13.7441053   9.2420988  69.9163895
  38.4398499  16.0715523  74.0960159  37.7614021  16.6705723  73.7843857
  37.9893074  15.2336969  74.2020340  59.3127632   8.0306921  28.2312279
  59.1337433   8.4640198  29.0657406  60.0185547   8.5458250  27.8404236
  16.8225098  62.2749863  29.1899567  16.0137177  62.5300140  28.7460537
  16.9097900  62.9022026  29.9077396  17.0161972  69.1299515  49.9872208
  16.4263935  69.0634003  49.2362633  17.7581234  69.6414337  49.6644745
  68.3626328  43.1242447  37.6080513  67.4702377  42.8082008  37.4666901
  68.8355103  42.8686600  36.8160362  37.7502136  60.8361015  67.5135574
  37.6878357  61.4687157  66.7979202  38.0759888  60.0370941  67.0992050
  42.1061440   7.1483216  17.8438931  42.6317139   7.9457240  17.9083729
  42.6701241   6.5262513  17.3843441  15.7001019   4.4004087  79.9418488
  15.2758522   4.2244482  80.7816620  16.0997486   5.2632437  80.0515289
  10.8924026  16.6717834  88.3659973  10.4525738  15.9177151  87.9733582
  11.7748365  16.6539974  87.9955521  40.9984283  32.9085579  14.7160807
  40.2571564  33.2298164  14.2027178  41.2071571  33.6282539  15.3116512
   4.0811219  59.3985863  80.0040359   4.6034751  60.1644630  80.2423859
   3.6258190  59.6589622  79.2033310  68.9488831  30.3319225  11.6742086
  68.1443253  30.5801144  11.2188845  68.8320236  29.4041004  11.8784676
  71.0866776   1.5154388  88.2254028  70.6219559   0.8828788  87.6775665
  71.8801193   1.0563349  88.5009232  60.0343323  43.9092751   9.4242010
  60.4470291  43.6827736  10.2576323  59.1419029  44.1627350   9.6599159
  27.4963741  57.8868065  22.3718548  27.3772354  56.9467926  22.5075550
  26.6696548  58.2765312  22.6562538  18.6177940  34.8525734  84.6900177
  18.8360310  34.0889053  84.1557693  19.3581123  34.9448013  85.2897263
  46.3103638  30.6567059  28.0939217  45.6940613  30.8633747  27.3912907
  46.7446938  29.8547344  27.8033524  67.2226257  22.9493332  29.4905319
  67.5525970  22.0567837  29.5940037  67.3227081  23.3436394  30.3569832
  71.4013596   0.7411353  10.5178061  71.0795898   0.5079365   9.6469917
  70.6880493   1.2449437  10.9097271  58.6867485  51.1346779   2.6384568
  58.6534691  50.2466240   2.9941039  58.0779953  51.6337509   3.1830480
  57.1216125  22.6582165   9.5873718  57.8862915  22.1462402   9.3239765
  56.9727783  22.4137897  10.5007925  49.2293167  68.2377930   3.4915638
  50.0215836  67.8172836   3.1573231  48.5852318  67.5313416   3.5395682
  80.4279709  57.8860321  36.9937286  81.0749893  57.9907646  36.2961388
  79.7586060  57.3155785  36.6158943  69.3256302  48.1714554  68.5229340
  70.0692139  48.7141228  68.7852783  68.8423996  48.7128716  67.8987579
   9.0149784  11.8302755  27.9332314   8.1863022  12.3092365  27.9443359
   8.7616892  10.9113541  28.0207520  63.5156174   1.6412075  28.5811329
  64.1339493   1.0638540  29.0289783  63.9033775   2.5129910  28.6577301
  31.0583782  50.9263458  33.0564957  31.6120625  51.4085464  32.4423714
  31.5259552  50.1046410  33.2061729  72.3246307  32.0433807  80.2692719
  72.6956635  32.8532753  80.6194763  71.5974884  32.3319359  79.7176895
  25.0851612   9.8387709   2.4563887  25.5635777   9.7761345   3.2830846
  25.4413166  10.6193905   2.0321026  20.3300438  23.7061920   7.3618774
  20.5665607  24.1242409   8.1898432  21.0428886  23.0902901   7.1923261
  85.1615067  57.5081520  86.3470840  84.2084579  57.4513588  86.4157181
  85.4862213  56.9367599  87.0429993  53.9175301   9.0643129  49.2102089
  53.3526688   9.3126345  48.4784317  53.3116302   8.8706264  49.9254723
  11.2147064  39.1403809  11.1134663  10.7912083  38.5816841  11.7651882
  11.7520647  39.7430573  11.6275244  69.3432617  35.6924591   0.2242478
  68.9366226  35.9115562  -0.6141283  68.6091080  35.4619102   0.7935410
  45.5877151  61.4847603  73.6833954  45.3490486  62.0669746  74.4047165
  46.2563133  60.9077377  74.0525284  10.0833807  68.0166855  20.2029171
  10.0411310  67.2250977  20.7394218   9.7516241  68.7103729  20.7729740
  68.4429626  16.3421078  72.6287537  69.3914795  16.2160549  72.6544724
  68.2372437  16.4228458  71.6974106  35.1710281  45.5557022  32.1021118
  35.1024780  45.4401855  33.0498428  35.0793610  46.4990959  31.9685669
  39.7080612  41.3587036  86.4959793  39.0253792  41.9797287  86.7499390
  39.4176979  41.0160103  85.6507034  68.5367355  13.9967127  40.9733696
  69.2643356  14.1912317  40.3826103  68.7947617  13.1861906  41.4123573
  13.1973581  26.1565399  88.3207703  13.3145266  26.1247845  89.2702408
  12.2998695  25.8550053  88.1799774  66.8806458  19.4268227  41.1747322
  67.6963196  19.8977299  41.0039597  66.4518204  19.3730316  40.3206596
  61.4722900   9.7333994  27.2156830  62.3368225   9.7748556  26.8069115
  61.0495834  10.5550699  26.9658642  23.0328732   1.5961297  44.5876541
  22.4140186   2.0814221  45.1333122  23.8724499   2.0328255  44.7313194
   2.0175824  56.8541183  15.4102373   2.1645877  57.6587944  15.9073458
   1.7156302  56.2216263  16.0621662  69.3100586  67.4986267   6.3074927
  70.1345139  67.0160980   6.2469001  69.1010056  67.4992599   7.2415843
  33.8826408  47.7138748  77.8512039  33.3182907  46.9977989  77.5596924
  33.9991989  48.2589569  77.0730438  39.9140282  70.4475784  75.9207077
  40.1962585  70.9484940  75.1554184  39.4252853  69.7093658  75.5568390
  52.0239792  41.7897873   5.3084345  52.1870918  40.9312744   4.9178104
  51.1896439  42.0696449   4.9318848  57.5343132  18.8137512  11.1285038
  57.0753365  18.0384960  11.4518461  57.0333672  19.5513077  11.4767733
  61.9849052  22.2817860  83.0480652  62.3208580  21.5347195  82.5528336
  62.1064491  22.0354729  83.9650116  31.2772083  52.6104164  72.0117264
  32.1335564  52.3358269  71.6838531  31.3751392  53.5472069  72.1821976
  12.4445076  41.0454102   0.3836827  11.4929237  40.9537888   0.4318934
  12.7697725  40.5725517   1.1497383  83.5815659  11.3056211   4.6422367
  83.6024399  10.9999514   3.7353947  84.4483643  11.6849575   4.7871346
   6.5124640  19.1036987  78.1063538   6.6597800  19.0263882  79.0489883
   7.3259974  19.4764500  77.7665710  65.1446457  20.4462318  36.8960342
  66.0086517  20.8556957  36.9415131  64.6583252  20.9821014  36.2694855
  53.3726692  56.6373634  66.1402054  53.9346352  56.8063126  66.8964310
  53.2356339  55.6900826  66.1505051  32.8528671  17.9452724  83.8568497
  31.9794407  17.5599194  83.9265823  33.3988762  17.2398376  83.5097656
  30.7402401  11.7985249  11.7273884  31.1304760  10.9946632  12.0705433
  29.9959927  11.9688797  12.3047152  30.6463070  55.6552811  29.5688572
  30.7277813  55.4751625  30.5054207  31.2868080  56.3465996  29.4013042
  13.9827547  23.0257492  19.8439922  13.4677200  22.8748951  19.0513916
  14.3801241  23.8863907  19.7112274  27.6047554  34.2721977  19.7215004
  28.5599155  34.2118568  19.7053986  27.4233589  35.2111626  19.6805840
  19.0902805  67.7315216  34.9804649  19.0414696  67.3128204  35.8398476
  20.0278969  67.8301315  34.8149872  55.4500313  15.4288454  78.4193649
  55.6257248  16.0228710  77.6896439  56.0994530  14.7323017  78.3228836
  53.6974983  19.2639542  68.8409729  54.5743065  19.1341667  68.4795990
  53.4747429  18.4216652  69.2374115  66.9261475  49.6771660  55.2013779
  66.1503830  49.2182198  55.5235291  67.2136154  49.1617851  54.4477348
  25.9955368  37.5157394  80.3627243  25.7551517  36.6818161  80.7664795
  25.1890182  38.0310059  80.3789673  28.7911930  64.2014084  42.6160393
  28.2574482  63.6195641  42.0749207  28.3957596  65.0654449  42.5006981
  55.0668373  21.5234985  40.9758339  54.1701317  21.3110657  41.2347145
  54.9705353  22.2271481  40.3340912  71.5430450  42.9230728  58.6710930
  71.8696823  43.1375237  59.5449066  72.2238846  42.3683472  58.2903557
  35.1577950  49.0941048  19.2576771  36.0614014  49.1480141  18.9465160
  35.2205696  49.2386627  20.2018127  46.6457291  59.1481018  57.6204033
  46.6969261  58.4074249  58.2245598  47.5536423  59.4305992  57.5103264
  68.0193024  22.6848621  16.9638577  68.0037689  21.8383980  17.4104996
  68.4262314  23.2803173  17.5932026  35.7056580  70.4014206  26.8771954
  36.2822037  69.7425079  27.2640591  34.8382187  69.9968719  26.8883095
  85.9591217   1.5677719  52.9579391  86.0688705   1.0907899  52.1353340
  85.4608078   0.9709283  53.5162315  62.4220695  62.5833778  40.8498497
  62.4547157  63.2301903  40.1450081  62.4591866  63.1024895  41.6532059
  85.9236069   4.8117881  62.0000992  86.5280685   4.0697093  61.9867897
  85.6923141   4.9488053  61.0814247  20.9083900  15.9166689   5.9451470
  20.4494476  15.1599255   6.3097601  20.4428234  16.1099167   5.1314311
  69.5817642  23.7921448  83.2844849  69.4684067  23.7307758  84.2329636
  69.6237564  22.8826809  82.9889450   3.9073958  20.4782257  63.9817886
   4.7418976  20.9267788  63.8452682   3.2690425  21.0100727  63.5065269
   2.9231403  36.7901573  48.5412674   2.6374280  37.2810669  47.7708054
   2.2468023  36.1242752  48.6653633  77.4970779  10.9273090  52.2877274
  77.2140198  10.1164389  51.8651161  77.1340408  10.8759422  53.1719208
  55.4166260  60.1127853  30.1073322  54.5801964  60.0244217  30.5642910
  55.5387154  61.0573463  30.0117588  81.6060410  47.3159866   2.9908049
  82.3296738  46.6971436   2.8927405  80.9468155  46.8361397   3.4922040
  83.2338943  45.0523415  18.4157791  82.9491653  44.6421089  17.5991573
  84.1897125  45.0499649  18.3644600  58.0503807  23.1312084  20.6577396
  57.6228676  23.4346409  21.4586105  57.3860474  23.2369690  19.9767780
  38.4028358  55.0470047  19.1081409  38.4995499  54.6371460  18.2485504
  37.4584312  55.1616096  19.2139492  39.2250175  43.1279488  14.5785151
  39.2844429  42.5194893  15.3150463  39.7423782  42.7169342  13.8859568
  47.4283371  39.7359543   2.1859169  47.3227386  39.9656105   1.2626953
  46.5629463  39.8795471   2.5689478   6.4498754  36.8612747  24.1323528
   7.0763106  36.2929077  24.5804253   5.6199212  36.7051086  24.5829296
  13.9159565   5.0536766  11.7120018  14.6801291   5.5631638  11.4423828
  13.8873596   5.1503172  12.6638813  85.2716904  27.3510685  75.8462524
  85.0100632  26.5957432  75.3196945  85.7387466  27.9196262  75.2340164
  44.4099655   0.3766503  47.5684738  45.1217918   0.4393434  48.2053452
  44.7353821  -0.2313271  46.9046249   0.3535973  38.8279037  66.3667984
   0.5837922  39.5805016  66.9116287   0.9280505  38.8994293  65.6044846
  55.9898529   2.5810840  41.1694298  56.0740433   2.8072202  42.0957146
  55.3705673   3.2227259  40.8215675   4.2519612  17.6383171   0.6626456
   3.5687447  16.9717674   0.7344687   3.9560859  18.2091331  -0.0464806
  57.9002495  68.2151413  71.2749634  58.4741707  68.9787903  71.3357010
  57.0249863  68.5825195  71.1517868  57.6030998  47.5601883  60.2848930
  57.6293144  47.4525032  59.3341293  57.2240562  48.4291344  60.4171562
  30.5642147  68.6500854  43.3075714  31.3640041  68.4062042  42.8416443
  30.0358639  69.1073227  42.6533470  63.0339432   7.8969798  47.0742493
  63.9435921   7.6564550  46.8983955  63.0746269   8.8193665  47.3267937
  30.5317764  55.2232933  16.6348896  30.6713276  55.3981552  17.5655766
  31.0321751  55.9044151  16.1855507  80.6816406   8.3836670  17.3969231
  80.8960724   7.7381887  16.7234211  79.9742813   7.9795074  17.8994503
  82.0317841  20.9403820  85.1777191  82.6276245  21.2658672  84.5029907
  81.3323212  20.5054741  84.6900253  15.4734840  21.6708736   2.3676744
  15.0287075  22.0920906   3.1031885  16.3923492  21.9189453   2.4695582
  71.7510605  31.7945709  85.4155502  71.4431839  32.4996529  84.8460770
  72.1420212  31.1573372  84.8177948  53.9489594   9.2314157  61.3464165
  54.0122223   9.9164762  60.6808891  54.6345520   9.4474907  61.9784813
  19.5028057  30.0504589  30.2750263  20.3048229  29.9682732  29.7590370
  19.5598507  30.9207821  30.6693802  36.1557999  21.3573914  83.0312271
  36.5428886  22.2217007  83.1703796  35.2113876  21.5097675  83.0643768
   3.3019929  56.1960907  41.8821754   3.1766114  57.0757751  42.2380753
   2.4252415  55.9174881  41.6177521  52.7610970  43.3984718  19.9823971
  53.0892143  43.7069931  19.1377754  53.1037636  42.5082397  20.0617695
  83.7245712  20.8455944  55.4280510  83.4403534  20.0694656  55.9108276
  82.9753494  21.4400005  55.4676743   3.1344514   5.9863524  12.9069624
   3.5418606   6.7772889  13.2600479   2.7113783   5.5773849  13.6619368
  17.1167755  40.0600662  12.7555552  17.2004318  40.6347084  11.9946222
  16.5764904  40.5551720  13.3713417  44.2018204  58.0996323  79.4826889
  44.8828011  57.4880142  79.7627258  44.6559410  58.9369659  79.3884888
  40.0311584  11.3619537  69.0498276  40.5741501  12.0730820  68.7097015
  39.5626335  11.0308418  68.2836151  49.1852036  28.2772655  78.1969757
  50.0833588  28.6035194  78.1412506  48.7340393  28.9117088  78.7538986
  36.0337563  15.5112429  20.2460899  35.1962204  15.1603746  20.5488319
  35.7947960  16.1971588  19.6226730  75.7236328  19.0618324  64.4024658
  75.3850098  18.2604618  64.8016739  76.0470352  19.5788116  65.1402817
  28.3502007  42.9356422  14.6189070  29.1128578  42.5162582  14.2205296
  27.6086731  42.6302223  14.0963306   6.9958286   3.1218956  66.5264282
   6.1988149   2.6152539  66.6823654   6.8025174   3.9885364  66.8839111
  72.2571182   6.8821449   0.2477820  72.5580673   6.7897553   1.1517335
  72.3421021   6.0041432  -0.1238675  54.7438202  19.1684380  63.3059349
  54.1348000  18.9107018  63.9979591  55.6035652  18.9029198  63.6323814
  21.1646061  66.9264832  54.7606354  21.3567810  66.9285736  53.8229256
  20.7323380  66.0864487  54.9146576  84.7662735   2.9508722  57.1785393
  85.3996124   3.4128058  56.6292381  84.1054230   2.6305783  56.5646057
  58.5256958  51.7711372  13.4577312  57.6841011  51.4874001  13.1007338
  58.3449402  51.9555931  14.3794346  24.8538151  52.3643417  68.8825302
  24.4503441  51.8800316  69.6028671  24.2913418  52.1854820  68.1289597
  59.3177757  63.0105362   8.7565985  59.1815262  62.9026222   7.8153114
  58.8326187  62.2870331   9.1533337  15.3786983  12.6117134  67.7902222
  14.4389668  12.7231464  67.6462860  15.7804031  12.8707638  66.9609146
  77.1611786  18.3326740  73.4923172  76.4666214  18.8342419  73.9192200
  77.7197876  18.0372066  74.2112656   8.0698347  60.2725525  81.6524124
   8.2096539  60.2614288  82.5992813   8.7637300  60.8387146  81.3144760
  50.2214317  16.8613224   1.3356730  51.1549454  16.6584358   1.3958162
  50.1849747  17.6740665   0.8313432  54.6663780  63.3064003   2.9915226
  54.8101044  63.6438675   2.1073887  53.8925972  63.7752838   3.3040068
  30.6673355  38.8387032   9.7148247  30.9649658  39.4195595   9.0146427
  31.3807907  38.8475876  10.3528967  19.3891678  68.9840927  58.8294106
  19.3863697  68.0731888  58.5353584  20.2723637  69.2964935  58.6329346
  31.7173977  24.7540016  74.2030334  31.6101608  25.5012703  74.7915268
  31.5752048  23.9884090  74.7597046  80.1513519  43.5012245  28.4634380
  80.7819138  43.3580399  29.1692142  79.3247528  43.6773148  28.9128361
  52.9260406  65.0540771   4.4222984  52.7693214  65.3800812   5.3085217
  52.1843414  64.4754791   4.2452846  23.4636936  63.6067047  62.1099243
  24.1197224  64.2424240  61.8240623  23.5644569  62.8706741  61.5063210
  69.2599030  51.2692070  77.8078766  69.0667267  50.9654579  78.6948090
  68.4249573  51.6061058  77.4829178  66.6675644  12.5753021  88.1392899
  65.8438187  12.0995731  88.0327072  66.5697556  13.3504658  87.5863113
  10.8905401  65.9071121  33.2078705  11.8383961  66.0124969  33.1260605
  10.5242376  66.5905380  32.6466370  78.2098083   2.6114879  49.9100723
  77.7426834   1.8383026  50.2266350  77.5517426   3.1052587  49.4208107
   5.5887566  60.9671440   0.4683202   6.3963947  60.4538345   0.4899393
   5.8232989  61.7626801  -0.0095325   9.2091131  39.1157036   8.9435291
   8.9856510  38.1893387   9.0337734   9.7152987  39.3177376   9.7304153
  62.3933678  51.2904472  89.0369568  61.9668655  52.0277214  88.6002045
  61.6849594  50.8449745  89.5016632   2.4150286  40.7261047  40.4006577
   2.1252661  40.3133354  39.5870895   1.7125012  40.5443535  41.0248833
  58.1034470  45.4100533  69.1424103  58.8735123  45.7645645  69.5868759
  57.8203125  46.1124039  68.5569382   6.0797858  57.5283279  40.8743591
   6.4623232  57.4081917  40.0051842   6.1462364  58.4692116  41.0373268
  58.7184715  37.9356995  22.5648155  58.1452103  37.6187592  21.8668518
  59.2353210  38.6287880  22.1540527   4.2948952  59.9782753  34.1101990
   3.7985947  59.1755333  34.2699623   4.1128325  60.1944199  33.1956711
  59.0993156  33.9507637  72.0302353  59.0114708  33.3947334  72.8044128
  58.2096443  34.0220566  71.6843567  72.0371170  24.6267395  45.4496002
  71.7571182  25.1269188  46.2161865  71.2575073  24.1389790  45.1840286
   3.2955823  24.0391693   0.9967378   3.3731341  24.9839134   1.1296902
   2.3528349  23.8807087   0.9482658  61.4655952  56.1371231  28.8917065
  61.3238220  56.9530182  28.4116573  61.7186737  55.5045319  28.2193890
  52.3586006  68.9207382  51.0743713  51.5916519  68.3480225  51.0785980
  53.0414963  68.4034042  50.6474686   3.7162457  44.1343002  15.0767612
   4.4400945  44.7576561  15.0159245   3.1976070  44.4413376  15.8203831
  11.4921894  50.9269753  46.1784782  11.1568260  51.7247009  45.7693405
  10.8268681  50.2644386  45.9923897  63.5763321  19.7106991  67.2446976
  63.5192642  19.6339550  68.1971054  64.4888535  19.9465809  67.0776672
  32.3898964  27.4097824   6.2475395  31.9383335  27.4594231   7.0900698
  32.9185104  28.2069778   6.2117743  37.9244194  54.6745605  33.5912361
  38.2063904  55.4177437  33.0579376  37.2929077  54.2109909  33.0412102
  43.9808578  13.5256853  15.6580286  43.5154953  14.1808319  15.1379805
  44.7523651  13.9859915  15.9883766  53.8797455  51.1037674  39.7884102
  54.3585472  51.3302536  38.9911079  53.0374336  51.5490913  39.6966209
   7.6947737  13.3510160  30.8828030   7.1438656  13.8251247  31.5056629
   7.1612000  13.2882042  30.0906010  57.4744072  68.7942810  31.8652420
  57.0405159  68.2393570  32.5133362  58.3206635  68.3723373  31.7167664
   9.4895287  44.1387482   0.2114785  10.4128628  43.9021683   0.1236408
   9.4047546  44.9580193  -0.2762113   7.3589301  31.7719975  60.5265312
   7.1254148  30.9512501  60.9602089   6.7654943  31.8242874  59.7773132
   0.2591987  60.9137001  62.6542931   0.6832439  60.4567108  63.3806381
  -0.4911903  61.3537903  63.0536270   5.6905689  56.2973862  66.2357025
   6.5670600  56.5051956  66.5594482   5.6233916  56.7700157  65.4060364
  74.5089951  31.5290604  77.4416580  73.6959457  31.8544788  77.0552750
  74.3716736  30.5858498  77.5295715   7.8831139  19.7779064  28.2990913
   7.8127403  19.0571899  28.9250698   8.7228079  20.1902103  28.5019493
  45.8433876  14.4913912  32.0128632  45.4656639  15.3691339  31.9569836
  45.9365349  14.3300524  32.9517593  24.6903973  68.6718140  48.5197639
  24.3252296  67.9614182  49.0472336  25.5976543  68.4107971  48.3616867
  58.4883690  35.0971413  18.1873455  58.7661324  34.3291283  18.6865768
  57.6402130  34.8495636  17.8191471  21.0311680   2.2272389  26.7819901
  21.7722931   1.7445741  27.1480522  20.8111324   2.8733377  27.4530888
  59.4509125  19.3266144  71.2462616  58.9750023  19.9346962  71.8119278
  59.1974411  18.4587708  71.5606384  65.2827835  33.3978920  26.2016945
  65.9990768  33.8798370  26.6150761  65.5189896  33.3663063  25.2746334
  46.5651398   8.5229588  47.9323082  46.6201096   9.4197273  47.6021309
  46.8794632   8.5802526  48.8346100  14.9793940  39.4673996  21.1390514
  14.0528784  39.2907639  21.3021469  15.3760900  39.4886322  22.0099201
  86.4244232   2.8129592  10.1253614  86.8799896   2.0383508   9.7957144
  86.9682312   3.1200597  10.8507528   8.7047186  49.2504005  46.4401970
   8.0288868  49.2574577  45.7623825   9.4419298  48.7905502  46.0385895
  27.5229282  13.4286060   4.0036449  27.7456093  14.2538376   3.5727873
  28.0607529  13.4190474   4.7954063  52.6881409  32.3496284  17.8855553
  51.8632469  31.9191132  18.1101437  52.4245949  33.1534920  17.4376945
  68.0475616  35.4044075  19.5263710  67.2158585  35.4359436  19.0536022
  68.2453384  34.4708519  19.6010952   0.5797435   4.4704719  35.6834717
   1.2868453   3.8256364  35.6628265   0.9663694   5.2363768  36.1079025
  51.0493317  60.4744492  39.5081635  51.1701508  61.1896133  40.1328049
  51.1098137  60.8934784  38.6496811  53.7636642  67.8646698  37.1289825
  53.6657715  68.3914566  37.9221687  54.5730553  67.3725739  37.2666588
  49.0827141   9.3416824  64.7035294  49.8335419   9.4348783  64.1171875
  48.4971962  10.0582256  64.4586487  49.8462944  15.4487000  45.1196480
  50.0487366  14.5582466  45.4065971  50.2599487  16.0112057  45.7744026
   0.0596800  44.8733826  22.8072243   0.4121686  44.0797958  22.4044781
   0.8306736  45.3439407  23.1240444  74.1834335  59.5165939   8.4059172
  73.4178238  59.8051033   8.9027367  73.8857040  59.4981003   7.4963870
  24.7217159   9.5383558  63.0585709  25.0053749   9.7890139  63.9377403
  25.2009163   8.7306833  62.8734665   8.1333590  31.5055943  71.0929642
   8.7598982  31.0217953  71.6311264   8.6510057  32.2037888  70.6919632
  79.6326675   1.6015687  26.6496849  80.5504456   1.8539129  26.7508678
  79.6634750   0.7722649  26.1726742  21.2488289  48.8659706  56.3173141
  21.8667717  49.0232620  55.6034241  20.3921070  49.0685234  55.9415054
  57.4914703  41.9684944  19.1820946  56.8481483  41.2612953  19.1347694
  57.9688301  41.9138374  18.3542233  46.3725853   3.7638896  14.8759737
  46.0786247   3.5780175  13.9841938  45.7910538   3.2460756  15.4326773
  41.4473343  64.2571411   3.1216588  42.0691261  64.9342270   3.3884199
  41.9486313  63.4426613   3.1610780   3.6065307  67.3131638  18.2270985
   3.1650815  66.8697586  18.9514961   4.5156999  67.3953857  18.5149918
  76.7140808  25.2391968  40.7574806  76.9981842  24.5826340  40.1215210
  77.5101013  25.7260303  40.9709702  83.4631119  35.1162529  80.1570587
  82.8172607  35.6410561  80.6300278  84.3039856  35.5190887  80.3735886
   2.8587782  42.1026230  83.9707260   2.5405595  41.3583717  83.4597855
   2.7666762  41.8244629  84.8819733   9.3452206   2.7648060  69.3428116
   9.8818235   3.1377730  70.0422287   9.2027988   3.4917800  68.7366333
  54.5222626  54.0219116  49.0140839  54.4420662  54.8579445  49.4732628
  53.6190300  53.7355461  48.8784370  79.3402176  19.9573250  84.6664963
  78.8917770  19.7807522  83.8394852  78.6732941  19.8092480  85.3369598
  47.0783272  13.2081356  65.5330658  47.3094215  12.5824432  64.8465347
  47.8953781  13.3526497  66.0103302  84.6070557  39.7799835  80.1151276
  85.4744415  40.0982246  80.3653030  84.1712646  40.5440826  79.7376785
  20.7955513  64.7075882  29.8052425  20.7706375  64.1333008  29.0398636
  19.9171867  64.6448593  30.1804390  67.8607178  68.6078720  87.6777115
  68.2109146  67.8689957  87.1800613  68.2134018  68.4911423  88.5598831
  17.9711628  39.0763817  75.0085831  17.1200161  39.4869804  74.8562851
  18.2356415  39.3874016  75.8743439  62.9414101  22.8316402  58.4565544
  63.2351570  22.5413475  57.5930290  62.8172913  22.0220833  58.9519768
  66.5409927  35.2603798  51.1301651  66.4057770  34.3592758  51.4233589
  67.4771347  35.3115273  50.9371490  47.3162231  11.9565802  31.5664825
  48.0205078  12.6034193  31.6090794  46.5513763  12.4539852  31.2769432
  54.0009422  23.1875343  60.8774261  54.5836143  23.2487125  61.6343803
  53.6832809  22.2846985  60.8920441  37.8492317  54.9640236  57.6625099
  36.9542503  55.2867393  57.7678528  38.3329315  55.7104874  57.3088760
  62.9910011  11.3263359  21.1430664  63.0716324  12.2103186  20.7848663
  62.1510811  11.0091190  20.8111916  71.2396469  68.2922287  40.2053642
  70.8963776  67.5652695  40.7249069  70.8610535  68.1647034  39.3355141
  32.6820793  11.9619780  79.6106873  31.9618416  11.8762627  80.2353058
  32.5277748  12.8033762  79.1811829  34.2704277  41.7458992  44.0038185
  34.1187744  42.3517494  44.7291985  35.0552101  42.0821075  43.5710258
  68.1388702  17.7180576  82.9002457  67.9870529  18.5851460  82.5242920
  69.0650101  17.5433121  82.7330246  60.2124481  19.3756390  49.9369278
  61.0885849  19.1785488  50.2682419  59.7619591  19.7814121  50.6776314
  78.8410263  30.5154667  34.0787735  78.3080902  31.3103294  34.0585899
  79.2695770  30.4926491  33.2231712  59.7640915  63.0353050  79.9001465
  58.9985847  62.6509628  80.3273621  59.5425148  63.0380745  78.9689560
  51.0117073  38.1010437  25.1935806  50.5834961  37.2965355  25.4862137
  51.7273483  38.2314110  25.8157482  75.3664246  47.2840691  44.6946106
  75.4182053  47.2404289  43.7398109  75.6278076  46.4115028  44.9887848
  80.8361435  43.1813545  43.1854897  81.1482468  42.3421440  43.5239410
  81.4894943  43.8161049  43.4795227   8.9147072   9.6514339  16.3047104
   9.2018890   8.7621517  16.5119190   9.7263899  10.1374092  16.1590023
  69.5527420  39.0794334  10.0587978  69.9905701  38.5641823  10.7363377
  68.7041397  38.6518440   9.9436207  46.1154709  57.4785233  72.4431915
  45.8404198  56.7103081  72.9436111  46.1954842  57.1621361  71.5433426
  86.0780792  61.2432098  11.9670887  85.7033615  62.1223640  11.9131947
  85.8667145  60.9466133  12.8522921  20.8502121   3.8783278  15.7553215
  20.3432541   4.2219968  15.0197144  20.6104736   2.9527020  15.7997589
  19.0422878  27.3057213   8.6096544  18.9098644  27.5909481   7.7055855
  18.6589947  28.0044556   9.1398315  55.4064903  30.7298698  65.6525116
  56.3321075  30.9706707  65.6140289  54.9407921  31.5660686  65.6411209
  14.3760757  42.4832802  11.2141800  14.0527344  42.6080246  10.3219242
  14.0982676  41.5976181  11.4479752  15.3475294  26.1531849  16.0223999
  14.5345526  26.6571522  15.9860849  15.2907581  25.5531101  15.2788153
  85.9724045  40.0504036  47.0866890  85.3555756  39.4053497  47.4326057
  86.5319672  40.2701836  47.8315506  65.8522797   7.5530944  31.3182373
  66.1601410   8.3367558  31.7735672  64.8977585   7.6114202  31.3597336
   2.4884629  59.3506279  16.7043839   2.6461139  60.2924538  16.6384983
   2.9220712  59.0915031  17.5174446  29.2853470  46.6368141  75.3652344
  29.4104004  46.9253654  74.4611664  29.0119076  45.7226562  75.2892227
  20.9946537  50.5952644  61.0571632  20.0703201  50.3830528  60.9275208
  20.9990826  51.2061119  61.7941017  84.1051483  37.8932114  37.7126274
  83.9804459  38.7667656  37.3417091  83.5351410  37.3280029  37.1912193
  71.4463120  71.2257233  81.5559158  70.6746140  70.6744080  81.4264526
  71.2174759  71.7881012  82.2959137  69.6692200  32.0070763  88.7721939
  69.4876633  31.4852200  87.9905701  69.2515259  32.8507881  88.5992203
   1.2855453  50.2381592  47.9705162   0.9485292  50.8594856  48.6159630
   1.0995497  49.3777504  48.3464584  28.2452393   4.7121077  85.8779449
  28.6437111   3.8821642  86.1399460  27.6335125   4.4746461  85.1810684
  40.3601265  -0.2283048  12.4368315  40.5255241   0.6936331  12.2395849
  39.5478706  -0.2229145  12.9432325  83.9907150  32.0279808  11.2461338
  84.7345886  32.4839592  11.6398001  83.3587646  32.7210693  11.0550966
  17.8428230  27.9561291  23.2537479  18.3356228  27.6673546  24.0218544
  18.3148766  27.5798035  22.5109310  70.1024933  35.9500923   6.5856085
  69.9230728  35.4641571   7.3905344  70.5180740  36.7597504   6.8822145
   4.5748901  58.7373924  67.7955170   5.2435360  58.5980186  67.1249008
   4.8312631  58.1584015  68.5133362  86.2477722  64.4383087  28.0515022
  86.7810745  63.8872833  27.4786243  85.4625397  64.6281662  27.5380821
  43.8167839  16.8267307  12.2568007  43.4224472  16.5422764  13.0813122
  44.0578156  16.0133743  11.8134184  41.0104103  36.6446457  65.5328751
  40.7481956  35.7403412  65.7052307  41.9673195  36.6220016  65.5397034
  41.8627357  59.8353081  80.2374344  41.3972855  59.2037430  80.7858124
  42.7234116  59.4410744  80.0958481  69.7083817  12.1983404  67.5235291
  69.8148193  11.2750874  67.7526779  69.7926483  12.6630154  68.3561249
   2.6657774  25.8109474  11.3769817   1.7620434  26.0942669  11.5156422
   2.9417231  25.4663086  12.2262812  64.0386276  27.9798527   8.7484913
  64.9906769  27.9245167   8.6661625  63.7725296  28.5804787   8.0523090
   4.9224234  37.7686157  38.8997688   4.5493989  38.0812874  39.7239799
   5.0209808  36.8246841  39.0243034  14.1945972  13.7335529  14.6653528
  13.2723284  13.5151844  14.7993927  14.6553144  13.2647333  15.3611832
  50.9385796  66.0515213  72.3107300  50.6432724  66.9264069  72.0585327
  51.7945900  66.1947784  72.7144089  19.0750465  43.6257706  80.7062225
  18.9562397  44.5430374  80.4597778  18.9394283  43.6128273  81.6536789
  23.8933048  50.0397835  19.5655785  23.0298443  49.6467628  19.4382782
  24.4650803  49.5613899  18.9652081  82.4033279  18.7730732  19.3617821
  82.4918671  19.7147064  19.5091667  82.6017456  18.6563721  18.4326744
   4.4489946  41.9859581  49.4376221   4.7494249  41.6340523  50.2755585
   4.8881588  41.4465599  48.7800369  30.1298389  36.3403397  71.3979568
  30.9276295  36.7814064  71.1060257  29.4905796  36.5206337  70.7087021
  82.0554886   2.9055192  46.8396454  81.8853912   2.8658295  47.7807770
  81.4105453   2.3122997  46.4544601   7.0174193  68.4975052  69.6340790
   6.2150455  68.0444412  69.8932343   7.1788406  68.2046356  68.7371979
  25.9555511  61.0225029  79.7532959  26.5893230  61.6342049  80.1279755
  26.4889450  60.3067665  79.4076843  40.7812576  60.0958672  10.9276733
  40.5429192  60.8238678  10.3536997  40.4989433  60.3751831  11.7985992
  37.2109146  63.2084274  50.5114555  36.5422668  63.3744164  49.8469315
  37.5952415  62.3686180  50.2599716  79.5978088  31.5681343  64.3401642
  79.4421387  31.6239700  63.3973579  80.0095444  32.4025574  64.5647659
  60.1489983  50.4334183  27.4766235  60.0004845  51.2449951  27.9619274
  59.2742348  50.1495590  27.2112217  59.7711678   3.4560444  82.2858734
  59.9422607   4.1008801  82.9722748  59.5487099   3.9792428  81.5158081
  72.9463196  53.7316246  11.6410341  72.1042328  54.1852722  11.6774921
  72.7730408  52.9463425  11.1218643  79.4766693  50.5445824  16.5534725
  78.5944672  50.8052864  16.2889214  80.0486603  51.2064247  16.1648579
  14.4757595   2.8462856  25.0420742  13.9267340   2.1867149  24.6180840
  14.3713684   3.6287665  24.5007267  26.7879219  54.5072479   8.8277903
  27.2887917  54.4266319   8.0160875  27.0437183  53.7428360   9.3439989
  50.4714851  65.5374069  63.8175430  50.0345879  66.2699509  63.3831139
  50.2027168  65.6073761  64.7335663  40.9772568  40.9473076  57.1860809
  40.7305679  41.8114777  57.5156059  41.7455864  41.1100006  56.6388779
  66.2140427  10.9436874  45.5208282  67.1274033  11.0585146  45.2585106
  65.8866119  11.8345718  45.6446991  51.1222839  34.9079742  62.3310165
  50.8696289  34.7530441  63.2411766  51.9437332  35.3957748  62.3901901
  39.9765358  41.6039658  29.0728874  39.3639183  40.8813286  28.9360218
  40.7763481  41.1833916  29.3885632  73.4360733  31.2391033  21.7801533
  72.8546906  30.4871101  21.6673374  74.0089188  31.2160835  21.0136375
   5.2765493  16.9364014  15.4100552   5.7492290  17.0759068  16.2306309
   4.5614166  16.3444233  15.6432476  38.6505165  66.0996399  43.9628220
  39.4556580  66.2657166  44.4531250  38.3769417  65.2254333  44.2405853
   2.6073620  36.8513412  16.2261848   1.9812585  37.5753784  16.2258816
   2.1601987  36.1478195  15.7557249  65.6156998  22.0766487   8.2380505
  64.9056015  21.4953136   8.5101538  65.3888626  22.9256744   8.6174345
  67.7476120  44.3102875  25.6293659  68.4274673  43.9593735  25.0541286
  68.0878983  44.1735153  26.5135212  26.4343472  19.6311474  72.4132309
  26.1928635  20.4984493  72.7383575  26.7425137  19.7872524  71.5205460
  37.7470245  70.9294968  77.6881332  37.1233444  71.3078232  77.0683594
  38.5572243  70.8377686  77.1867447   6.3312597  37.7571106  11.2119055
   6.6836972  38.0975685  12.0341625   5.5706496  37.2383881  11.4738827
  12.9590187  55.6108170   2.7345927  12.5880203  56.4881592   2.8287265
  13.4263830  55.4590034   3.5560269  80.8461533   4.6838474  29.5463734
  80.0307922   4.3218408  29.1994305  81.4417038   3.9356527  29.5882263
   7.3336163  21.4738388  17.4984226   7.1682034  20.9393940  16.7217388
   6.4673610  21.7789192  17.7681618  64.7474747  37.4929352  50.2133141
  64.1656952  38.0948563  50.6774826  64.9434586  36.8082733  50.8528938
  10.7395229  25.8772316  71.2577209  11.3255539  26.4224358  71.7826538
  10.9457445  26.1073322  70.3517685   8.7903261  71.0597076  57.3271027
   8.2696266  70.4210587  56.8400345   9.1065779  71.6693420  56.6603508
  17.9591751  20.8394184  60.8012314  18.6636982  20.9169731  60.1579094
  17.1765251  20.6628342  60.2792091  33.2740898   2.5548766  83.9934845
  33.8970299   2.5612807  84.7202148  33.7285423   3.0098398  83.2844620
  57.0286407   5.5431743  23.3417664  56.6063805   5.8045301  24.1600685
  56.6884193   6.1563196  22.6902046  59.8291931  12.4899216   9.7374191
  58.8732376  12.4415846   9.7443705  60.1156693  11.5840940   9.8542128
  17.7734299  53.7988701   7.2447014  17.6693077  53.4849052   8.1429310
  16.9022827  53.7112389   6.8578515  52.5420341  42.0112991  58.7186584
  51.6017342  42.1902924  58.7136536  52.6767120  41.4595261  59.4891357
  12.8508234  70.8306732  40.1221275  13.4190731  70.6611862  39.3707314
  13.3487654  70.5131531  40.8754311  59.8420486  60.4500313  37.4631805
  58.9480400  60.1306992  37.3407021  59.7940826  61.0032043  38.2428818
  31.0009117  17.9381008  70.9979553  30.4752274  18.4264984  70.3644333
  30.8449402  18.3820553  71.8315125  79.7115402  54.0096703  22.5118580
  79.5805893  54.0937881  21.5673962  79.6334381  53.0709229  22.6818180
   2.4352489   2.2977810  33.0811157   1.9074564   3.0069425  32.7140236
   2.0425563   2.1251876  33.9368248  62.5722771  30.0579529  30.1294689
  63.4927940  29.8094196  30.2137985  62.2517204  30.0988483  31.0304699
  72.6502075  33.5729485  51.2527847  73.0067444  34.4331779  51.4744148
  72.0483322  33.7426071  50.5280800  56.6225815  32.7183952  11.0429916
  56.8135262  32.1938171  11.8205462  56.9321327  32.1840477  10.3116322
  77.2783508  53.3136520  82.0727844  76.8852234  52.7891045  81.3752670
  76.7080460  54.0787659  82.1475143  44.2265549  20.4206276  17.5551395
  45.1632271  20.2570572  17.4450264  44.0806656  20.3516388  18.4986382
  72.2891617   6.3227434  40.0459785  71.4020920   6.3745265  40.4018669
  72.1774063   5.9295983  39.1804276  78.0692825  39.9128876  10.1213255
  78.2750778  40.8190231  10.3511028  77.6029358  39.9771347   9.2878847
  68.3302155  55.4029808   9.8292236  68.1197739  54.4756660   9.7195349
  67.5866165  55.8647766   9.4418831  59.6906471   6.9232183  23.6992874
  59.4016685   7.6019611  23.0893440  59.1208725   6.1766415  23.5143185
  74.4843063  35.7833824  23.5290699  73.7858505  36.0085030  22.9144897
  74.1950912  34.9640617  23.9306831  22.0370884  17.1476784  51.4287224
  21.8513336  16.3274555  51.8858452  22.6028843  16.8928738  50.6999016
  83.8642807  11.8335352  33.0626945  83.9860840  12.6151609  32.5237541
  84.7059479  11.3796520  33.0200348  63.6870766  57.5656967  29.6138382
  62.8856735  57.1888657  29.2505379  63.4205513  58.4244385  29.9421005
  71.5897522  53.9986076  31.4462433  70.8911972  53.9069443  32.0942001
  72.3473892  54.2942314  31.9510422   1.1322715  24.9405384  82.6688766
   1.6869867  24.8426991  81.8949585   1.6241962  25.5270405  83.2435532
  60.2388229  29.1493893  58.6796570  60.0853958  28.5425282  57.9554977
  59.3996201  29.5932064  58.8021202   2.0000770  53.8622818  82.9078751
   1.9633316  52.9514313  83.1998215   1.1666172  54.0037003  82.4589005
  60.0849152  50.8317986  47.3787384  59.8093719  50.5267220  48.2431641
  60.5613708  50.0910149  47.0039558  44.6372414   1.1009374  28.9671345
  44.0732346   1.8162549  28.6731129  44.3246040   0.3356181  28.4846649
   7.7435369  22.2574978  76.8300171   8.2532988  21.4902344  76.5698547
   8.3965797  22.9438896  76.9665222  13.5278282  42.2063560   8.3742123
  14.3957014  42.4461060   8.0493326  12.9696512  42.9461746   8.1347570
  67.7121582  19.0111885  46.1536751  67.5493393  18.2590981  45.5843964
  66.9643478  19.5900364  46.0055466  37.2871170  55.8398170  46.3285446
  36.9039536  54.9993324  46.5795479  38.1972427  55.6339569  46.1151733
  64.6376343  21.6282654  75.0119781  65.2706146  22.3314075  75.1574554
  63.8627586  22.0712948  74.6662521  80.4526138  18.2786694  86.4459305
  80.1368179  18.5585823  87.3050842  80.3274994  19.0433693  85.8839569
  21.6545887  60.8815765  11.2332220  22.1625595  61.6711235  11.4197931
  21.9519405  60.6046982  10.3665314   7.1106005  70.2241592  84.5765610
   7.2563462  70.1552124  83.6330414   7.4306874  71.0967941  84.8052292
  19.4828606  56.9041786  71.7099762  18.9068623  56.3138847  71.2241669
  19.9083843  56.3434830  72.3586502  73.8671646   0.8148457  16.7568474
  73.6105804   1.3359394  15.9960203  74.1831131   1.4576209  17.3918667
  22.4735069  68.1026764  17.2905064  22.0402679  68.3537140  18.1062984
  21.7925243  67.6599350  16.7840729  45.2121201  40.7093277  26.1375122
  45.1756592  40.0940819  25.4051361  44.3374596  40.6729546  26.5246525
  62.6126823  66.5438995  25.4554234  63.5176735  66.5801620  25.1457348
  62.1244316  67.0814972  24.8318558   9.4291697  38.4411049  63.6484070
   8.5571585  38.1267128  63.4096909   9.2783403  39.0231628  64.3931885
   2.3859689  23.2581730  13.7763290   2.1554165  22.5019226  13.2367344
   2.6542308  22.8815460  14.6144333  39.0865402  49.0811844  13.3881140
  38.2735176  48.6114235  13.2022219  39.0621567  49.8413887  12.8069706
  54.7556343  30.1084938  59.2840042  54.7538948  30.5196972  58.4196281
  55.3526421  29.3656425  59.1946411   5.4358225   3.2184925  62.3793869
   6.2461190   3.6818631  62.5913734   5.5383935   2.9638777  61.4623909
  54.8083534  50.0192223  18.8050480  54.6151962  49.1493645  19.1547165
  55.3386612  50.4376450  19.4832287   5.5722723  10.8868484  35.9680405
   5.0930438  11.2064514  36.7325172   6.2065148  11.5778065  35.7768707
  79.7937622  20.0651741  68.6114120  79.6991959  19.1622295  68.9146881
  80.7377014  20.1853981  68.5077209   1.0519440  64.7207718  33.9068794
   0.5993648  64.2142105  33.2324905   0.9291947  64.2141953  34.7097168
  85.6462555  58.8978577  30.4416180  86.4827881  58.4326668  30.4479675
  85.1579819  58.5027885  29.7193050  75.8441925  40.9561577   0.3646804
  76.3281708  40.3169022   0.8875113  76.4290314  41.1608734  -0.3648957
  17.0341816  30.0303764  27.3720665  17.6535664  30.7412319  27.5372372
  16.2550659  30.4667912  27.0274639  45.1926575  44.6915321  35.1689911
  45.8547058  44.5721397  35.8499260  45.6762238  44.6067085  34.3472862
  27.0433426  64.7848434  68.1744385  26.9438934  64.9053726  69.1187973
  26.6208172  63.9450340  67.9943695  51.7424126  51.8320198  55.7675552
  52.5482674  51.3536339  55.5726814  51.0415916  51.2090302  55.5752907
  61.3098068  67.9835434  60.4363022  61.4254875  68.4907532  59.6328163
  61.5300903  67.0860672  60.1868134  23.9444923  56.4257965  56.3857346
  24.7309437  56.2241058  56.8927307  23.2538033  56.5187073  57.0418968
  68.7620468  26.2923622  73.2018127  68.9946442  25.6731606  72.5099182
  67.8052444  26.3169575  73.1895065  75.2287521  31.9649963  32.0561485
  76.0362549  32.4748039  32.1214676  75.1127396  31.5873585  32.9280205
  72.4659195  13.7033377  68.0258179  71.5691605  13.4355030  68.2266388
  72.9715042  12.8912239  68.0587463  12.9779682  56.2219620  85.5350647
  13.8095694  56.6134491  85.2678375  13.1757765  55.2920456  85.6462326
  75.9017715  37.8631897  24.6555805  75.3878098  37.2740211  24.1033497
  75.6257324  38.7408028  24.3913193   1.0026162  70.5550308   3.0859244
   1.2384753  70.1747208   3.9320717   1.6956222  70.2663956   2.4920721
  68.3451233  11.0649691  10.7930298  68.6347885  11.7129383  10.1507978
  67.3903198  11.0711441  10.7255907  71.0785370   0.0196544  17.3734608
  71.9940186   0.2986294  17.3560085  70.7244873   0.3070459  16.5318623
  51.2125969  25.4718246  19.7666340  51.2461967  24.5158100  19.7328625
  50.3306732  25.6912498  19.4661388  54.8821068  43.0218201  23.8208027
  54.6071892  43.6016808  23.1105804  55.5656662  42.4754448  23.4329224
  84.6571274  38.5643883  64.9352570  83.9571228  38.7127228  65.5710373
  85.4289169  38.9706421  65.3296280   8.4975214  40.5471115  12.2276869
   9.0495005  41.3031998  12.0279770   9.1164722  39.8445396  12.4264975
  49.6586876  15.8614206  53.5298195  48.8566933  15.3889313  53.3066788
  50.3636398  15.3115358  53.1879120  75.8581772  64.1858292  17.1315861
  75.4130096  63.6981506  17.8245697  75.7994614  63.6178627  16.3633404
  17.5121403   1.3228898  66.1937943  16.6238022   1.2313743  65.8492508
  17.4873333   2.1292412  66.7089767  58.7635574  20.9963055  37.8234138
  58.6170082  21.7627239  38.3778114  58.8687019  20.2714806  38.4396973
  65.7944641  43.5587463  64.0026321  65.4598236  43.5229073  64.8987198
  65.0331345  43.3676186  63.4548302  17.9891739  22.4070854  62.8810272
  18.1479950  23.1557102  62.3060760  17.8450851  21.6728954  62.2840080
  52.1984901  60.1874237  73.9023438  52.8164635  59.5414734  74.2445221
  52.0956154  59.9550629  72.9794922  64.0507660  46.5622482  60.9673157
  64.0450745  45.6302795  60.7490578  63.7716789  46.9984741  60.1623001
  41.4070129  47.4885788  13.5904131  42.1572380  48.0653381  13.4463711
  40.6451416  48.0629692  13.5138426  53.9194832  43.0607224   0.3215688
  53.8157425  44.0095596   0.3934972  53.9100189  42.8894501  -0.6201367
  58.6740913  37.6387520  40.5051651  58.6606445  37.0067024  41.2238846
  59.4095116  37.3634300  39.9578171  40.8162270  26.4648418  43.3414078
  40.7262917  27.4106998  43.4575768  40.0669136  26.2177734  42.7994499
  40.2217178  27.0154095  21.8437080  39.5779343  27.2828178  22.4996529
  40.5133018  27.8357697  21.4459400  69.4619446  56.1088829  26.4052658
  69.0540848  56.9746284  26.3860550  69.2297058  55.7537003  27.2632542
  27.5785046   1.7066984  71.3243027  27.9898071   1.6371143  70.4627838
  27.5947189   2.6430075  71.5225296   7.0707526   8.3981113   9.6391363
   7.6382828   7.7930536  10.1166782   7.6564369   8.8427200   9.0263319
  70.8515320  34.1584053  17.0356274  70.8281174  33.5713615  16.2799377
  70.3001862  34.8983688  16.7812614   7.5914636  19.4217587  66.6107025
   8.3012829  20.0207825  66.8421326   6.8805251  19.6500912  67.2095871
  85.6889496  50.1827736  34.6946945  85.4878311  50.7348824  33.9390755
  85.0722122  50.4664536  35.3695297  57.6319160  34.0103378  13.5082207
  57.1638603  33.2415009  13.8338614  58.1539726  33.6808701  12.7766876
  22.4493103  57.3346672   8.5769510  22.2991943  56.3967628   8.4584780
  22.1494503  57.5145454   9.4679937   7.2220163  33.6959496  14.8620090
   7.7469897  34.0500755  15.5798044   7.1559815  32.7602310  15.0525465
   3.3733654   4.6713448  20.0124493   4.2766590   4.9136519  19.8085384
   2.8677745   4.9757829  19.2588406  63.6241837  11.9515743  64.0779877
  64.1535263  11.7587280  63.3041382  63.4496231  12.8909798  64.0207367
  23.4968338   2.4223738  82.3065414  23.9800129   3.2473783  82.3527603
  24.1071014   1.7680176  82.6465759  51.7856979   4.5543132   0.9960780
  50.9900093   5.0698195   1.1278411  51.5389824   3.6644037   1.2479179
   1.4362556  29.9706821  78.4132919   2.2514198  29.5382309  78.1588821
   1.6262425  30.9054966  78.3341675  48.2449951  70.7458878  13.1414814
  47.7582550  71.5584030  13.2798147  49.1635323  71.0150986  13.1348724
  68.3568268   5.3718815  80.4994659  68.6743011   5.5558920  79.6153946
  69.1446915   5.1491899  80.9953613  70.0076752  68.6063156  50.9468040
  70.1586609  68.4936218  51.8852806  69.5121536  67.8290329  50.6888924
  39.6383324  62.7507248  63.5334129  39.6239891  61.9359818  63.0312004
  40.4196930  62.6803169  64.0818176  58.4106102  16.2277699   5.4393520
  57.7666206  16.9214535   5.5818653  59.2565346  16.6735229   5.4835143
  21.9309120  67.6078568  34.4357491  22.5148811  68.2919922  34.1083794
  22.5189075  66.9178009  34.7428551   3.8617048  50.5067368   3.7422454
   3.4901021  49.6433678   3.5613151   3.1188676  51.0283051   4.0462070
  52.6744804  18.5529289  17.7769051  53.0305214  18.9002743  18.5947170
  52.4951248  17.6318626  17.9658527  11.4832020  40.7419739  63.5787125
  11.1518011  39.9931526  64.0743713  12.0069485  40.3527870  62.8783875
   0.8603690  10.0447721  41.3861542   1.7206070  10.3775873  41.1303101
   1.0207809   9.5667648  42.1997948  34.9111977  57.5577240  78.6230164
  35.0313911  57.6260834  77.6758575  34.7071648  56.6345558  78.7725525
  36.1186409  55.0593185  36.5258713  36.1057358  55.6014938  37.3146095
  36.7982712  54.4068031  36.6948586  86.1990585  48.6261253  55.6352005
  86.6854858  47.9226532  55.2053642  86.3448486  49.3920860  55.0799713
  78.6715317  21.9735775  34.0676804  78.3872147  21.6724930  34.9306641
  79.4337234  21.4315243  33.8640137  22.5642662  22.0636272   7.0909276
  23.1334953  22.1704426   7.8530302  22.6940193  21.1546078   6.8205953
  19.0305061  38.0652313  58.8601608  18.5973434  37.7396660  59.6492157
  19.8696079  38.4054565  59.1706238  16.6506729  62.8759270  40.7646523
  16.0594997  62.2300339  40.3779182  17.4945564  62.4271927  40.8169250
  70.6743011  13.6347589  19.7825642  70.9816055  13.9465189  18.9313297
  69.9080582  14.1757631  19.9734116  49.5255432   9.9951143  24.0095043
  49.7571030  10.8994751  24.2210293  48.5863266   9.9408102  24.1860161
   9.2303324  62.6646194  81.4734573   9.3749304  63.3471642  80.8181305
   8.2940941  62.7126999  81.6667938  29.5816231  70.8351517  28.1938057
  30.3687344  70.5481033  27.7308922  29.8319569  70.8303757  29.1176777
   3.4273560  64.1071625  27.2771015   4.0792737  63.4430809  27.5012188
   3.2848277  63.9952774  26.3372097  70.0715942  67.9936295  47.3110771
  70.1199875  67.1210632  47.7016182  70.9765930  68.3054047  47.3084831
   5.2833681  70.8169937  36.0272789   5.3386993  71.4176941  35.2840919
   5.8562932  70.0880661  35.7892456  86.0809708   6.8134174  57.7884941
  86.3857651   7.6279368  58.1883583  86.8377380   6.2287254  57.8293152
  40.1220970  55.3100014  42.8809319  40.3779526  54.5614624  42.3419914
  39.7592049  54.9197502  43.6760674  23.4315968  15.1049757  48.6762772
  23.6928310  15.0823774  49.5968628  22.7522030  14.4346237  48.6035728
  64.9366608  33.6641273  43.6661949  64.7431259  34.3536644  44.3012657
  64.2068558  33.0503540  43.7492065  57.1714745  62.8310966  51.5064812
  57.9615479  63.3369598  51.3164330  56.6217804  62.9451523  50.7312012
  13.3100519  38.3895073  84.4374771  12.8029709  37.6120186  84.6711731
  13.5414276  38.7859459  85.2774353  13.9134636  36.6875076  22.4660244
  14.8456507  36.9011574  22.5062122  13.5279360  37.3940239  21.9479160
  44.8594284  43.8595695  80.0806046  44.5041771  44.5302315  80.6639099
  45.6384926  44.2631760  79.6979904  41.0716667  20.8781071  10.1032677
  41.2724304  21.7744217  10.3726072  41.8966026  20.4049091  10.2118874
  57.3277893  63.4181290  77.0317459  57.2870216  62.6642494  76.4433289
  56.7566032  63.1825104  77.7628174  70.5594864  56.6388092  82.2250214
  69.9362946  56.1753731  82.7845688  70.0201950  57.2438164  81.7157516
  13.5743504  50.6000252  55.3853683  14.3200960  50.4275513  54.8106079
  13.0847044  49.7776070  55.3957253  50.4325714  27.9511700  65.8653183
  50.6390572  28.7590466  66.3353500  51.0629158  27.3124714  66.1984253
  64.2584152  27.8157330  70.0119400  64.7282410  27.5492649  69.2216949
  63.3507271  27.9210224  69.7268982  65.4934158  34.2687263  15.5698366
  65.8806229  34.5481796  16.3994179  64.5504150  34.2673454  15.7340937
  54.5750923  42.3839874  64.2092361  54.8424263  43.3030624  64.2172165
  53.6349411  42.4064522  64.3876724  71.3991623  44.6080170  23.8497238
  71.9100723  45.3776779  24.1003761  71.3349380  44.0912247  24.6528625
  72.9821548  46.6170959  16.0139503  73.0497360  45.6650963  15.9407272
  73.7202377  46.9496002  15.5031519  11.0211124  18.5616417  10.8083458
  10.4117479  18.9691620  10.1928511  10.9381142  17.6227779  10.6413736
  13.0958157  27.8596878  77.6645889  13.9924068  28.0728931  77.9232407
  12.5643463  28.0977840  78.4242477  25.2815514  32.0266342  18.2019615
  24.3966789  32.2201653  17.8924847  25.8055782  32.7730064  17.9111805
  22.0558357  65.5205460  57.0836105  21.3061085  65.9645233  57.4798775
  22.2653847  66.0467453  56.3119698  47.4393044  64.1602631  35.2815208
  46.8117294  63.9542732  34.5887375  48.1027374  63.4734230  35.2156906
  77.2611694   5.2164617   6.1855464  77.8120193   4.5018058   5.8660765
  77.1046219   5.7613597   5.4143062  47.2465668  20.5973053   7.5574102
  47.8557816  21.0858364   7.0038524  47.3412857  20.9921074   8.4242382
  42.8672867  65.5445023  22.4251232  42.5395050  65.5404892  21.5258045
  42.9866638  64.6195602  22.6406708  57.5800819  60.5756569  59.3303680
  57.9211845  60.3427582  60.1938705  56.6460304  60.3721352  59.3789444
   2.5580080  71.0800247  86.3823624   2.6365581  71.9550934  86.7622604
   3.2981105  70.5938187  86.7457962  38.3337479   1.3007344   3.5921566
  38.4325294   2.0225782   2.9713385  38.2056808   1.7287291   4.4387093
  51.0001183  31.1716843  10.5964975  51.2153854  30.2433434  10.6863623
  50.1237602  31.2518806  10.9730558  67.7648392   5.7383013  56.8958092
  67.2090912   4.9680820  56.7769241  68.4844894   5.6121464  56.2774086
   1.5628742  15.4969807  72.4775543   1.8705058  15.2189302  73.3402710
   1.9770904  14.8867311  71.8674316  84.9430237  48.7136078  43.8413391
  85.2173843  49.4430122  44.3971519  84.1613388  49.0354729  43.3923302
  79.4703217  60.7838135   6.7437606  79.5805130  59.9346695   6.3159266
  80.3313599  60.9793015   7.1133909  66.6142731  30.5177612  50.2969055
  66.5646667  29.6814098  50.7598190  65.7563171  30.9191399  50.4348831
  36.3673210  69.9200821  66.2415161  36.0612831  70.7235107  66.6623306
  36.1397362  70.0315094  65.3184662   4.4549680  40.2097855  75.0644989
   3.5654590  40.0608444  74.7438431   4.9942365  39.5923691  74.5703125
  18.1898174  47.9782524  48.2429695  18.4520588  47.3552666  47.5652161
  17.4381771  47.5662956  48.6690712  20.3414669  63.1676407   7.4471960
  19.4158363  62.9240265   7.4567814  20.8031483  62.3476295   7.2720809
  16.8298836  69.3994446  27.2663784  17.4970036  68.7171860  27.3419037
  17.1746140  69.9993362  26.6049213  80.3189011  36.0482178  10.9335289
  79.7625504  35.4881248  11.4748230  79.7205276  36.7013741  10.5708065
  63.8967361  64.9263000  39.4472046  63.2561951  65.3300629  40.0327988
  64.7453461  65.2009430  39.7945709  62.6705704  70.4043198  33.4582825
  63.1789513  70.3301773  34.2659225  63.2281342  70.9137726  32.8702202
  59.1682091  67.1790161  84.2667542  58.3739891  66.8467560  83.8483658
  58.9729691  67.1560822  85.2035522  63.1471939   6.0870752   0.2716978
  63.4731522   5.7607126  -0.5670335  63.7802010   6.7568445   0.5304309
  40.8636169   4.4092164  20.5475101  41.7503853   4.0492172  20.5308838
  40.3777351   3.8224385  21.1270294  82.2713699  48.2933922  76.3674316
  81.5661011  47.6532898  76.2721100  82.4821167  48.5529175  75.4705124
  27.5423069  17.2489796  72.9931412  27.1551113  18.0952263  72.7691345
  27.6739845  17.2890568  73.9403915  67.3038940  53.1321526  76.3422775
  68.0585632  53.2302780  75.7616882  66.6918716  53.8102646  76.0562363
  56.9933548  31.3328018  13.3490896  56.1713943  30.8475170  13.4205475
  57.6690369  30.6944046  13.5774250  46.6793709  39.0868263  29.1896152
  45.8677216  39.5472565  28.9764023  47.1530724  39.6894417  29.7629375
  13.2780447  52.0134773   5.3252335  12.6953564  51.7654343   6.0429935
  13.0370359  51.4275780   4.6076908  36.9287300  41.3588943  21.9397411
  36.6194458  40.7596092  22.6190281  36.9682198  42.2117157  22.3726025
  85.9947662  45.9150620  58.7308311  86.9160995  46.0014038  58.4860458
  85.6197510  46.7791481  58.5606804   4.2061157  16.6384373  74.3367691
   3.4741325  16.1252708  74.6789627   4.4660921  17.2008705  75.0663681
  65.4925079  37.5236206  36.6868973  65.4503479  37.2458153  37.6019249
  65.6326218  36.7134171  36.1968231  64.8141861  17.0772991  73.0530396
  64.1629868  17.0945625  72.3517075  64.6475983  16.2553272  73.5143890
  20.1806183  41.8137283  85.3884659  20.8761559  41.5490074  85.9904480
  19.4089069  41.9179344  85.9450912  53.7873611  57.6734848  70.3622742
  52.9970016  57.1422081  70.4587860  54.5055923  57.0724869  70.5601959
  49.5894737  53.1728325  18.6906834  48.6803169  52.9140930  18.8414268
  49.5623016  54.1286278  18.6465111  49.6388245  10.8924856  37.9886665
  50.4160461  11.4426918  38.0857811  49.6179085  10.6696224  37.0580063
  41.8170929  44.0414124  49.4234810  42.6733742  43.6934700  49.6723709
  41.1940880  43.5501862  49.9590073  58.5954132  16.2891903  72.2445221
  58.8163261  16.6714783  73.0938034  57.6990814  16.5801811  72.0767441
  34.5147972  38.8049088  88.2212906  35.2005196  38.8574448  87.5555191
  34.6542702  37.9566879  88.6423645  46.8890190  57.0466080  77.2214355
  46.6585808  56.2394829  76.7613525  46.1998138  57.6652718  76.9796066
  22.9853058  20.6577473  87.5011673  22.7693272  21.5553532  87.7539368
  23.9377365  20.6583786  87.4057388   3.9668481  20.7773228   2.2805789
   4.2649651  21.2730541   1.5179464   4.1310911  19.8627205   2.0508838
  29.0710506  66.8460464   3.7249727  29.2036724  66.6476364   2.7980025
  29.5404758  66.1521530   4.1879840  67.2715454  29.6098728  78.5209045
  66.7831421  29.1551685  77.8346558  68.0694809  29.0925236  78.6298828
  26.1912956  40.6559143   0.8793831  26.5708599  39.9538307   0.3509539
  26.6817360  40.6292381   1.7009597  55.9373703  39.6155167  73.8154144
  56.3499985  40.3328476  73.3343658  56.6440811  38.9863014  73.9599152
  65.0688858  32.0477333   6.3433647  65.1036301  32.5543976   7.1547327
  65.6706543  32.5003510   5.7523952   9.4622049   8.2402782  30.4452381
   9.5131998   7.9129095  31.3432713   9.2158594   9.1604328  30.5393677
   3.9511309  50.4061127  75.1248856   4.5458379  49.9829369  74.5056305
   3.3978803  49.6955681  75.4493484  73.9377670  42.8042526  54.6534882
  74.0633774  43.5902557  54.1218376  72.9910355  42.6630859  54.6523285
  69.2971878  38.9980431  34.0541306  69.9013443  38.5549126  33.4584312
  69.2531738  39.8962402  33.7262001  86.1317368  56.4927025  37.5313911
  85.3790283  56.7605629  37.0042114  85.8544540  55.6764603  37.9474373
  69.5018921  20.6219788  32.8547783  68.7461700  20.3529530  32.3325310
  69.2213745  20.5011501  33.7619400  73.7654648  63.4321213  33.9377899
  73.5770950  63.1571198  34.8350754  74.7194901  63.3928642  33.8705368
  56.8235779  16.9630413  54.8544655  56.5931854  16.2703400  55.4735909
  57.6078377  17.3660717  55.2269363  14.6872959  63.4543991  15.7107525
  15.3717375  63.7253075  15.0988874  13.9126444  63.9450493  15.4361506
   8.9443626   7.8533587  32.9256554   8.1309633   8.1940928  33.2978325
   9.6351242   8.3484631  33.3660545  44.5583458  59.1812515  14.0254335
  44.9638786  58.6128502  13.3706875  43.6528130  58.8758316  14.0798655
   9.9151306  40.9238815  17.7996616  10.5972137  41.5802040  17.9419060
   9.9957447  40.3291779  18.5453568  58.0688477  32.3016319  76.8786697
  57.1293259  32.4333420  77.0058823  58.2850990  32.8393402  76.1168747
  83.7979050  58.1628113  41.0893707  83.8292847  57.3506851  41.5950317
  84.6716232  58.2402687  40.7061577  76.1480026  18.5820160  85.7832260
  76.6689606  19.3589878  85.9860764  76.3883743  17.9491100  86.4598923
  70.3374252  34.4283600  78.8341904  70.2600861  34.2258263  77.9018631
  71.1882706  34.8591843  78.9159241  66.5553436  70.1112976   9.0938959
  66.6155777  70.7842865   9.7719011  66.2504501  70.5803909   8.3172197
  63.7876282   1.5657704  15.6759424  62.8802032   1.4867096  15.9701529
  64.0092621   0.6948958  15.3462658  79.9596481  39.1616554   0.3105679
  79.1499405  39.6493301   0.4615059  80.2752457  38.9440804   1.1876603
  14.4388523  29.6681271  15.9990606  14.4650860  30.3346348  15.3125401
  14.1476994  28.8740082  15.5509100  34.7575531  46.8406792   3.3511033
  34.0203209  46.3031235   3.0617013  35.5321159  46.3732109   3.0384419
  84.8796616  21.8417244   2.4586599  84.3732834  21.1449795   2.0410948
  84.3811493  22.0613861   3.2457206  70.8294983  49.7499428  58.5848122
  71.0787735  50.6552010  58.3987923  71.6032028  49.3689842  59.0001259
  50.5392151   7.2644739  42.7825584  49.6360931   7.4206295  42.5064812
  50.8926010   8.1379557  42.9510155  79.6436844  51.8698349  24.9913673
  79.8246460  50.9596672  25.2260571  79.2194901  51.8165550  24.1349487
  15.5696659  19.2633228   7.8420053  15.6940613  20.0505428   7.3118696
  14.7686558  19.4326420   8.3379345   2.1461229  49.5706024  43.9026871
   2.1606970  48.8957825  44.5813942   2.2962403  49.0930252  43.0868340
  76.4528580   7.5797396  67.6385345  76.3646545   8.0608635  66.8157578
  77.3694000   7.3043971  67.6579132  47.4472961  59.4534988  74.3446884
  46.9936447  58.7548676  73.8731537  48.3193855  59.4810371  73.9510727
  72.5016708  48.5132103  39.6118774  72.2468491  48.6511078  38.6995850
  72.8232880  47.6120148  39.6371269  72.5808105   1.9313474  32.5374260
  73.3163071   2.5358956  32.6364021  72.6210098   1.3757668  33.3158531
  27.0221272  60.6658173  83.8782730  26.9974976  59.9303513  83.2661285
  26.5986938  60.3330727  84.6696091  40.3787270  63.9675941  28.6466923
  39.5446129  64.0490875  29.1091270  40.9505234  64.6083908  29.0693722
   7.0844359  13.8835115  71.4561539   7.6377578  13.3546705  72.0309525
   6.4047523  14.2325535  72.0327225  27.8297272  49.6361160  20.9396229
  27.9240742  49.6124268  21.8918667  28.4053345  48.9392662  20.6244984
  66.5010376  42.8942909   2.7886362  66.2968674  43.1293640   3.6937814
  66.2377319  43.6593971   2.2772543  69.5747833  51.9655914  87.9927216
  68.8782120  52.2828979  87.4179688  70.1860046  51.5209846  87.4053802
  31.4235039   1.2411422   8.6341553  31.9343204   0.4452745   8.4861937
  30.5181141   0.9366533   8.6956911  12.9301043  13.6848078  30.1856155
  12.3151760  13.7052355  29.4523487  13.2722883  14.5773239  30.2361736
  69.6012039  69.8494034   4.6382022  69.9582520  69.2400818   5.2843266
  68.6572647  69.8406677   4.7967539  37.7635307  47.5482521   5.8821168
  38.3221169  47.5083122   6.6584029  38.3299103  47.2642365   5.1646318
   0.2552744  24.7276440   2.6775823   0.6018682  24.1737633   3.3770964
  -0.2002344  24.1202774   2.0946162  38.8846169  50.2176361  27.6140251
  39.1954384  50.4032021  26.7279186  39.4301414  49.4895859  27.9116440
  53.3108139  36.1498184  39.9456215  54.1500969  35.8056030  39.6400909
  52.6554527  35.6076279  39.5065765   8.4488373  42.1865158  77.9173203
   8.7412605  41.7957535  78.7407455   7.9254427  41.5022774  77.5000610
   5.7007990  25.9693241  88.7100830   6.5101962  26.2518787  88.2843246
   5.9249024  25.1339817  89.1202164  21.0037785   1.9963250  19.1954899
  21.4323540   1.3091208  18.6852894  21.1929417   1.7715558  20.1064930
  83.9034500  49.3791008  78.4786987  84.6515579  49.1644325  77.9214859
  83.1523209  49.3693085  77.8854523  44.6603889  30.4456367  14.1118851
  43.9873581  29.9691162  13.6258888  44.9050179  29.8548126  14.8241463
  55.1687050  10.8896971  65.4416046  54.8403397  11.6475124  64.9577408
  54.5114899  10.7357197  66.1202774  52.9690971   0.5593563  73.9809036
  53.4300957   0.4459867  74.8120804  53.5854340   1.0406421  73.4288864
  14.7218437  38.5857925  25.1819172  15.2643900  39.0760803  25.7995701
  15.2360029  37.8041840  24.9795322  49.4348984  57.0468597  31.6381111
  49.4807968  57.3793449  30.7416859  50.0275192  56.2952118  31.6454182
  64.0567398  16.7881699  70.0849915  63.9775963  15.8909349  69.7610474
  63.1552925  17.0622597  70.2537994  74.8393860  63.5079880  49.1012459
  74.0239410  63.8763809  49.4412003  74.8601227  62.6147270  49.4445877
  54.9046478  45.3111382   5.9407911  53.9570389  45.4423981   5.9085350
  55.0197983  44.3677864   5.8264909  23.9519844  12.7800341   8.8147879
  24.7002583  13.1276922   8.3295527  24.1906261  12.8913908   9.7350502
  33.8558197  19.3846416  71.0818710  33.8817902  19.1365261  72.0059891
  33.8711624  18.5520763  70.6098175  43.3621445  49.4066849  35.4472237
  43.8425179  50.0437698  35.9759941  43.7991867  48.5730133  35.6210556
  49.8103142  14.7011070  27.0156193  49.5289268  15.5996065  26.8431301
  49.0435257  14.1663342  26.8099823  69.1557007  18.7693939   8.2913733
  69.6459961  19.1429462   7.5590439  69.7047729  18.0510559   8.6056137
  81.6529999   1.3809654  52.8363991  82.4196167   1.7058029  52.3641586
  81.0300369   1.1457468  52.1487808  66.5982513  10.2883825  71.9544220
  66.4366379   9.5022678  72.4760971  66.9713821   9.9603653  71.1362534
  44.6167717  59.4748650   6.0813680  44.1002922  59.5296440   5.2773266
  43.9925270  59.1881294   6.7479520  30.0825481  51.2254677  11.2460699
  30.8511219  51.4057846  11.7873783  29.7878017  50.3599548  11.5293465
  67.7005157  11.8208103  27.9166985  68.4885101  11.5348845  27.4545879
  67.3473587  12.5260000  27.3742809  42.7346992  24.3225632   1.3176425
  43.5171509  24.7339153   0.9505049  42.3122749  25.0183105   1.8213538
  63.8505554  23.9351540  33.4723320  64.0496750  24.4338646  34.2647171
  63.0039291  24.2746029  33.1821060  23.9222641  14.1165123   2.2455714
  24.2171555  14.0280190   3.1519043  23.0420532  13.7404118   2.2422869
  79.4721603  24.9754200  66.9729385  79.5104141  24.4916515  66.1478653
  80.1493301  25.6466675  66.8886261  82.3700714  39.4643135  15.1052523
  83.0756454  39.3744049  14.4646931  81.7907410  38.7229843  14.9290810
  36.2189980  55.5652351  83.7291946  36.2051086  56.4789543  83.4443207
  36.1173439  55.0610809  82.9218979  49.1998672   9.3944416  35.7326202
  49.5266342   9.3893147  34.8329391  49.3851967   8.5141840  36.0597763
   7.3425369  64.9430542  23.1176243   7.2123380  65.3153381  23.9897938
   7.7728257  65.6395645  22.6216869  49.7398605  58.4021721  83.5780563
  49.9772415  59.2524300  83.9481125  50.2829742  57.7738075  84.0538864
  64.6106949  32.1105423  78.0957184  64.9843445  31.9108582  77.2373734
  65.3035278  32.5864258  78.5537033  46.3337975  47.1190872   3.7897077
  47.0079575  46.4697266   3.5895321  46.8046188  47.8237953   4.2346182
  76.3297577   3.2974908  15.0543127  76.5627518   2.7496185  15.8038349
  76.4068985   4.1942773  15.3799744  46.9293442   1.6422426  27.4236202
  46.1970482   1.8825648  27.9912663  46.5626907   1.6591368  26.5395870
  48.7480240  19.4995594   3.9431345  49.3810387  18.7815838   3.9489324
  47.9475060  19.1159744   4.3012786  49.0773201  45.6311226  49.0367737
  49.2011375  45.1214561  49.8374825  49.5400238  46.4526443  49.2018166
   0.6416938  67.7047653  79.5900803   0.6161886  68.2688751  78.8171844
   0.0824140  68.1475525  80.2283401  17.3619118  52.4478912  60.1435699
  16.9315701  51.5934906  60.1113815  16.9119759  52.9679298  59.4777260
  49.4284325  35.8685112  26.7249222  48.6578674  36.4284668  26.6305504
  49.1394768  35.0095329  26.4168720  30.7734985  30.9486027  88.2445679
  30.1149349  31.0429268  87.5563660  31.5053978  31.4915619  87.9517365
  57.6557007  24.7748299  46.1819839  58.4552422  24.8622990  45.6630287
  57.0023003  25.2846012  45.7029953  37.1965523  33.1611900  83.4446793
  37.2070732  33.1133881  84.4006271  37.8779221  33.7980080  83.2292023
  85.4037247  47.1135864   7.2969437  85.6409225  47.8099899   7.9093099
  85.5490112  46.3041611   7.7867918   1.5998309  17.6818104  54.6144829
   2.3801260  17.1425629  54.7432594   0.9000434  17.0525856  54.4395409
  15.7655039  64.9898682  61.5732498  16.1357269  64.6746521  60.7487488
  16.0917530  64.3769455  62.2321281  55.9999352  69.2317505  25.3706036
  56.5823517  69.9907913  25.3410282  55.1292725  69.6032944  25.5124855
  71.1582642  39.1018524  57.2619972  70.4385681  38.4876747  57.1168938
  71.5302582  39.2448463  56.3917084  74.7580643  18.8649807   3.9648364
  74.0976639  18.5478554   3.3487732  74.3369446  18.7998180   4.8219485
  66.8538437  66.6842575  82.5298386  66.2737427  65.9733429  82.2572327
  67.6292191  66.5859528  81.9772415  43.5589142   1.0555745  22.2786484
  43.6470490   0.9371673  23.2243996  42.9447670   0.3730692  22.0080204
  81.8653030  11.5184517  85.2080383  81.1737289  11.7857285  85.8134460
  81.5209808  11.7333555  84.3411560  42.5005150  35.0916138  15.6912165
  42.1736565  35.8968620  15.2900076  42.1685219  35.1192474  16.5885735
  60.7314644  24.5495510  75.3250122  60.6123314  25.4630852  75.0652161
  60.7894783  24.5777493  76.2800369  61.8097992  14.5590401  82.0449905
  60.9592056  14.2018595  81.7897491  61.9984360  14.1486177  82.8889084
  74.0237045  49.4867935  33.3002815  74.5767212  50.1309013  33.7424698
  74.1988983  48.6653099  33.7593079  48.7381897  45.7473259  23.9121342
  47.9892120  45.1569252  23.9939251  48.3976555  46.5008507  23.4299908
  15.5680742  38.2376976  79.6026306  14.6573772  38.0761604  79.3561249
  15.6667957  37.8056526  80.4510574   6.4934936  39.0718727  34.3084946
   5.5852666  39.1655693  34.5958557   6.6167269  39.7750816  33.6708832
  28.6447926   2.8816540  21.4157734  28.0390091   3.6090653  21.5576649
  28.1396770   2.2443042  20.9109211  17.6398392   7.8956127  13.6261950
  18.1526299   7.4536319  14.3028994  17.0807400   7.2089891  13.2626171
  70.9949799   4.4147887  75.2088928  70.3822098   4.7049809  75.8845673
  71.2237473   3.5202434  75.4612579  24.4733162  57.0009384  82.6843414
  24.2003384  56.8673820  81.7766647  23.9116745  57.7080574  83.0017853
  53.5589561  19.0388069  13.9395571  53.2021179  19.8091183  14.3817310
  53.9822235  18.5372772  14.6363668  59.6622925  26.0665722  85.8427200
  59.8956909  26.8721504  85.3814163  60.4910316  25.7453079  86.1979828
  76.7833939  30.7393970  48.0170975  76.0359955  31.1868629  48.4138336
  77.4613647  30.7606468  48.6924706  73.3272171  33.6436081  55.0622025
  73.2302475  33.2579231  55.9328804  72.4312820  33.7254601  54.7353630
  40.4604874  46.6749954  38.4476814  40.7168083  46.8870888  39.3452072
  39.7177811  46.0790787  38.5451736  36.7577400   8.9961634  36.9558105
  36.1275597   9.0192862  37.6759262  37.0065079   9.9112768  36.8257599
  60.0110474  62.4805069  22.8810406  59.9994354  63.4257584  23.0313644
  59.5913811  62.1093826  23.6571732   9.3480129  55.2098656  77.8038940
   9.5153103  54.3883018  78.2657166   8.4609070  55.1135521  77.4574890
   6.0851107  52.9855537   6.7264147   6.4344335  52.4015884   7.3996077
   6.2834363  52.5445061   5.9003549  48.8227348  53.6156998  60.1435814
  48.0086899  53.4731636  59.6606255  48.5418396  53.9706917  60.9869728
  29.8757420   2.6289208  86.6353455  29.5214272   1.7810398  86.9032822
  30.2601967   2.4664421  85.7739334   7.1687784  52.7402306  14.9460545
   7.2698870  52.4371223  14.0437613   6.8104525  53.6239471  14.8631201
  14.8583765  65.0943985  31.5990410  14.3509130  65.5223923  32.2886314
  14.5387802  65.4879608  30.7871284  84.0833969  33.3001785  43.3988266
  83.8311157  33.3715477  42.4782333  83.9663544  34.1835327  43.7484245
  34.3132935  69.2992172  60.9017372  33.7697868  69.7006836  60.2237549
  33.7719116  69.3274765  61.6906204  51.5310516  67.4946823  75.3648071
  51.4731712  66.6420364  75.7959366  52.1891403  67.3728561  74.6804733
  18.2196846  70.3039093  29.8166924  17.6902084  69.7049026  30.3430767
  17.8428135  70.2481155  28.9385777  43.3910866   3.1084137  25.7956810
  43.1602554   3.1185553  26.7245770  42.9778481   2.3151317  25.4548435
  81.2998810  27.7552109  30.9453716  81.9077911  27.9970417  31.6440811
  81.0992813  26.8339729  31.1106319  86.3133240  60.6292038  34.9197464
  86.8882217  60.4675980  35.6678162  86.8858109  61.0149193  34.2566414
  32.1124039  69.0365143  50.6835175  31.3333015  69.5673523  50.8491783
  32.1524086  68.4320602  51.4246407  69.9427109  21.9770126  52.8146858
  70.6476440  21.3995533  52.5216980  70.0660172  22.0441475  53.7615356
  21.5486431   8.6206121  59.9272346  21.6922016   9.1617775  60.7036133
  22.3178940   8.0524931  59.8857002  15.9580898  25.8986588   5.5598087
  15.6846762  25.3040543   6.2583232  15.5491915  26.7347775   5.7832842
  44.3856735  60.4840012  44.3977242  43.6100349  60.7592506  43.9090004
  44.4439926  61.1048431  45.1239357  79.5357819  16.9732876  26.2402897
  79.9010086  17.8533688  26.3313732  80.2519913  16.4532948  25.8757496
  52.4173203  26.4970627  10.5160494  51.7641945  25.8448505  10.7695780
  52.0464020  26.9186916   9.7408848  54.7181435   5.8731370  56.8963051
  55.2408943   5.7264500  57.6846237  54.6821861   5.0168662  56.4699936
  37.3312378   1.6860393  10.2729101  37.1187859   0.7612137  10.1472416
  38.2438316   1.7621474   9.9943151   5.9898396   5.7241549   7.5755935
   6.8952255   5.8974814   7.8334022   5.4837646   6.4192433   7.9962745
   8.7750607  62.6009293  25.0109310   9.4892702  62.8072739  24.4079723
   8.1905775  63.3570824  24.9575996  85.4791718  50.7259750  75.4952927
  85.4894943  51.5463333  75.9883804  85.6803894  50.0530777  76.1456451
  51.1231155  52.4007607  39.2992477  50.8048401  52.2232552  40.1843605
  51.1144028  53.3553047  39.2285233  44.5273857  29.1693573  52.3942451
  45.0977745  29.4496269  53.1100235  44.2000542  28.3131866  52.6700325
   6.5015621  24.0915318  19.0353546   6.4503665  24.5650082  18.2050343
   5.6281433  24.1813564  19.4165401  57.3659935  13.6130686  19.5664387
  56.6245651  13.0699329  19.8338623  56.9669189  14.3615799  19.1229286
  10.8435535  70.3702545  36.7716331  11.6539536  70.8786545  36.8035011
  11.0036316  69.6276398  37.3539772  61.1498528  40.3576622  15.8727856
  61.3827934  39.4344711  15.9712420  61.8451614  40.8302460  16.3304310
  74.4174500  41.4219322  83.5994873  75.2177658  41.7303963  83.1745529
  74.7254944  40.8765564  84.3232956  66.8661346   6.9676256  40.9280624
  67.1894989   7.8508449  40.7503319  66.2907791   7.0712223  41.6860046
   0.2219739  33.9083672  14.9500484  -0.6540413  33.6814117  14.6380873
   0.6298915  33.0663338  15.1520729  45.3400307  11.2944098  67.8780518
  44.6293221  11.1810951  67.2469559  46.0628242  10.7791376  67.5198669
  12.8511925  58.4954453  75.7394638  13.7836866  58.5547714  75.9472275
  12.4870214  57.9403191  76.4289932  42.5816879  17.3287048  80.6193619
  43.4385300  17.0361252  80.9299240  42.1438713  17.6616478  81.4027481
  47.0161018  36.9614639  26.7542839  46.8521957  37.8474770  27.0773144
  47.0232391  37.0514565  25.8013496  58.5314293  64.4686356  62.3899193
  58.1677742  65.1236420  61.7941399  59.0101852  64.9786911  63.0432663
  25.2055931   6.5699935  85.7984161  24.4261932   6.0149760  85.7715530
  25.0994434   7.0936890  86.5925903  83.9338684  70.1388016   0.7521721
  84.1381454  70.5421829   1.5958467  82.9824371  70.2111664   0.6761998
  31.0193024  12.5467215  88.0340805  30.5919056  12.5121269  87.1782990
  30.6777477  13.3432837  88.4403534  74.0065842   9.8099165  56.0653839
  74.5312042   9.1620560  56.5357895  74.5822983  10.1235914  55.3679619
  10.3664980  14.2593250  29.2921066   9.9980536  13.9019403  28.4841728
  10.4265652  15.2011070  29.1318836  44.4665184  11.5280619  10.0520668
  44.5404510  11.9715977   9.2070570  45.1290283  10.8379688  10.0191212
   2.7942181  67.3011246   5.8615437   1.8853005  67.5833817   5.9636774
   3.2519984  68.0786438   5.5419760  66.8050690  45.9435196  12.0890980
  67.3879471  46.6971207  12.1816645  66.8850555  45.4753494  12.9201498
  16.7925797  37.8618622  19.6288719  16.5242271  37.0044289  19.9590683
  16.3341465  38.4883652  20.1888390  16.6328545  48.7092171  42.1596184
  16.2879143  47.8773117  41.8353004  15.8660021  49.2787552  42.2212143
   7.6717300  32.9300957  20.3905544   6.7672882  32.6970901  20.6001358
   7.8948631  33.6149406  21.0209751  12.8102016  12.1478691  19.2274990
  11.9233932  12.3717957  19.5097389  13.0401096  11.3782759  19.7481728
  21.1842270   3.5988779  10.8865671  21.2766685   2.6719532  10.6663465
  22.0297947   3.9848568  10.6579428   9.4999132   4.9353418  31.8702698
   8.6711817   4.5568681  31.5766830   9.2451220   5.6147203  32.4945755
  78.9879532  47.0617447   0.7498455  78.6782990  46.6453323  -0.0544842
  78.7766647  46.4342346   1.4410915   6.0663567  54.3486252  12.6909084
   5.4569287  54.6315956  13.3726387   5.5042357  54.0434227  11.9787960
  59.5278053  21.9968967   7.8232427  59.6725235  22.7766247   8.3592558
  59.3485298  22.3383789   6.9471822  26.5061283  27.6864719  10.4125586
  27.3962612  27.3843117  10.5931015  25.9545002  27.1725674  11.0023384
  64.3478012  70.4323502  16.0484734  64.5557861  70.1472931  15.1586895
  64.8176117  69.8182144  16.6126976   7.7594767  42.9544563  53.8014526
   8.3516893  43.5257645  54.2904549   7.4510055  42.3195496  54.4479599
  78.8285828   7.9277205  23.5138607  79.2244339   7.0579815  23.4582920
  77.9557648   7.7710400  23.8742313  61.0649681  63.6289978  56.4717216
  61.8600388  64.1499100  56.5846100  60.8238297  63.7557907  55.5541115
  73.9930573  43.6200218  61.2638016  73.4407349  42.8406601  61.2024689
  73.3859482  44.3526573  61.1594315  48.1142273  62.8436432  87.2287369
  48.8103523  63.3371353  87.6624527  47.6062317  63.5066109  86.7611465
  80.9909134  34.3894997  28.6947079  80.3104172  34.4012871  28.0216465
  81.4045029  33.5312424  28.6021423  52.1919518  64.2330017  19.8163681
  52.6045609  63.6705399  20.4718208  52.6536331  64.0309525  19.0025768
  66.6356812  50.7199554  42.5471535  65.7382584  50.9030800  42.8252449
  66.5887299  50.6890068  41.5916061   5.1006875  10.5304012  58.0359573
   5.2185717  10.9010324  57.1613312   5.8406658  10.8677692  58.5407791
  27.4763641  30.7366562  77.4880447  26.5564289  30.7338791  77.7525177
  27.5020752  30.1869602  76.7048416  14.5253534  44.8464508  89.0918808
  13.6110535  44.5721397  89.0208817  14.8437691  44.8545341  88.1892319
  10.5857048  71.2889862  32.2213707  11.5157290  71.1580734  32.0365791
  10.5258379  71.2668076  33.1764374  81.8758163  47.3015327   6.9138608
  81.1999207  46.7319069   7.2811761  81.5752945  48.1884422   7.1121221
  74.8404541  20.4644527  53.0719147  75.4278793  20.0394058  53.6968117
  75.4232788  20.8345795  52.4089241  77.1413956  46.4925919  15.1191368
  77.5044098  45.6093979  15.0526209  77.7374954  46.9526749  15.7100887
  24.1492958  45.7306290  47.3624611  23.4631214  46.3707962  47.1738319
  23.8602104  44.9323730  46.9203606  79.1835938  30.0592461  17.8513012
  79.5522232  30.9137726  17.6274052  78.2818832  30.0963516  17.5322800
  76.1844635  19.6432762   8.6131420  76.0633850  19.7628841   9.5550900
  75.7319031  18.8232479   8.4157085  32.7803917  67.9844818  57.7659950
  32.6890640  67.1222610  58.1715317  33.6935883  68.0197449  57.4812889
   1.3611280  47.2500572  54.1818085   1.8227215  46.6021690  54.7141685
   1.6309720  47.0582008  53.2836952  80.3063583  58.1202850  13.7328615
  79.6442566  58.1379433  14.4239101  79.9863434  58.7414169  13.0786285
  81.3483124  17.8209705  47.2377625  82.2984161  17.7196045  47.1806259
  81.2173309  18.4601231  47.9381638  85.5651627  57.9381714  49.1635208
  85.7495270  57.3046227  49.8569565  86.4262543  58.2640419  48.9016876
  16.2582550  37.8637962  86.7230682  16.2132683  38.4027138  87.5128632
  15.3480854  37.6308212  86.5399170  37.8125877  54.5581856   1.2161248
  37.9546890  53.8433952   0.5955473  36.8711090  54.5423927   1.3881631
  86.4462967  23.8189278  36.7851295  86.6519470  23.1737022  37.4616089
  85.6203537  23.5157413  36.4081345  44.8572578  20.3816967  20.0967484
  44.7910423  21.2009659  20.5873051  45.4896317  19.8582230  20.5889988
  16.7897816  22.0935612  88.5271072  16.7452393  21.9828911  89.4768448
  17.6663895  22.4433403  88.3675842  55.8060760  69.0153122  42.7711716
  56.1163406  68.8996735  41.8730621  56.5528221  69.3931351  43.2357674
  18.3706970  50.4069023  37.2855911  17.5109596  50.3082161  37.6946678
  18.1971436  50.8879738  36.4764671  19.7667694  43.5283012  19.5100994
  18.8463020  43.2817688  19.4195862  19.8330364  43.8857117  20.3955917
  38.4779930  53.9362106  16.5633774  39.1009064  53.7453499  15.8621063
  37.6273727  53.6857758  16.2028828   2.4433479  60.8505745  72.7405548
   1.7183778  61.4106445  72.4631195   3.1505783  61.0533714  72.1282425
  38.2909546  43.8879623  66.3325424  38.5879173  44.4163704  67.0733719
  37.4531479  44.2769127  66.0814896  22.8759270  43.9125290  45.8634186
  22.6581936  44.2233124  44.9846458  23.2032261  43.0231743  45.7286835
  15.6162596  24.9774685   9.8896160  15.4194508  25.9141579   9.8790617
  16.5719185  24.9338703   9.9219551   9.4253368  57.8150291  24.8493805
   8.5728941  58.1603088  24.5841370   9.2401638  57.2941933  25.6308365
  83.7078094  57.9005013  64.0012436  83.0005188  58.2166748  64.5633850
  83.2908554  57.2527237  63.4331207  69.9080582  10.5062819  14.0145521
  69.5322342  10.9977341  14.7449350  69.3127899   9.7667885  13.8919401
  83.7905273  47.6861076  31.8432159  84.2003479  46.8328667  31.7008972
  83.5118561  47.6682396  32.7587776  65.5512466  69.2935257  45.8359451
  64.7006989  68.9458466  45.5677872  66.0128860  68.5399551  46.2037125
  82.4631042  32.1093674  88.3185883  83.2391891  32.0897598  87.7586365
  82.0199051  32.9250488  88.0851822  17.6669540  40.8278427  22.9785480
  18.5690212  41.1455460  23.0182152  17.7500019  39.8749428  22.9423409
  27.7445774  25.3069458  82.0514832  28.6217270  25.3301868  81.6689911
  27.8457088  25.7221165  82.9080124  49.9828720  66.2278519  53.5470428
  49.1878700  65.7359238  53.7524986  50.5546722  66.0848083  54.3012428
  56.4293251  16.0721989  26.8252048  55.7674675  15.9273081  27.5013618
  55.9449158  16.4558506  26.0941868  83.3352890  49.8347054   0.3084646
  83.3019638  50.7836533   0.1875321  83.1757278  49.7066765   1.2435484
  21.4004021   0.9117742  77.2106476  21.6744080   0.3301786  77.9197998
  20.4866066   1.1167942  77.4085770   7.3266878   0.1469375  30.9585876
   8.2070894   0.3729690  30.6585293   7.4624810  -0.2609388  31.8138237
  25.2634106  61.6384621  32.1934280  24.4905872  62.0822220  32.5427856
  25.9553528  61.8280144  32.8270836   7.9002862  47.8312149  52.9141998
   8.2224188  48.3842545  53.6259651   7.5378609  47.0620270  53.3537827
  23.5162239  34.2405586  73.7500763  23.0876465  33.9941216  72.9304352
  24.3368835  34.6508598  73.4773178   1.6368603  43.0412331  73.9088745
   1.3626242  43.5635796  73.1550903   1.3484184  43.5471382  74.6685333
  41.9514542  52.0734024   8.3240547  41.7828636  51.3191566   7.7593265
  41.1839943  52.1221581   8.8940201  47.5348244  14.3122807  62.1826477
  46.6214485  14.5960579  62.2207375  47.8788147  14.7183599  61.3870354
  57.2447319  11.5368004  35.5165749  56.3476639  11.5798655  35.8476944
  57.6701050  10.8756304  36.0625992  64.0098953  42.2767296  57.0016098
  64.8037109  41.8774071  57.3574524  63.4655266  41.5345345  56.7388420
  42.3561554  12.9311571  61.9176064  41.9705887  13.2490196  61.1011887
  43.2656517  12.7351656  61.6925888  79.5877228  46.7448425  30.0086460
  80.2993927  46.7577248  29.3686504  79.5918274  47.6231689  30.3891144
  77.3397827  65.3727493   7.8444128  76.8769455  65.7162781   7.0802107
  77.5521545  66.1479263   8.3642511  25.1113567  70.0894241  88.6356964
  24.6183338  69.2725067  88.7119217  25.8905849  69.9499969  89.1738434
  46.0072823  33.0029259  47.1707840  45.9644623  32.4849243  47.9745712
  45.3412323  33.6805382  47.2867622  60.4087639   7.8586278  74.8952637
  60.3969727   7.8196397  73.9389267  61.3303185   7.7459536  75.1282196
  30.7535095   0.7762556  75.2327499  31.5333195   1.2172673  74.8956451
  30.6710300  -0.0101210  74.6932678  83.1487503  36.3967590  88.0710678
  84.0757065  36.6322174  88.1103287  82.9494247  36.3638153  87.1354294
  52.7794914  14.2988644   8.2858658  52.0522156  14.9039431   8.1403332
  53.0987473  14.0924129   7.4074082  13.3228426  43.0508080  62.8231506
  13.9183073  42.7762527  62.1258202  12.7059107  42.3242569  62.9111748
  47.5915222  23.7573414  59.6607513  47.6084175  23.5604057  60.5973206
  47.9600372  24.6382771  59.5945549  77.2084885  26.8583107  38.6900902
  76.5933304  27.3571625  38.1525421  76.7299957  26.6814499  39.5000305
  45.6066933  26.9205761  29.4912033  44.7810822  26.6866512  29.0670834
  45.3805504  27.6480637  30.0707321  78.7752228   9.4830942  69.0240784
  78.6465454  10.3269415  69.4572067  77.9627304   9.3360462  68.5398636
  74.7631226  13.9367027  48.0458565  74.8749924  14.8205652  48.3958626
  74.9194107  13.3610792  48.7944984  74.9506226  26.4970646  77.1141891
  74.2100067  25.8945217  77.1824951  75.4352875  26.1947594  76.3461075
  48.1355171  50.8180809  33.9507523  48.1863022  50.5261192  34.8609200
  48.0373192  50.0110626  33.4454689  26.7511063   0.5041122  30.1869659
  27.4537182   1.1329014  30.0220661  26.5481720   0.6100067  31.1163921
  83.9318695   0.3823491  87.0168076  84.8460083   0.5630559  87.2357254
  83.9667969  -0.4050756  86.4736938  30.7734070  48.8508186  56.1086082
  30.3843040  49.2190514  56.9018517  31.3359184  49.5482140  55.7717781
  48.5330505  18.7630215  37.5389404  49.2055473  18.4474335  38.1425819
  48.7374420  18.3348618  36.7075958  62.4128609  15.0036278   6.3327785
  61.9833908  14.2641668   6.7628770  62.8052292  15.5025263   7.0492821
  14.5392447  33.5517044  84.2785873  14.9297724  32.6865616  84.4020538
  14.8739967  34.0720406  85.0089493  39.2027512  38.1970139  66.7075577
  39.9020424  37.6535530  66.3444138  38.4842110  38.1131325  66.0807495
  10.3287048  40.2861252  30.2905903   9.5171289  40.1982803  29.7907314
  10.9433308  39.6954994  29.8551254  79.7201996  38.7895241  17.6025810
  80.1187210  39.3710976  18.2500210  79.1519699  38.2143288  18.1149254
  14.9418545  56.3415909  51.6823425  14.2046337  55.7363548  51.7625237
  15.3586941  56.1029549  50.8543739  84.7662888  62.9242592   8.9584284
  84.3085251  63.3174553   9.7014532  85.1458893  62.1189079   9.3099184
  45.7711220  52.6551399  49.6539078  45.5803337  53.2540016  50.3758469
  44.9303665  52.2422905  49.4566231  76.5871201  11.1639700  86.3257675
  76.6924362  11.6043520  87.1690979  76.4293518  10.2474251  86.5522308
  19.0458412  31.5905018  74.8757172  18.1777782  31.9607906  74.7157669
  19.6532745  32.2543488  74.5492783  18.2148991  11.8626041  11.0015306
  19.0607281  11.4989700  10.7396612  17.6657734  11.0963297  11.1674070
  17.1337070   9.7410822   7.4166059  16.4788780   9.0808744   7.1895423
  17.4726982  10.0420542   6.5735574  11.3142643  41.0244675  86.0726013
  11.0930004  41.9500427  86.1754684  12.2558537  40.9832840  86.2397690
  43.0110359  35.5622253  88.5934067  43.3819237  36.3786087  88.2584610
  43.5054092  34.8740997  88.1480865  82.1660385  29.5508118  45.0951309
  82.9943237  29.9373035  44.8108749  81.5026550  30.1922836  44.8408356
  29.3592377  29.8913765  10.7077465  28.9855862  29.3919868   9.9816437
  29.2035370  30.8065014  10.4742193  77.4114304  23.2360687  27.7808323
  77.1632843  24.0531883  28.2132339  77.7909088  22.7016068  28.4783821
   5.7600808  31.1602802  16.4192142   5.7893271  30.4379120  17.0465584
   5.6575899  30.7343788  15.5681343  65.1792831   5.0235333  77.2530746
  64.7246933   4.1815753  77.2792358  64.7613754   5.5428119  77.9400482
   2.1688170   6.2557373  84.7358704   1.2638607   6.5514350  84.6366348
   2.5916829   6.9460025  85.2467041  63.7584000  48.7648926  62.7112541
  63.2290421  49.4168587  62.2519569  63.8961372  48.0709076  62.0665512
  57.1589355  26.7360840  20.7875175  56.8894882  27.4538422  21.3606243
  57.9567337  26.3940411  21.1909485  44.8324318  71.4587250  76.5427170
  45.6534157  71.0155869  76.7568130  44.1506538  70.8640900  76.8554764
  82.5422440  21.2857819  16.9768829  82.4363708  21.4766483  17.9088669
  82.5332718  20.3299980  16.9256134  20.0569210  41.0090446  45.0509949
  20.1196442  41.8738747  45.4564133  19.1164837  40.8453903  44.9800987
  36.3543167  51.8766823  38.8587494  37.1838913  51.7634926  39.3226700
  36.0794830  52.7680740  39.0735016  52.5161858   8.6760569  74.5431900
  52.5475998   7.7772789  74.2154083  51.8311653   8.6634092  75.2116394
  73.8067398  49.3384552  24.8353920  73.7462540  49.3777885  23.8809147
  74.6394882  48.8978691  25.0046539   3.7569623  34.5138397  82.2220840
   4.1850119  33.6865845  82.0015182   4.4687257  35.0793533  82.5217819
  80.3289032  67.0208130  22.3746929  80.1781006  66.3007736  21.7622948
  80.7924042  67.6807251  21.8590202  74.3379288   9.1323280  37.5146904
  73.9151459   9.7305565  36.8985672  74.7973328   9.7056780  38.1282463
  71.9320297  20.3614502  51.9899063  72.8495026  20.1165581  52.1103401
  71.7335510  20.1103992  51.0877914  58.3778305  31.4608498  36.0289001
  58.6132278  31.5849323  35.1094284  57.4221039  31.4078407  36.0264053
  13.2445164  11.0360699  22.5022812  13.8508835  11.7766533  22.4930248
  12.8168507  11.0873470  23.3570938  85.6838303  33.6478081  60.0807037
  86.2034912  32.8455849  60.1319046  84.9192352  33.4049721  59.5585289
  64.3859558  69.6998596  22.0824699  63.7793694  69.7770920  21.3460484
  63.9660873  70.1879044  22.7908173  48.6628990  52.1771507  25.8631153
  49.4181900  52.2282410  25.2773209  48.9855309  52.5122337  26.6996918
  85.1470108  62.4665756  79.5987015  84.5981750  62.4102287  78.8164978
  86.0210648  62.2200127  79.2962723  78.1345367  41.4943008  18.9337692
  77.8578796  42.3899574  19.1274033  79.0293732  41.4421310  19.2696018
  63.3654366  27.6823959  74.6278839  63.2196388  28.4830208  75.1318436
  62.4938202  27.4280872  74.3248215  74.0942230  24.7578545  13.0674715
  74.9290924  24.7059364  12.6021452  73.4468918  24.9182835  12.3808441
  17.6643639  31.1591702  81.8312302  17.1483345  31.2208271  82.6350632
  17.4527092  31.9583778  81.3488464  56.3845215   7.7487774  72.5003128
  55.8156013   7.0177560  72.2591248  57.1320305   7.6764526  71.9068222
  11.5889864  44.7503357  58.5359764  11.2527657  44.3305855  59.3278084
  12.1262531  44.0774536  58.1178780  40.7576065  42.1825752  24.7748203
  41.4541550  42.7004318  24.3712444  40.2086143  42.8267326  25.2219238
  73.3547440  52.9834480  45.8174629  73.3037796  53.7152824  45.2026024
  72.4508209  52.6810760  45.9053497  35.0483551  51.5119743  59.6918068
  35.3098412  51.1523781  60.5394783  34.6615372  50.7705231  59.2261314
  75.5532761  23.4743977  77.8480835  75.3221207  23.0031357  77.0476379
  74.7129211  23.7456532  78.2174835  14.9318514  35.7017174  11.7224588
  15.3024712  36.5842514  11.7203093  14.8954973  35.4549561  10.7983274
  84.8339844   1.1218307  25.0418167  84.7444839   0.5500283  25.8042221
  85.3072891   0.5926602  24.3997955  47.3734703  45.3372231  79.5527039
  47.5336609  45.6222839  78.6530838  48.2261505  45.0321503  79.8627090
  19.3430691  71.0001984  47.8118591  20.0733662  70.5395203  48.2249832
  19.0148621  71.5878677  48.4924202  85.5592194  11.7831554  29.8507080
  85.8805237  12.6330376  30.1518631  86.2715149  11.4339123  29.3150749
  23.1175156  17.4251823  67.0810928  23.1681061  17.7456455  67.9816360
  24.0129452  17.1605301  66.8703842  65.7936096  40.3578415  29.4311810
  65.2528610  39.5914192  29.6220207  65.6325989  40.5400429  28.5053768
   8.8759060  56.3561020  26.9900494   9.2138987  56.2192612  27.8750744
   8.0304155  55.9073830  26.9845200  64.4887619  43.2668762  73.7941589
  65.0053864  43.9575844  73.3791351  65.1385422  42.6914520  74.1977692
  44.7862282  59.7878914  50.0517387  44.3004723  59.1764259  49.4982147
  45.7059746  59.6107292  49.8544884  83.0522614   8.6921358   8.9959946
  82.6871338   9.3968258   8.4608984  83.8845139   8.4779263   8.5744505
  40.7201843  33.1914330  21.0360527  39.7636375  33.1566963  21.0292416
  40.9273796  33.9908142  21.5200844  32.2974548   2.7313895  87.8894196
  32.1314354   2.5218365  88.8085251  31.4280529   2.7633574  87.4902344
  70.6444550  11.1062241  54.3079109  70.8036957  10.3229399  54.8345451
  71.4003067  11.1593275  53.7230148  63.5200462  12.9200850  29.7023373
  64.1235809  13.6629734  29.6926308  62.7037582  13.2699785  29.3452950
  35.0514183  33.5745964  80.7123642  34.6955185  34.4446869  80.5320511
  34.7319832  33.3621826  81.5893326  68.3056183  22.9092712  39.9261093
  67.8305664  23.7040844  40.1686554  68.8663559  23.1780472  39.1984024
  67.2604980  30.6903400  23.8891258  68.1736679  30.8045959  24.1523705
  67.3014145  30.5282993  22.9466286   6.2048278  27.9099483  82.3129196
   6.5553708  27.9537773  83.2025452   6.8794813  27.4515667  81.8119659
  20.2898006  31.6255455   5.7093263  20.0904522  31.5923843   4.7737021
  20.6670017  30.7677002   5.9043984  56.3370857  28.1727657  85.9478836
  55.8455963  27.3784122  85.7388992  56.6841812  28.0156040  86.8259811
  74.4506226   9.4318810   9.4903049  75.2455978   9.7821951   9.8922091
  74.7678909   8.8383455   8.8096523   2.5146208  21.4804459  28.1829624
   3.4423451  21.3465557  27.9889717   2.4415181  22.4165230  28.3691025
  61.5536842  39.1316833  86.8017960  60.7339554  39.3943634  87.2204590
  61.4212112  39.3247452  85.8736725  23.0388947  70.3408661  50.2768822
  23.8456440  69.8258591  50.2644691  23.2324352  71.1023788  49.7301826
   8.7861528  25.5409927  57.2306252   9.0760622  24.7454300  57.6770134
   7.8388638  25.5602932  57.3666534  67.6389847  39.6539688  81.8350601
  67.9433670  39.8145981  80.9418716  68.0601349  40.3362122  82.3579483
  43.0192032  10.7400227  88.5251312  43.3602180  11.3953381  87.9164429
  43.7586975  10.5376730  89.0982285  46.6509666  46.6525345  44.8143692
  46.4324074  47.5824585  44.7534752  47.2681580  46.5041428  44.0979309
  58.5469627  56.7609787  22.8715553  58.0822372  55.9371986  23.0186863
  59.0537872  56.8963585  23.6721992  40.8807831  24.8885193  64.9901657
  40.3641472  24.1050816  64.8016357  40.2531357  25.5038319  65.3692245
  57.0841446  43.1753426  74.3252792  57.7602615  43.8180809  74.5397110
  56.3569107  43.3885689  74.9099960  77.7434006  22.0509892  19.3033581
  77.1298752  22.5601673  18.7736855  78.5409622  22.0126152  18.7754784
  83.1459961  10.0256472  15.6048241  82.4728088   9.7441559  16.2243443
  83.9547424  10.0327606  16.1168003  21.7361298  40.9604073  16.6491394
  22.4854927  41.4320908  16.2855415  20.9743195  41.3641548  16.2333717
  15.7125931  67.9801483  80.4752731  15.9435854  68.8707352  80.2112122
  16.4823627  67.4568634  80.2519913   6.8381176  38.0270309  70.2613983
   7.5437465  37.3859177  70.1760101   6.0390778  37.5009537  70.2931671
  46.2629509  68.0561752  57.6064568  46.7123718  68.2796555  56.7914047
  46.4474525  68.7913284  58.1910439  46.1703415   1.6321664  71.3506012
  46.4176445   2.4667284  71.7488174  45.2293434   1.5600296  71.5104370
  37.3780594  66.2940292  19.0726242  38.2881889  66.1488495  18.8141270
  36.8962631  66.3245010  18.2460785  12.1522760  32.8401794   9.4651585
  11.9157104  32.6969032  10.3815317  12.1494656  33.7919159   9.3630571
  42.5147514  46.9461212  25.2901039  41.5595093  46.9022331  25.2474499
  42.6945267  47.6112213  25.9545956  28.2524681  30.3429165   6.0274878
  29.0296612  30.0720577   5.5387759  28.4545975  31.2293835   6.3267384
  79.6416855  63.9738846  12.5324516  79.7211685  64.5694199  11.7872992
  80.5105515  63.5817757  12.6194162  61.2203560  10.4956255  58.5795174
  62.0349731  10.0714531  58.3098640  60.5435867  10.0720587  58.0514984
  60.3878136  53.2094040  68.2767410  60.5502434  54.1215858  68.5171051
  60.3065453  53.2238274  67.3231049  32.8107758  62.2019691  68.9664230
  32.7692680  63.1480370  69.1059341  32.8567619  61.8316650  69.8478928
  22.6177998  63.3272400  80.1934433  22.3254681  64.2208481  80.3729935
  23.2433968  63.4197121  79.4748993  59.3701019  54.4196854  71.1678085
  58.6406326  53.8046074  71.2438660  59.2884293  54.9843178  71.9364166
  53.3685341  63.8188324  28.1565113  52.4773750  63.4749794  28.0946178
  53.3107071  64.7013474  27.7903748  43.5616722  15.7017260  84.3794403
  44.0362511  15.0351181  83.8828125  43.0067673  15.2035217  84.9795303
  61.5896873  34.2951927  31.6517181  61.7013702  34.2406540  30.7026215
  60.6598701  34.4875755  31.7728024  58.8713036  18.0022774  87.4901505
  59.8222504  18.1083851  87.5160675  58.5276642  18.8621979  87.7323914
  36.6169739  51.8663940  20.4741020  36.0745659  51.3738098  21.0900440
  37.0995102  51.1958733  19.9905834  84.8555679  25.9881992  46.8503952
  85.6354141  26.1792145  47.3715286  84.1445236  25.9463577  47.4898491
  49.4155464   9.6546783  89.0754318  49.3575058   8.9894705  88.3896027
  49.3858643  10.4874735  88.6044769  18.9091759  26.9485970  13.1938496
  18.1085529  27.3023796  12.8064575  18.6199436  26.5386467  14.0090294
  42.8382187  45.8077278  70.2389450  42.1818428  45.3457146  69.7174530
  43.6654015  45.6372643  69.7884521  17.2392712   7.4489293   2.6247783
  16.7353878   8.1471977   3.0428166  16.8054676   7.3117423   1.7826229
  28.2002544  44.8935013  66.2845459  27.4206066  44.5222435  66.6975250
  27.9744244  44.9526558  65.3562546  34.4552689  64.7485352  52.8165779
  34.5244522  63.8918571  52.3952103  34.3318405  64.5496674  53.7447205
  40.6662598  41.2302628  75.9621277  41.4163971  40.8112030  76.3839340
  40.6944504  42.1365471  76.2688599  50.7261086  64.3781662  69.8232498
  51.1414223  63.5916405  70.1769714  50.5298843  64.9122238  70.5929947
  25.5729580  39.9983521  19.3798141  24.7021675  39.7565651  19.6952400
  25.8715229  40.6704903  19.9924488  39.1094208  48.0946007  46.3051071
  38.7720947  47.3644791  45.7861023  39.5362015  48.6655426  45.6662712
  54.0523720  23.7482300  32.1162567  54.4753952  22.9545860  31.7885208
  53.4959183  24.0388908  31.3936863  51.3893204  60.6183395   0.3690667
  52.0626602  60.2181206   0.9192206  51.0557518  61.3478699   0.8913178
  56.0675850  54.6878471  34.4256477  56.4545746  53.8657875  34.1245041
  56.4573212  54.8344688  35.2875290  74.8944626  70.8514023  31.9929695
  75.6883698  71.1794434  31.5706863  74.1781006  71.2462845  31.4958477
   4.4035087  42.6678162  72.7880630   3.8269069  42.4012871  73.5041122
   5.2698145  42.7333412  73.1898727  64.4907913  26.0394077  28.4161987
  64.0375443  25.2154808  28.2374802  63.8134422  26.6123142  28.7756443
  75.3413010  19.5102253  81.4548798  74.6859665  19.5307541  80.7574921
  75.8971939  20.2704086  81.2836227   9.8379984   5.4446616  36.3360634
  10.6566706   5.3219614  35.8554878   9.1530781   5.3011856  35.6829681
  56.2312660  68.4487991  10.5085087  56.7665253  69.1789703  10.1977291
  55.3852234  68.5717926  10.0780277  39.8033447   2.4958308  22.1415482
  38.9234581   2.1199000  22.1682053  40.3753395   1.7879231  22.4380627
  60.5442238  66.9585724   4.6912303  60.9071579  66.0950546   4.4941425
  61.1963768  67.5744247   4.3570919  64.8189774   1.3651429  22.4109268
  65.6499939   0.9007282  22.5107250  64.9984207   2.2488692  22.7319584
  34.1750488  23.6370888  71.6052628  34.0989914  24.4735928  72.0642929
  33.9521866  22.9805908  72.2652435  58.5126266  37.4170685  27.5983753
  59.0582237  37.7063065  26.8670063  58.1319962  38.2232933  27.9467335
  36.7898407  38.5640259  56.7492981  36.7383385  37.8246269  57.3549995
  37.6667557  38.9233437  56.8839874  28.7400761  43.6258774  86.7626419
  29.0234699  44.2072563  86.0570068  28.8557453  42.7444458  86.4077759
  73.7090302  27.9821930  43.9336700  73.9276123  27.1769485  43.4645882
  74.4501266  28.5648003  43.7676201  61.0118446  44.7855492  76.3181229
  61.4522514  43.9368935  76.2727509  61.6049042  45.3361282  76.8293686
  69.9892883  52.0835342  56.1389046  70.1200256  52.0425720  55.1915588
  69.2952423  51.4476471  56.3126183  22.9916286  41.8385239  10.8768358
  23.4478970  41.7797394  11.7162380  23.6277828  41.5214882  10.2357206
  83.4357224  50.4700737  54.4699059  84.2157440  49.9890289  54.1935043
  83.7756042  51.2019768  54.9847183  47.0808372  23.0362778  80.3591003
  47.1468277  22.7256184  81.2620773  46.1544418  22.9381008  80.1391296
  19.2511539  45.8271561  24.0483761  20.1639290  46.1148987  24.0317822
  18.7948303  46.5065689  24.5447636   5.4392948  69.4606247  33.0242195
   5.2345304  68.8237000  33.7087822   5.8895798  68.9514465  32.3502655
   0.9811665   5.8409739   4.9719577   0.9384709   6.2414989   4.1036325
   1.8302991   6.1133213   5.3198552  47.2609901  43.4953613  41.3369331
  47.4408112  43.6569672  42.2630997  46.3821068  43.1163101  41.3261757
   5.5088763  63.3611641  87.8012238   4.5889616  63.1177521  87.6976013
   5.5094132  64.3175735  87.7622681  65.2953033  14.1245527   6.1157441
  65.0313873  15.0058479   5.8513575  64.9035873  13.5498209   5.4581141
   7.5839915  10.0986662  59.5535927   7.4876752   9.2065754  59.8869553
   8.5192833  10.1859283  59.3696175  79.5882721  17.7213993  69.8869858
  79.1620789  17.2818813  70.6227951  80.4420319  17.2946053  69.8149872
  76.3586884  19.5826645  11.3652592  75.9008942  19.9832878  12.1042805
  76.7923889  18.8157673  11.7394323  44.9156075  25.8069553   1.5186281
  44.7537918  26.5202847   2.1360502  45.8464546  25.8793354   1.3076473
  40.6794968  45.5644608  82.4868393  40.5998230  44.9712906  81.7398224
  39.9775314  45.2977257  83.0804138  82.3871994  58.7844696   0.5615312
  82.8245621  59.6353722   0.5312831  82.9462814  58.2476387   1.1232014
  59.0568542  11.7319069  69.7358704  58.7018661  12.4656563  70.2376938
  59.6170120  12.1414118  69.0765076  47.8682137  66.6991730  75.1501160
  48.0418282  67.4884796  74.6371918  48.3967323  66.8063660  75.9409409
  75.6108246  33.5433693  43.0361977  75.8488693  33.7829666  42.1405640
  74.7372513  33.1600914  42.9574547  85.3539886  33.1545715  84.8133469
  85.3027954  32.7058411  85.6573029  86.2865829  33.3338699  84.6936035
  63.4403801  61.3220177  48.6004372  62.5515900  61.2632866  48.2499580
  63.7856331  62.1396790  48.2420235  83.3295898  31.0719433  60.1614799
  83.8207169  31.4425259  60.8947525  83.1782455  31.8134804  59.5754318
  33.0611763   8.8545017  15.5224733  33.8066254   8.2952461  15.3039122
  33.3090553   9.2725782  16.3470936  28.5743904  67.1401749  67.7269058
  28.7423687  67.1789703  68.6684494  28.0628967  66.3399353  67.6076431
  53.6536140  20.8573265  84.1679840  54.2041435  20.8868980  83.3855057
  53.3042412  19.9662647  84.1814957  78.4155350  17.7985783  78.5788879
  77.9036789  17.1450462  79.0554733  79.3249207  17.5996742  78.8017731
   0.6141763  35.8906631   6.3586659   1.4194498  35.5686378   5.9536161
   0.1382124  36.3123131   5.6431923  57.0337105  24.8765163  79.6655350
  56.7640953  24.2318516  79.0113602  57.5640144  24.3788300  80.2878799
  77.5337448  47.2481880  81.3472595  78.0714493  47.5522499  80.6160583
  77.1272964  48.0430908  81.6924515  81.5728149  50.1623573  52.3681412
  82.3328781  50.0442047  52.9378624  81.5183716  51.1086311  52.2346077
  60.8311958  15.0071821  29.7346554  60.4033699  15.7994041  30.0595837
  60.3256149  14.2888145  30.1148720  61.6125259  12.5621624  83.9182129
  62.2235756  11.8267107  83.8739395  60.7590599  12.1557283  84.0686874
  58.1554031  59.2038383  66.1202927  58.7112312  59.9630737  65.9446487
  57.9355583  59.2776718  67.0489731  74.0610352  51.1805801  42.3513756
  73.7994232  50.7076836  43.1414146  74.3981400  50.5019073  41.7665749
   5.6899199  63.0782776  38.4160500   5.3495102  63.0733833  37.5214386
   6.6275253  63.2421265  38.3146515  49.6550484  53.8244514  22.8077049
  50.4134598  54.3947563  22.6820412  50.0161743  52.9381752  22.7893620
  18.1880684  43.8472404  86.2772751  17.7825527  44.3464622  85.5683517
  18.7165909  44.4896774  86.7507401  65.8742599  67.8338318  11.9269323
  65.4099960  67.7385101  11.0953035  65.8535385  66.9588394  12.3144741
  16.6392078  31.2109470  88.1173553  16.7803898  31.9737206  88.6781387
  17.1624088  31.3882408  87.3356552  48.4252014  46.7395401  35.1708565
  48.8952866  47.1827774  35.8771133  48.3568954  45.8303490  35.4623032
  67.3597488  19.9310703  30.4140835  67.2738495  19.1085091  30.8960037
  66.9203873  20.5786266  30.9653244  45.6632309  11.2951612   0.5033936
  46.0615692  11.4968615  -0.3432915  46.1772385  10.5617743   0.8412828
  85.0636520  45.0573730   2.7900825  84.4406052  44.9036102   3.5002961
  85.2340164  45.9987946   2.8205595  48.1982346  21.0930271  68.3540115
  49.0662346  20.7108212  68.4833221  48.0140305  20.9599342  67.4241791
  36.3116150  29.4668255  17.0691547  35.6902618  29.9921951  17.5732746
  35.9259453  29.4133873  16.1947193  82.7213669  63.6997795  33.6268272
  82.9751434  63.4385529  34.5120316  82.6779327  64.6553345  33.6622772
  60.9644470  29.8135910  48.1199188  61.0841904  30.5690079  48.6954536
  60.7789612  29.0866241  48.7143478  25.4146137  26.7584152  24.5301895
  26.1702423  26.3062191  24.1549892  25.3055725  26.3648815  25.3959122
  64.1812668  26.0042572  42.2352104  64.9363480  26.5533428  42.4463692
  63.4909058  26.3097706  42.8236809  66.2946472  33.8816109  82.3295822
  67.1713867  33.6765289  82.6544113  66.3885574  33.8922997  81.3770599
  70.7222672   5.0692964  78.1694412  71.6117020   5.4069204  78.0638428
  70.8056030   4.1263433  78.0275726  20.2701130   9.8761683  20.9326763
  20.5986176   9.7822676  21.8268242  19.5588589  10.5127230  21.0044365
  67.0401306   7.4031286   3.1247807  67.9953613   7.3924799   3.1851676
  66.7733841   6.5237288   3.3926203  57.3090706  63.8997459  12.2654600
  57.4793205  64.7461090  12.6788769  57.8405151  63.2786789  12.7635307
  34.2670212  61.7207909  79.6184235  34.6418800  62.5806046  79.4275589
  33.3205070  61.8589058  79.5828323  28.9729309   0.1703093  80.7296600
  29.8221378  -0.1422975  81.0416870  28.6296539   0.6938791  81.4537277
  42.3510666  34.5413284  73.4706192  41.7144890  33.9724846  73.9035339
  41.8594208  35.3356323  73.2618179   6.9348001  63.8801308   1.2194060
   6.3633523  63.4905968   0.5576333   6.5031343  63.6877785   2.0518105
  73.1366119  18.3832722  54.6219063  72.5679855  17.8250504  54.0915451
  73.8261108  18.6634998  54.0199890  79.8224258  30.7714748  28.5958672
  80.5822983  31.0655937  29.0981808  80.1955872  30.3012962  27.8502693
  24.0508575  59.4005318  41.0467949  23.5721378  58.5742073  41.1119614
  24.3575840  59.5705147  41.9374466  74.8482208   2.0614636   3.6701357
  74.7127609   2.0555823   2.7225873  74.0037918   2.3313704   4.0311303
  45.3195534   1.8067693  13.2128401  45.5570717   1.4097376  12.3748751
  45.2228584   1.0652496  13.8103600  31.2113705  18.9068699  13.4688854
  31.0403023  18.5870152  12.5830746  32.1175232  18.6531944  13.6443014
  55.7210007   6.4594312  25.7249203  54.8368568   6.7870207  25.8898525
  56.2909241   7.0494347  26.2181911   7.3317809  70.0640411  60.8122025
   7.3346958  70.8946457  61.2879372   8.1986771  69.6920319  60.9744797
  30.6569691  67.0295334  77.1509552  29.9704247  67.5787354  77.5294724
  31.1591129  67.6239929  76.5935440  60.3267899   9.0763779  69.1414871
  60.6736908   8.7273159  69.9624939  59.7012787   9.7484217  69.4122772
  45.3774300  70.1107407  43.1456757  45.4007950  69.6766052  42.2929077
  46.2116966  69.8804855  43.5545959  24.5893784  46.0214806  61.1975899
  24.8711586  46.9181213  61.0162964  24.4113655  45.6472740  60.3347397
  18.1720963   2.4732947  74.0878143  18.6583977   3.1438048  73.6080627
  17.4560986   2.2306032  73.5007172  84.6025620  11.9135962  26.8371124
  83.8536301  11.3722191  26.5876293  84.7001877  11.7683449  27.7781773
  48.7159729  24.8120327  77.0255432  48.2904205  24.8994350  77.8784790
  49.2238121  25.6174755  76.9275894   4.0919623  24.2604733  74.7357635
   4.6420527  23.5227413  74.9991760   4.6539164  24.7874031  74.1676254
  21.8848782  42.5907936  72.3598404  22.0164890  41.6571312  72.1949615
  22.6997337  42.8785133  72.7714920  70.1377182   1.5774043  58.7199631
  69.2639618   1.4299238  58.3579826  70.2515411   2.5273867  58.6915169
  68.7482376   2.7847292  72.4624710  68.7069855   1.8288749  72.4920197
  69.6843185   2.9835172  72.4410172  45.9603462  64.9527206   5.6565356
  45.5230217  64.3806381   6.2871685  46.2098503  64.3711090   4.9384074
  37.1448441  66.1391525  86.8328171  36.6855698  66.6131134  86.1395187
  36.5124283  66.0913315  87.5497513  65.3766327   1.4041015  39.5206985
  65.9979706   1.2278459  38.8142242  65.2528534   2.3530300  39.4996033
  62.0189438  52.6756401  48.7547989  62.2861252  53.4807434  48.3113403
  61.4259605  52.2475319  48.1372833   7.7940283  56.5365829  68.1659851
   7.3969164  56.9472237  68.9340439   8.6884489  56.8770485  68.1479111
  64.7321472  24.9798832  74.6567993  63.9268188  24.4664803  74.5927658
  64.5805588  25.7350883  74.0885391   2.3039470  49.4150200  37.4949951
   2.7509179  49.2035446  36.6754074   1.9338112  50.2854805  37.3482590
  50.5161400   6.4781814  30.3662491  51.1625862   5.8892350  29.9770451
  50.8912048   7.3519244  30.2561073  14.0437355  57.0713387  15.9508085
  14.6588945  57.0129089  15.2197838  13.5634975  56.2436867  15.9264565
  66.5942001  50.7891541   3.0072298  66.2231598  50.2287865   2.3256514
  66.9569778  51.5364723   2.5316892  42.7075081  52.6159782  66.4126968
  42.8994408  52.1521721  65.5976639  43.3475304  52.2761459  67.0380859
   5.0791693  14.6805830  31.2286377   4.9888992  15.4275951  31.8202934
   4.1998620  14.3054171  31.1806679  43.2524223  32.5262260  24.4127350
  42.9101601  32.9405098  23.6206131  42.5296478  31.9858646  24.7318497
  52.6470718  60.3015366  84.8434219  53.3935890  59.9464607  84.3608627
  52.0569878  59.5560455  84.9542160   9.0962934   3.7133107  73.3698578
   8.7922812   2.8780119  73.0147705  10.0509834   3.6448848  73.3590927
  42.8088684   1.1253695  51.3887634  42.2691727   0.3356519  51.3526268
  42.6268158   1.5006703  52.2502975  41.5616341  25.5983143   3.5997739
  40.6062355  25.6154594   3.5436351  41.7523766  24.8977089   4.2234731
  71.6949463  30.2671967  28.7201767  72.0146942  30.2785625  29.6223240
  72.0601883  29.4651070  28.3467045  38.7443619  61.3817024   7.2550459
  38.6288071  60.7470703   6.5478516  37.8905716  61.4178734   7.6862769
  43.1221848  44.3505936  74.4800491  42.9289665  45.2880478  74.4716644
  43.4456940  44.1648293  73.5985413  28.0307331  41.2270966  16.7759418
  28.3098469  41.6808357  15.9806738  28.1242123  41.8800621  17.4695759
  27.8627949  41.5799408  82.9430542  27.5282478  40.9197502  82.3360443
  28.5666962  42.0138359  82.4608841  50.5738373  43.3468513  44.2894096
  50.3210678  43.4533463  45.2064705  50.5963860  42.3993111  44.1556664
  56.0369492  29.7582302  56.4231110  56.1921883  28.9076557  56.8337822
  56.1072540  29.5871544  55.4839478  70.5382996  45.1798477  72.8076324
  70.0945969  44.8462524  73.5874252  71.4572144  45.2496796  73.0663681
  56.7630539  63.0773659  63.8711510  57.3419838  62.9840736  64.6277008
  57.3060074  63.4981346  63.2045288  48.6478081   4.6240196  59.9781418
  49.6001282   4.6971765  59.9151649  48.4568710   4.7729120  60.9042130
  37.3628197  32.8542824  24.9952831  36.7825127  32.9093399  24.2360458
  37.3345299  31.9325924  25.2520332  30.7301712  57.9629745   6.7703433
  31.0198174  57.4729767   7.5399137  29.8967361  58.3527679   7.0343084
  53.9469795  16.0656281  28.1392860  53.3667183  16.4739532  28.7817822
  53.7374115  16.5040131  27.3145847  74.9174194  16.5537605  19.1531925
  74.3457260  16.4557590  18.3917542  75.5918808  17.1704445  18.8685169
   8.0697289  29.9832954  78.8555145   7.2080665  30.1726913  79.2268600
   8.6871862  30.3900013  79.4634323  24.4120712  40.6384125   9.0244999
  24.1170998  40.8016663   8.1286373  25.1864109  41.1918221   9.1263008
  62.7216454  66.4365158  68.4282455  62.8690948  66.5361099  67.4877319
  63.1566124  67.1936569  68.8203812  37.7544289   4.0328603  83.4990845
  37.8784294   3.0883179  83.4058304  37.8915710   4.3805842  82.6178818
  79.6014938  65.0992203  77.4981384  79.9309235  65.5844421  76.7416611
  80.3684158  64.6402435  77.8407822  71.2234116  12.5844278  87.0147171
  71.8088760  12.9242649  86.3379745  71.8098145  12.2219858  87.6787949
  14.0490103  30.5267677  87.4733810  14.8785572  30.3100128  87.8989410
  13.9039602  31.4485111  87.6868820  47.2467003  11.5891218  87.5925827
  47.4989853  11.3885717  86.6912689  47.8082771  12.3234835  87.8407288
  79.0014648  16.3217545  82.9656601  78.8273468  17.2307911  82.7215881
  78.1355515  15.9166574  83.0139160  43.7392502  13.2317953  42.4469604
  43.5421448  12.2952127  42.4608994  44.6814880  13.2758608  42.2842331
  67.5637131  54.5695343  53.7200737  67.1752014  53.6948204  53.7071190
  68.4981079  54.4187241  53.5772743   2.9312644  30.8058681  20.6562881
   2.8088679  31.7523193  20.7303276   3.8740842  30.6774235  20.7603302
   3.7119129  59.5282669  53.1086311   3.7900496  60.4704704  53.2582321
   4.3880501  59.1406364  53.6643410  33.3442764  35.4093437  16.7397404
  32.9693909  34.5973053  17.0807495  32.5888443  35.9134064  16.4372845
  72.3686142  24.1768246  34.0763931  71.5059967  24.4538918  34.3851814
  72.5569763  24.7574921  33.3391190  70.8912659  13.0153351  22.5154266
  71.6571579  13.5538673  22.7144814  70.7592010  13.1254854  21.5738010
  78.2314301  13.9962540  24.9439449  78.8682938  14.2466850  24.2746773
  78.7638321  13.7314911  25.6940594  54.3955917  27.2201309   2.1681941
  55.3420906  27.1376019   2.0517278  54.2742615  28.0987873   2.5280223
  32.6761169  70.1431580  34.9192390  32.6334572  69.2262573  34.6477585
  32.5227699  70.1206665  35.8638077   4.1097989  11.0459557   3.4711759
   4.1378574  10.7592506   2.5583534   4.9218130  11.5379753   3.5927551
  42.0466995  21.7983761   7.6676764  41.4487534  21.7106438   6.9253869
  41.4864845  21.7078209   8.4385138  62.4601402   3.1432424  70.6016159
  63.3889923   3.3210969  70.7493744  62.4515114   2.4226329  69.9716339
  36.6385460  32.7974205   8.9004698  35.7050362  32.7954559   8.6888371
  37.0713043  32.5720482   8.0769644  56.1449509  29.2941456  10.6657410
  55.8413200  30.0524235  10.1666870  55.3588905  28.9628506  11.1000013
  60.5504265   9.8000879  10.0548820  59.8776512   9.2902718  10.5062046
  61.3420563   9.2664661  10.1241865  23.4751415  60.8558083  23.4995823
  24.0794830  60.5286980  22.8332462  24.0422268  61.1683273  24.2045498
   9.3767128  31.3099709  24.5231514   9.5900803  32.1414490  24.9466476
  10.0490265  31.2045689  23.8500118  59.9934425   4.5186634  60.8645897
  60.7752838   5.0687985  60.8165283  59.7060051   4.4310389  59.9557800
  58.1266365  21.2601261  73.1198349  57.3547363  21.7017632  72.7657776
  58.1884155  21.5726261  74.0224762  16.8488789  67.3142319   8.8248606
  16.2331581  66.8863449   8.2298546  16.3009949  67.6556396   9.5316105
  76.9277573  43.8498878  85.7267609  76.2489548  44.5231018  85.7741394
  77.3908768  44.0338173  84.9094925  36.1097984  43.0027466  12.0467196
  36.9181213  42.8377762  11.5612974  36.3228569  43.7352753  12.6248512
  60.5936470  28.8747215   3.2038341  60.4882545  29.6575432   2.6631715
  60.7474174  28.1688519   2.5758731  76.7263870  58.9426117  56.0799484
  76.0916595  59.5381203  55.6815453  76.9236984  58.3074150  55.3915977
  74.6419144  47.1645660  11.2331715  73.8505249  47.6985130  11.3027687
  74.3907547  46.3155365  11.5969048  30.3818703  44.3990250  60.2325783
  31.0514088  45.0829735  60.2199516  29.6247578  44.7970543  59.8029442
  42.6562042  40.1624947  13.7204418  43.2980385  39.4525681  13.7035608
  43.1423073  40.9169960  14.0530987  40.4244995  53.5644264  38.4430275
  39.4816513  53.5368195  38.2802238  40.7561417  54.2117958  37.8208046
  84.7729187  33.4706421  71.5746994  85.3005676  33.6519585  70.7969131
  84.7025909  34.3156929  72.0187454  42.6542778   9.6749563  15.8652382
  42.4373550  10.4981127  16.3029480  43.3220673   9.2758703  16.4229279
  76.8698807  49.6505127  82.3441620  76.6578522  50.2171974  81.6024475
  76.1448135  49.7759476  82.9563599  16.0437794  49.1554909  51.2757187
  15.6252298  49.6558533  50.5752296  16.4488411  48.4117088  50.8296928
  44.7310028  38.0287132   8.9096279  45.0955353  37.7065086   9.7339659
  44.0297852  38.6240845   9.1743088  18.0499020  67.1723557  44.3355370
  18.4544201  67.2534637  43.4718132  18.7384663  67.4316711  44.9478035
  40.3202667  69.8046951  88.6825409  39.4993324  69.3677521  88.4558640
  40.6134262  69.3646622  89.4804535  80.0230942  44.4963264  48.6347618
  80.7680893  44.6479568  48.0531998  79.3477249  45.0974770  48.3205490
  69.2368011   9.6546183  85.7261276  70.0488968   9.1634712  85.8506622
  68.9324875   9.8433189  86.6138229  52.1209831  25.6982803  74.3878098
  51.6419716  25.3918896  73.6178055  51.4854698  26.2267113  74.8706284
  22.5840931  14.1398497  17.7110386  22.4391804  15.0439749  17.4321308
  22.1120548  14.0664997  18.5405159  38.1588135  14.1148176  14.2079754
  39.0889549  13.8909740  14.1769361  37.8564110  14.0074902  13.3061628
  48.8471909  48.5336838  31.0551929  48.3793488  49.3101540  30.7478676
  48.4062119  48.2954941  31.8706894   3.7126050  52.5888481  76.5844193
   4.1100039  51.8769760  76.0828781   3.5177619  53.2617111  75.9320984
  57.6885681  57.2291298  70.3600159  57.0701027  56.5565681  70.6453094
  58.4245987  56.7381973  69.9946671   1.7303756  11.4592609  38.6855469
   0.8905290  11.2618990  39.1002007   1.5202404  11.5659294  37.7578087
  81.8576584  42.5406303  62.2352600  81.0384293  42.6526489  62.7174873
  82.1735306  41.6758919  62.4973335  46.2831688  31.9048157   9.9519033
  46.2341728  31.9755497  10.9052277  45.3940239  32.0933723   9.6517305
  83.1666565  27.0316753  27.9826412  83.2555618  27.9249763  28.3148155
  82.8002930  26.5385361  28.7166882  57.6665955  32.1581535  51.9272003
  58.2838440  31.4271622  51.8973999  58.0357399  32.7570267  52.5762901
  37.8949432  58.9286346  10.7762785  38.4588318  58.3166199  11.2492485
  37.1873932  58.3843384  10.4308062  29.6155281   3.0336182  63.3865738
  29.7943153   3.0776181  62.4472466  30.4441605   2.7533631  63.7752342
  60.0562782  33.3106918  37.1134491  60.1307564  33.9547005  36.4092216
  59.5391197  32.5999985  36.7343826  42.4478340   1.9272454  35.5659332
  42.9044380   2.5196881  36.1632233  41.8745117   2.4979820  35.0542755
  20.0808144  34.3567619   8.9534454  20.2087326  33.7612305   9.6918306
  20.8731098  34.2574348   8.4255877  31.6552696  34.0588608  73.0424271
  32.4253769  34.1995888  73.5932159  31.3335972  34.9398041  72.8508606
  17.3329678  41.0640182  84.3445053  16.4910221  41.1128578  83.8917618
  17.1056709  40.8591652  85.2514801  10.9495077  68.1044846  28.9982491
  10.1404686  68.6120148  29.0622883  11.2131577  67.9584122  29.9067554
  61.8470840  59.8281059  44.0952187  61.7399788  59.5336800  44.9996948
  61.3396797  59.2025642  43.5780373  84.0839691  34.2506142  40.7587547
  83.2072220  34.3158875  40.3802185  84.6477051  34.0228844  40.0194511
  64.9227905  68.2660980  77.3836365  64.9622040  68.6620941  76.5130844
  64.2050476  68.7229004  77.8222885  46.8060188   1.6701542  38.7073174
  46.7512856   2.3785970  38.0659561  47.6511154   1.2552626  38.5343742
  24.9647865  53.9769363  21.4572296  24.8695221  54.5289536  20.6810646
  25.3892708  53.1818161  21.1350040   2.0440822  -0.0517247  42.9278030
   1.5787234   0.6967546  43.3012352   2.2321298  -0.6154829  43.6781654
  69.1721725  55.5018730  17.7861786  68.3987885  55.9031143  18.1825542
  69.7445831  56.2400932  17.5773487  11.9822235   4.8544221  23.7409821
  11.5182648   4.1790648  23.2461433  12.2982635   5.4648509  23.0748539
  39.8190193  53.2114868   2.8523550  39.2336693  53.7603989   2.3305407
  39.6654587  53.4887009   3.7555740  48.8045921  36.8948746  61.4929581
  49.5109901  36.4998779  62.0040436  48.0260811  36.7909622  62.0400887
  30.2691021  31.7258854  83.8226700  30.7124996  32.4128304  84.3204041
  30.8926010  31.4865360  83.1369629  27.9128819   0.8835788  36.0857048
  28.1365910   0.9168132  37.0158043  27.0605125   1.3153894  36.0287971
  40.7394066  34.9063835  17.7479210  40.8724518  35.2046967  18.6476650
  39.8546791  35.1976624  17.5273628  79.3425217  43.1233521  38.3360634
  78.5960083  42.6935081  38.7534142  79.3045044  42.8367577  37.4235687
  27.3975773  66.0305710  59.8676224  27.3735771  65.4205246  59.1304054
  27.9675274  65.6077271  60.5099564  67.4543457  38.1342201  70.7332764
  67.1322556  38.3136482  69.8499298  67.0719147  38.8262215  71.2728195
  78.9440689   8.4835949  51.6130066  78.5754013   7.8138895  51.0369797
  79.8869553   8.3192797  51.5985794  68.2639389  44.8390961  69.6767120
  67.3632584  45.1606178  69.7171326  68.7031784  45.4330177  69.0679855
  80.5403748  26.9309292   0.5652849  81.0478287  26.9072857  -0.2459879
  79.7798843  26.3772373   0.3883272  12.7467136   4.1499643  53.8472366
  13.1521435   3.3955266  53.4198227  13.2744827   4.2923040  54.6330032
  57.7010345  22.8343945   4.6110597  57.7790298  21.8862782   4.5051022
  57.8873062  23.1886940   3.7415733  53.2180214  34.6546364  20.9748363
  53.3274536  34.7532768  20.0290413  53.6368294  33.8183594  21.1784763
  78.7510223  66.1124878  66.9660645  78.3364334  65.2904587  66.7041473
  78.0208588  66.7162857  67.1021500  75.2026138   7.5725608  74.6471100
  75.9927673   8.0982952  74.7716064  74.8337326   7.8864055  73.8214874
  25.4820156  40.3602104  16.6969604  26.4168262  40.5629463  16.6614914
  25.3352337  40.0633011  17.5950317   0.3730890  40.7714272  81.0707703
   0.2647858  41.7036209  81.2592239   0.9957253  40.4645844  81.7298660
  16.6975994  15.6867867  73.7953339  15.9439754  16.2077179  73.5179977
  16.5611000  15.5481739  74.7325516  39.6813240  37.1511040  21.4496994
  38.7601662  36.9715462  21.2614021  39.6681938  37.6207008  22.2836876
  77.1536713  18.6741333  28.4138889  77.4415054  19.4385338  28.9129658
  77.6451263  17.9437637  28.7897396   8.6013689  65.3969574  69.4060287
   7.9638219  64.7842636  69.0394669   9.1773062  65.6109695  68.6720505
  80.7281876  62.6570053  29.3369293  80.2300797  61.8401566  29.3665371
  80.4025116  63.1080284  28.5579891  24.6484299  47.6776657  13.3563013
  23.9246941  47.8287811  12.7483501  24.2241802  47.4151039  14.1731882
  81.1836395  13.2025909  70.6572037  81.2051468  12.6556072  69.8719788
  82.0780716  13.1697817  70.9965286   5.5357118  33.3687782  85.2520523
   5.8976994  32.5614128  84.8868713   4.7133527  33.4977760  84.7794876
  81.5350189  52.3704338  15.6863298  81.0471115  53.1933098  15.7187395
  81.4920654  52.1025085  14.7683964  81.4363708  11.9039030  12.4463291
  82.2855835  12.1664963  12.8014393  80.9180145  11.6671419  13.2154093
   5.4124122  59.0814705  10.6669760   4.9484315  59.8076897  10.2503681
   5.9965129  59.5012550  11.2985134  82.9098129  35.6714325  12.8985987
  82.2480392  35.8504105  13.5666199  82.4240570  35.6728516  12.0738125
  27.6102219  26.4195557  71.0178452  28.4861126  26.7831516  71.1476364
  27.6978970  25.8508682  70.2528992  53.0251350   1.0999597  30.5724812
  52.9760590   0.3774532  31.1984272  52.6203117   1.8386447  31.0271168
  34.6216202  53.8316078  62.2615013  33.7725487  54.2499275  62.1189613
  34.4369621  53.1160545  62.8698730  61.1392136  51.6127625  31.0440826
  60.8122826  50.7207260  30.9273720  61.9986038  51.5016060  31.4506855
  27.9844913  71.2042770  75.6877899  28.6693764  71.8432312  75.4905396
  27.2222137  71.5109634  75.1967621   0.2626272  47.2653694  25.6659184
  -0.6533021  47.2968712  25.3896694   0.4122491  48.1074409  26.0957565
  19.5281944  65.0550003  64.2413940  20.4117775  64.7777710  64.4835968
  19.5557957  65.1371307  63.2881279  61.0601463   5.8803639  48.4345398
  61.6797943   6.5496840  48.1442337  60.7836876   5.4442081  47.6285820
  68.9108276  35.2522583  12.9528389  68.9754715  34.5923271  12.2625198
  67.9883957  35.2421150  13.2082672  36.2346115  67.8885727  10.9338341
  36.8000908  67.1208038  11.0174894  35.5650063  67.7673492  11.6070108
  73.0665588   9.1741590  31.8516388  73.1091156   9.8593931  31.1846485
  73.9446030   9.1556311  32.2323456  11.6282530  71.3749619   5.4046688
  10.9236927  71.6914825   5.9700394  11.3127422  71.5365372   4.5155234
  47.6269836  15.4021406  79.5970993  47.2729797  16.2666626  79.3884964
  48.5757980  15.5092840  79.5300064  66.0863113  60.2364998  33.5245438
  66.2144165  59.9915161  34.4409523  65.1503372  60.4247131  33.4555244
  33.9174881  68.0833664  53.5604324  33.5249252  67.3103485  53.1547699
  34.8061562  68.1145782  53.2061348  48.7060547  37.9865494  56.6513710
  48.1593018  37.4346390  56.0921860  48.2874832  37.9454231  57.5112190
  28.9518967  10.6931047   3.6371822  28.3183651   9.9822817   3.5392091
  28.4362526  11.4911776   3.5213234   6.8158913  64.9514236  19.9194355
   6.1950331  64.2279129  19.8340359   7.5705833  64.6825104  19.3956470
  54.6557503  65.6713409  21.6503716  54.1820679  65.9221268  20.8573017
  55.4712791  66.1708832  21.6103210  59.3416824  12.7198782  31.1312046
  58.8277969  12.0790138  31.6225777  58.8090210  12.9132500  30.3597698
  86.4483414  43.3902283  86.3465805  87.1900253  43.6500931  86.8930206
  86.4912109  42.4342651  86.3234558  57.7111511   1.4908897  27.3085938
  57.5301132   1.6696181  28.2313690  57.6062202   2.3380244  26.8754845
  57.3164291  59.7236404  37.6989098  57.0346069  59.1282883  38.3934326
  57.0086937  60.5846710  37.9820290  40.1170578  32.4471321  10.3456802
  40.2633400  32.7751236  11.2329540  39.5647125  33.1110497   9.9329319
  22.4081097  36.2452660  88.1784668  23.1000233  36.4920578  87.5648041
  22.1890125  37.0590630  88.6323013  82.8628922  29.7233849  29.3106461
  82.2513962  29.0821400  29.6727314  83.2292099  30.1644039  30.0771599
   5.3105812  22.4334431  57.2592239   4.9633799  22.4701862  56.3679695
   4.5523205  22.2200813  57.8030548  59.3443413  19.1631012  65.9770355
  59.9567642  18.4422684  66.1239014  59.2951698  19.6114025  66.8213348
  71.2653275  22.2828121  63.0009651  71.7422943  21.6741753  63.5651436
  71.4146805  21.9546146  62.1142769  74.7971268  24.8144970   1.2805649
  75.7239532  25.0421581   1.3540301  74.6231766  24.2682743   2.0471251
   6.6527305  62.0978050  22.6772728   7.3452010  61.5152435  22.3652782
   7.1189103  62.8491745  23.0438099  57.6936417  63.7508240  46.2226830
  57.3828964  64.6435699  46.0721054  57.1734924  63.2123680  45.6262398
  32.1956558  22.7731476  84.2940826  32.1556587  22.1847439  83.5401535
  31.2934570  22.8184757  84.6106491  23.2283783  19.2446671  18.5538635
  24.0442982  19.7248535  18.4126968  23.2060032  18.5979042  17.8485756
  11.3061562  49.8080635  37.0923157  11.6709003  49.0786972  36.5911026
  10.3876553  49.5728149  37.2236481  37.2593842  49.6478157  47.9479179
  37.1715698  49.1063499  48.7323532  37.8266449  49.1394501  47.3682556
  75.5390091  31.2739925  67.8140259  76.4154816  31.3494549  67.4367447
  75.0890198  30.6446285  67.2504272  81.4951019  69.3339157  67.7898788
  81.0255280  70.0618362  67.3826065  82.3528900  69.3346481  67.3651047
  29.0920200  19.4478436   8.4401274  29.1075668  18.7960701   7.7392826
  29.0829201  20.2895012   7.9843192  86.1214600  13.6951866  48.5697289
  85.7190628  13.9861517  47.7514076  86.8192291  13.1002150  48.2952232
  34.4455528  44.6895447  10.6379032  34.9860077  44.0768852  11.1366882
  33.7235794  44.9069405  11.2275848  46.6813316   9.8764343  42.3624268
  46.2365761   9.1294479  41.9618835  46.6720657   9.6858988  43.3004227
  13.3901081  44.1853676  32.4083824  13.3191462  43.2447701  32.2456703
  13.6378298  44.2508774  33.3306503  63.8905373  33.1104889  28.5884151
  64.5748978  32.6026382  29.0242767  64.2917786  33.3991013  27.7686977
  68.6121445   0.3209392   7.7634377  69.0845032  -0.3943411   8.1894445
  69.2980270   0.8587161   7.3677139  55.1290855  47.0624466  34.9802666
  54.2131691  46.7849541  34.9981956  55.6268654  46.2449303  34.9696541
  44.1012115  45.2125435   8.8488731  43.7277718  44.3320274   8.8871794
  43.6615410  45.6270905   8.1065311  29.9681988  53.3499794  54.4246635
  30.1984692  53.2247734  53.5040474  29.7587509  52.4711189  54.7408333
  77.0625076  55.9207382  17.5655499  77.0361328  56.5106926  16.8122292
  77.2286987  55.0571060  17.1877213  86.7397003  15.7235909  59.7819214
  87.3801727  15.2086878  59.2911034  85.9176636  15.2440271  59.6794357
  67.3600159  42.7549019  88.6276245  68.1961136  42.8372955  88.1689453
  67.5868225  42.3613853  89.4701996  13.9036789   1.2374449   9.3178530
  14.6878633   1.7862712   9.3265715  14.1860933   0.4227962   8.9021349
  28.3560143  17.1045074  19.3248806  29.2985744  16.9966469  19.4520702
  27.9623413  16.7037640  20.0999012  46.7748413  34.1577148  18.9193954
  46.5891457  33.4416084  18.3119946  47.2583275  33.7453270  19.6352253
  79.4939346  46.4423447  45.5314026  80.4270630  46.2322922  45.5686302
  79.0677032  45.6066360  45.3412781  60.4151917  49.5810699  60.8565636
  59.6338081  49.9982224  61.2194061  60.3075371  48.6521416  61.0608482
  69.2318039  69.8484573  14.7865562  68.9228821  70.0682907  13.9076538
  69.3229752  70.6935349  15.2267342  27.2990112  32.6361542  71.9986115
  27.7651749  32.8921242  71.2027512  26.5636959  32.1088448  71.6863861
   6.1013203  70.8429642  64.2820663   5.3989825  70.9360962  63.6384201
   6.1792331  69.8984680  64.4165649  67.7674561  40.3984032  62.1197701
  67.8440170  39.5684776  62.5905075  67.9423523  41.0666389  62.7824211
  77.7839279  48.6367531  58.7310905  78.4450226  49.2345047  59.0802002
  78.2851944  47.9852829  58.2406273  41.3518715  70.7281189  81.7143555
  42.0634995  70.0914536  81.6474457  41.3983955  71.0454330  82.6162338
  80.8529205  19.0186310   8.9076500  81.1192093  18.2338047   9.3865786
  81.5514069  19.6509018   9.0767050   7.1323957  11.4881907  82.0657578
   6.8241434  11.8648720  81.2415466   7.8213949  12.0845547  82.3587799
  72.3454285  19.4737930  14.6714144  72.5003738  20.3283672  14.2690163
  71.8843613  19.6728249  15.4862976  52.2396889  42.6710129  48.5405426
  53.1890106  42.5602379  48.4880981  52.0447197  42.6266022  49.4766235
  57.9552727  31.1398354  16.7933636  57.0293846  31.3455772  16.6644096
  58.3971786  31.9878864  16.7513866  77.8895111  29.1053619  41.8345718
  78.3216934  28.2590542  41.9494972  78.3363800  29.5029831  41.0872841
  76.3448029  69.8882599  26.4161453  75.9192047  70.0671768  27.2546501
  76.3521118  70.7330704  25.9661789  80.0824127  32.3786430  24.3794670
  80.0571442  31.9029846  23.5492001  79.2127304  32.7708321  24.4573765
  17.4477367  41.0976181  54.2239456  17.8812523  41.7846985  54.7301216
  16.6081772  40.9685822  54.6652145   4.5910077  68.8847580  26.7104282
   4.9207826  69.6583099  27.1677055   5.2486539  68.7052307  26.0384884
  72.9452133  13.7937193  85.0651703  73.5346680  13.8767958  85.8147507
  73.4462357  13.2938032  84.4207382   0.6616725  70.5641479  32.1659317
   1.2953529  70.4518280  32.8744965   0.2169517  69.7186432  32.1060753
  47.1919327  69.9162979  77.7345047  47.6967278  69.5051727  77.0327988
  46.9395790  69.1903152  78.3050308  58.6014824  62.7067375  42.4586639
  58.5676765  63.5331306  41.9768295  59.4229240  62.7483940  42.9482841
  54.6818275  63.6557426  65.8892899  54.1939049  62.8335152  65.9351196
  55.1987686  63.5830956  65.0869675  55.8722000  28.2519855  34.1392899
  56.7308502  28.6457806  33.9847679  56.0234184  27.6135731  34.8362770
  -0.0010067  28.3412704  63.4716721   0.7958922  28.6840553  63.8762512
  -0.6145235  29.0757427  63.4911613  59.9567528  63.4264755  35.1702690
  60.7635498  63.9255867  35.2975464  60.2128906  62.5158310  35.3163948
   5.4001079  17.0973530  32.9427834   5.4064965  17.2539158  33.8870697
   5.2708344  17.9638672  32.5572014  53.4146690  38.1082497  88.1135864
  54.1868210  37.7056503  87.7161789  52.9328423  38.4819336  87.3757248
   6.8518076  46.8807716  56.8286896   6.5295062  45.9836159  56.7422905
   6.1965475  47.4149437  56.3797722   1.5073872  39.4092216  15.9350042
   1.3946590  40.1962204  15.4019423   2.0418742  39.6960182  16.6754780
  60.8680305  19.6239319  36.3308754  61.1992302  18.9309959  36.9021721
  60.2084885  20.0744553  36.8583832  60.7797775  10.1948833   2.6992526
  60.6557274   9.9653769   1.7782911  60.6799088   9.3663721   3.1681089
  26.2224369  39.6423798  22.8771381  26.3584499  39.5329094  23.8182793
  27.0288296  39.3147202  22.4788895  83.9437408  32.6597099  62.5650711
  84.7725449  32.8992577  62.1504211  83.3110428  33.2874565  62.2159843
  12.9218988  56.6858482  62.0742722  12.1082067  56.3864250  62.4798355
  13.5848932  56.5722198  62.7552719  86.8247910  33.9469872  43.6421509
  85.9456253  33.6617241  43.3932953  86.8923569  34.8391647  43.3020248
  77.0508575  50.4745636  19.7182407  76.4724655  49.8644714  19.2605495
  77.8797760  50.0029716  19.8002453  45.4129677  38.9749298  55.5639572
  45.3033180  38.0461426  55.3600769  45.8006287  39.3496208  54.7730331
  72.8255692  29.5732403  10.1731138  73.7757416  29.4866982  10.0961533
  72.6485138  30.4848404   9.9410143  76.8002396  36.1714478   0.4790271
  76.5211563  35.5395966   1.1416832  76.2955017  35.9396362  -0.3005495
  40.1833534  24.9813633  13.6477003  40.3612175  25.2778606  12.7551289
  40.5511246  25.6667862  14.2055273  29.4963627  44.1951180  43.2395096
  30.1780205  43.5290070  43.1508102  29.6895199  44.8289452  42.5487251
  56.3299332  25.8121700  63.7107544  56.4051514  26.7410774  63.4923401
  55.3918457  25.6290932  63.6587334  53.9327774  20.2677059  24.7301826
  54.8628922  20.3808498  24.5344467  53.8178864  20.6729088  25.5897408
  77.9692078   1.1267674  42.7425079  78.8370743   0.7271959  42.6843338
  77.4423599   0.6495572  42.1014633  66.6479568  14.1869373  73.2796860
  66.9089890  15.0219698  72.8913345  65.9260101  14.4111357  73.8668518
  65.7287674  19.9279270  77.9458618  65.2066727  20.6443520  77.5847702
  66.6276093  20.1333523  77.6887207  11.5830269  51.8126831  17.5227394
  11.6638241  51.5721970  16.5997715  10.6401854  51.8154030  17.6878891
  62.0513382  69.4683914  48.9740143  61.1438904  69.7663269  49.0373459
  62.5436897  70.0827789  49.5183907   6.3989739  42.8885002  86.9384995
   6.3587151  42.0595703  86.4615479   7.3181129  42.9749374  87.1913681
   7.2571182  69.1870880  74.1213837   8.1949720  69.3640747  74.1944427
   7.1808777  68.2418900  74.2518311  34.0814056  29.6043568  83.8088303
  33.5471458  29.2392788  84.5141754  34.7961960  28.9770031  83.7005005
  19.8733292  14.7807894  66.7082291  20.0644398  15.1300488  65.8377609
  20.6953392  14.3803644  66.9914169  82.5895386  24.4448948  22.6052456
  82.6024246  25.2855759  23.0627651  81.8796997  23.9562988  23.0219288
   3.6529553  56.3662910  57.7249947   2.9809120  56.9874878  58.0055428
   3.7271197  56.5039482  56.7806549  57.9760399  33.4166183   2.4344316
  57.1967087  32.8908501   2.2543108  57.7760391  33.8682175   3.2543652
  24.0344105  68.2713776  62.1648483  24.4512482  68.2403183  63.0259628
  23.3394032  68.9228516  62.2585411  21.8841114  37.7041588  63.4020805
  22.1382637  38.2901306  62.6891441  21.9681549  36.8256073  63.0315170
  34.4401817  50.6863556  50.4520187  33.9456291  49.9329224  50.1295433
  35.3383904  50.3658829  50.5342026  83.1514435   1.8939940  55.1596909
  82.2528229   1.8931998  54.8299828  83.5725937   1.1620775  54.7089539
  16.3447533  32.5800018  20.3663731  16.7915287  31.7920265  20.6757545
  16.3280373  32.4874649  19.4138031  37.5765800  20.9999027  11.5347300
  37.2559662  21.9012260  11.5671625  36.9910126  20.5162811  12.1173553
  28.2216110  49.8485603  73.2642059  28.1065502  49.3456459  72.4579391
  29.1664143  49.8423042  73.4176254  11.5139923  46.6074715   8.3846188
  11.2598143  46.6215439   9.3073473  11.4369240  45.6882744   8.1289463
  63.1099892  14.6625996  64.7255325  63.5851440  15.4909620  64.6601562
  62.5398216  14.6522112  63.9567451  45.6394768  45.9061127  17.7669106
  44.7274055  46.1943512  17.8027020  45.6767120  45.1550179  18.3591080
  70.1606140  23.6993656  38.5031242  70.9195938  23.7851429  39.0800323
  69.9220200  24.6004791  38.2856369  50.2576408  48.4878349  53.6663246
  50.3267670  47.6191864  53.2702141  49.4272881  48.8345299  53.3399086
  13.9019079   2.8819075  31.9908810  13.9419107   2.4610033  32.8496437
  14.0187845   3.8138824  32.1752586  79.0082779  32.3175240  86.7068634
  79.6429291  32.0437317  86.0446777  79.2313843  33.2302628  86.8895187
  35.7496719  66.1175537  36.3602638  35.0383644  65.6722183  35.8998833
  36.3176842  66.4457245  35.6631966  72.3254776  64.5595016  46.7420006
  72.0762253  64.9547653  47.5773888  73.2579498  64.3656158  46.8375206
   4.0350909  19.6533127  34.3931999   4.3466282  18.8898125  34.8792496
   4.8317213  20.0672474  34.0611305  57.5507431  42.5397148   1.6898743
  57.3807526  42.4680328   0.7506204  57.6466713  41.6344414   1.9856892
  16.3487492  68.9615250  57.5322990  15.4467106  69.2284088  57.7093124
  16.8668156  69.4103851  58.2004089  50.2612457  67.3905640  50.9175949
  50.2505760  66.9663925  51.7756119  49.3372612  67.4938126  50.6899452
  47.4425354  43.9879875  21.3070450  46.8249741  44.2450256  21.9917202
  48.3041687  44.1787262  21.6777687  84.6179886  16.0328083  82.2617111
  84.9225464  16.9402637  82.2626114  83.6657639  16.0996799  82.3326111
  52.0699539  17.3378220  29.7222252  51.3609085  16.6948032  29.7258167
  51.7192421  18.0783195  29.2273560   6.6306324  23.6619625   1.0991056
   5.8573108  23.2271996   1.4585330   6.8186483  23.1860752   0.2901477
  69.1518936   1.8224860  11.7777996  69.0795441   2.2686753  10.9340506
  68.7096710   2.4049013  12.3954287  31.9813137  42.8095169  78.1743851
  31.8161831  41.9026031  77.9165726  32.6881905  43.0977592  77.5969086
  32.2821198  56.6811485  25.9940739  31.5369396  57.2768974  26.0716515
  31.9136600  55.8854141  25.6103115  44.1887436  49.6426430  44.6246262
  43.6826401  48.8484535  44.7959671  44.9050522  49.3529510  44.0596352
  23.2904911   9.8433323  13.6441507  23.1632957   9.6545963  12.7144032
  22.8859596  10.7013941  13.7718935  68.1245575  41.0774193  18.7141380
  68.3554382  40.4771538  19.4230881  68.2033768  40.5504761  17.9189320
  44.8282928  29.1689892  84.8135529  44.1216393  28.6052284  84.4988480
  45.5189438  28.5617409  85.0790405  66.3240280  65.2922897  60.0165405
  66.8310013  65.8968124  60.5585365  65.5629196  65.0704117  60.5529404
  42.6309242  59.8769569  52.0527840  43.1004753  59.1862297  52.5203819
  43.3165817  60.4785728  51.7626686  17.7134991  43.9246292  42.1383438
  18.3276176  43.6448479  41.4595108  16.9949894  43.2943802  42.0858154
  33.1451454  48.2200508  50.8697739  33.6093788  47.4095116  50.6606178
  33.4642715  48.4612808  51.7393684  69.5061798  20.0737686  56.1628838
  69.6410294  19.6207371  55.3305321  69.8146896  20.9656467  56.0028725
  49.5396614  38.0167999  14.5237713  49.9038124  38.6060600  13.8631697
  49.6357651  38.4929695  15.3485470  50.6197701  50.5141640  48.6410446
  51.3658180  50.9862022  48.2711449  50.7286873  50.5986099  49.5882721
  84.9882660  60.6934624  81.9841537  85.2764664  61.2637558  81.2714539
  84.1921387  60.2786484  81.6519775   2.8762248  64.5857925  58.7185555
   3.8130767  64.5899277  58.9148254   2.4700255  64.9986267  59.4806595
  54.3883476  27.7909546  12.4201012  55.0887260  27.1644917  12.2377672
  53.5898552  27.3475952  12.1336136   1.7420315  15.6578875  22.5941429
   2.5291457  15.8794012  23.0917511   1.5627146  16.4382725  22.0696659
  30.4233189  70.0722275  73.6914062  29.4701881  70.1321869  73.6267624
  30.6522141  69.3114853  73.1574554   4.7158513   5.2546124   3.3981490
   5.4814105   5.4336858   3.9441192   4.6007671   6.0502820   2.8786330
  69.5583649  36.8729706  39.0216560  70.0279617  37.6233673  38.6574936
  70.1607208  36.5039711  39.6675987  80.0517197  53.1063843   2.0400312
  80.3042908  52.5651741   1.2920133  79.1323929  53.3204918   1.8811969
  83.2013016  44.0049782  64.3198776  82.8609543  43.4229469  64.9993134
  83.0074768  43.5533524  63.4984779  45.2139854  59.8405418  26.9563255
  44.3799934  59.4667816  26.6717300  44.9793282  60.6856766  27.3396206
  79.2926254  48.6873894   8.5199680  79.0077591  49.5026588   8.9327898
  78.9750519  48.7513084   7.6192493  38.1417274   9.8029299   3.5306406
  37.9641304   8.8626919   3.5559981  38.5528870   9.9461107   2.6781845
  40.8767586  71.3818436  23.5596905  39.9519386  71.1362915  23.5850048
  41.1862411  71.0625305  22.7120514  25.0307293   0.9299605  47.3367691
  24.9515190   1.2459573  46.4367142  25.8934784   1.2314235  47.6213989
  24.8758373  62.6294518  37.9662628  24.4693565  61.7951927  38.2008209
  25.1135216  62.5292778  37.0444679   5.1897473   0.0847000  51.0085869
   4.4998374   0.7434702  50.9293480   4.8738303  -0.5126171  51.6865540
  64.5285950  42.6589661  42.4225845  65.1400070  42.1730690  41.8691368
  64.3428497  43.4583092  41.9298515  36.3798218  54.3782921  64.9144287
  35.6335068  54.4898949  64.3255386  36.4713135  55.2264786  65.3485260
   0.1587953  69.8864365  14.7044096  -0.3077448  70.2223358  13.9390697
   1.0847055  69.9929810  14.4863043  65.8835373   7.9208827  73.7102585
  65.1626663   7.2913294  73.7258224  66.4064407   7.7053814  74.4825058
  82.8204117  11.4035063  74.2507782  82.8595352  11.3939581  73.2944260
  82.2263641  12.1246023  74.4590073  79.0448685  38.7319145   6.2869053
  79.3304214  37.9179344   6.7017841  78.2567520  38.9827042   6.7687945
  59.7325363  69.7864227  10.1398125  59.5587196  70.1252060  11.0180206
  58.9686089  70.0489731   9.6262789   2.6433482  18.6593609  87.8760986
   2.5039833  19.6062298  87.8603363   1.8264437  18.2913933  87.5391998
   9.4960804  40.3280869  35.8408966   8.8047514  40.8660889  35.4550896
   9.6159925  40.6866417  36.7202644  63.4959869  41.3337059  65.3587265
  63.2344933  42.2398491  65.1951523  62.9724998  41.0659790  66.1140518
  24.9844971   8.6393652   5.7771201  25.5588379   9.1964817   6.3024626
  24.4231815   8.2025023   6.4176731  24.3458805  70.9424820  20.7091484
  24.7866154  70.4733429  21.4175892  23.7603092  71.5544357  21.1550751
   8.1104012  11.9663887  75.0169220   8.7622738  11.8308792  75.7046204
   8.6172390  11.9758234  74.2049789  72.4038696  62.7347221   4.0464759
  73.2075348  62.6715164   4.5625749  71.7283936  62.3535271   4.6074200
   3.9374208  55.5791473  45.0851974   3.1394680  55.2764435  44.6517525
   3.8919108  55.1997910  45.9628372  62.5744858  23.5019264  38.8733482
  62.3661232  23.7983627  37.9873772  62.8602524  24.2933235  39.3297043
  69.3881073  66.3765564  81.6877518  69.3180389  65.8240128  82.4662247
  70.1122589  66.9719391  81.8810120  28.6571426  26.9548798  50.3085442
  28.0106659  26.5856018  49.7069359  28.9697380  26.2046661  50.8142090
  59.6316795  25.7488060  40.8374062  59.9743767  26.6402073  40.7726555
  59.5325851  25.5979939  41.7774429  54.6973724   4.7291079  11.6185493
  54.1812630   5.3540077  11.1092758  54.2522011   3.8912609  11.4917994
  31.0976868  44.1063614  23.7289867  31.6984463  43.6925278  23.1092567
  31.6677837  44.5744629  24.3389893  80.8546600  38.3645287  54.7038002
  81.6752014  38.5146523  55.1732750  80.3465805  37.7981491  55.2845802
  80.7931061  44.0204887  51.1134567  80.5956726  44.2233315  50.1990700
  81.7490158  43.9874649  51.1504631  26.8755322  61.7977676  71.6038895
  27.6675110  61.8740082  71.0717392  26.8310585  62.6230507  72.0867615
  52.8538094   1.2465051  27.8603535  52.8346291   1.0836909  28.8034096
  53.3880768   2.0348880  27.7642250  67.7451630  44.6792717  31.7745018
  67.3073044  43.8586578  31.5484409  67.0341339  45.3142738  31.8607540
  12.0680895  28.8821793  87.7104111  12.3738098  27.9982395  87.5068970
  12.8670664  29.3745117  87.8987579  69.3242188  67.9721603  34.0010529
  69.8590317  68.7654724  33.9717979  69.1945877  67.7366791  33.0823708
  39.0795822  29.2557163  87.4596405  38.1368027  29.1292839  87.5664673
  39.4065361  29.3834152  88.3501587  24.9352360  16.3490009  81.4124069
  25.2355404  15.5585318  80.9638519  25.6951828  16.9309635  81.4067307
   6.3027072  66.0814819  11.8150978   5.5468178  66.6058197  12.0795422
   5.9977379  65.5888824  11.0531464  67.1358414  37.2701836  10.0326786
  66.2606735  36.8910789  10.1138096  67.3892593  37.0959206   9.1262321
  67.7024384   5.8722572  77.1204529  68.1121368   5.0727425  76.7900696
  66.7734680   5.7680445  76.9145660  15.5143633  40.8381195  78.8536987
  15.7188454  39.9710503  79.2038574  14.7941599  40.6856155  78.2419128
  43.5947151  65.8298111   4.2020192  43.4229240  66.7426300   4.4332972
  44.2651062  65.5472107   4.8240714  63.1458702  12.1889610  17.3444576
  62.6405869  11.5862875  16.7988338  62.5595016  12.9320021  17.4869194
  53.1113396  54.2585869  52.0877800  52.8824768  54.2115898  53.0160294
  53.6996803  55.0109253  52.0239449  24.8448162  24.7424755  48.0180588
  24.6311188  23.8181896  48.1455803  24.1526413  25.0714226  47.4445419
   9.4970055  64.3084106  59.0425491   9.6991167  64.2749557  58.1075287
   8.7846804  63.6792145  59.1562843   6.9501061  48.0238838  77.4258804
   6.6963992  48.3087921  76.5479889   7.7502270  47.5160980  77.2910004
  21.9946861  64.0492020  15.8178759  22.8863850  64.2051468  15.5067739
  21.4570827  64.0739365  15.0262938  56.1731529  37.4365807  80.3010483
  56.2762642  37.1623955  79.3897705  56.2497406  36.6264305  80.8050537
  77.9600143  42.7477379  67.9558411  78.3997345  41.9012642  67.8761215
  77.1095352  42.5403175  68.3429947  75.7639847  69.3791885   3.7020774
  76.0360641  70.2533569   3.4227288  74.8074112  69.4090424   3.6845086
   2.0533926  55.0438919  69.4278412   1.1261117  55.2659988  69.5118027
   2.2156372  55.0456581  68.4844894  52.8666611  70.0533066  72.3077011
  52.0222168  69.6294556  72.4610062  52.7670212  70.9283447  72.6826782
  22.0765572  50.8114548  29.5474396  22.5196400  50.3480568  28.8366852
  22.6020393  50.6179504  30.3237476  25.5037098  29.1770668  44.8986435
  26.1275673  28.9341488  45.5827675  25.2844524  28.3498936  44.4697609
  43.5931702  65.5389786  70.4392090  43.7818146  64.8261948  69.8288116
  42.6572151  65.7068634  70.3294907  76.3290710  63.1355858  63.9461327
  76.9223862  62.6109543  63.4085693  76.8342667  63.9181976  64.1664200
   3.7112658  10.8468122  10.9806547   4.5676312  10.4567680  11.1559706
   3.6805577  11.6202641  11.5437365  31.1421051  54.8812637  22.2671661
  30.5600071  54.1213989  22.2673607  31.6416931  54.8004723  23.0796413
  62.0187263  37.4914589  39.0719604  62.3491669  38.3898163  39.0709152
  62.8044052  36.9472046  39.0197525  36.6463394  58.3390083  64.8558273
  36.1316681  59.1355858  64.9854813  36.0264778  57.7111168  64.4846802
  61.1694946  37.6239243  25.7956982  62.0527191  37.6428375  26.1641979
  60.8848534  38.5377274  25.8088779   4.0924349  70.7028580  41.0033226
   4.5498929  69.9260788  41.3251648   3.2691116  70.7153549  41.4913940
   9.3205252  12.9198408   0.4778452  10.0415764  13.0846729  -0.1297299
   8.5511808  13.2857161   0.0414083  71.3378372  24.0554028  29.4146099
  71.1334991  24.8558846  28.9311790  72.2837830  23.9494629  29.3135891
  65.1805191  62.8726997  53.4578590  65.4263000  62.1326981  54.0130310
  65.7358627  63.5922012  53.7580833  52.2844658  27.6795273  48.5762138
  52.0179901  27.5926952  49.4914627  51.5375786  27.3492165  48.0769272
  81.0460281  59.0476303  49.9433365  81.8272171  58.7607841  49.4703789
  80.3590317  59.0740891  49.2773209  12.6239204  58.1777802  52.8926086
  12.6817265  57.2529945  52.6524734  11.6927118  58.3243370  53.0587502
  23.0101585  43.2956810  80.5025635  22.4162350  42.8948212  81.1372299
  23.4147453  42.5544968  80.0518036  18.3244286  21.0996819  34.0736961
  18.6039429  20.1872311  33.9992676  17.5087471  21.0603390  34.5730400
   7.5947142   0.7774938  69.0617218   7.8771024   1.6898116  69.1262589
   7.2282314   0.7019607  68.1806870   5.3969293  45.9996681  32.0719490
   5.0234542  45.5208664  32.8118820   4.6371989  46.3030968  31.5749874
  73.6660309  40.3689690   1.6764208  73.9370117  39.4567070   1.5735514
  74.2963943  40.8662872   1.1553147  34.5630569  36.2906761  80.9906998
  34.1567574  37.0826912  80.6387558  33.9921684  36.0294189  81.7132339
  31.5696926  66.1733704   8.3025846  30.8661251  66.0695877   8.9432507
  31.3422451  66.9705811   7.8240962  12.7540636  39.6055145   8.6868620
  12.9874763  40.5179367   8.5158587  12.3137112  39.6261368   9.5365067
  49.6359444  31.9833679  26.8631229  48.9631844  32.6641350  26.8497086
  49.8283501  31.8550472  27.7919636   8.6410618  22.1513195  80.0573349
   8.9152842  21.4223652  79.5008621   9.3555012  22.7849293  79.9913864
  80.5735397  47.8392143  38.8861885  80.4523392  47.0684242  39.4406509
  80.7395248  47.4827690  38.0134773  20.8821812  41.0698128  59.6920586
  21.4275208  40.3636780  60.0387726  20.7297554  40.8281975  58.7784843
  72.8874893  34.3515358  63.7610626  72.9909058  35.2986526  63.6688042
  72.7481384  34.2159882  64.6983109  73.2932358  36.0491142  52.0300102
  73.6073380  36.4707642  52.8298759  73.7709351  36.4865112  51.3252258
  85.5866928  20.7863274  53.4577179  86.4340973  20.8865204  53.8914299
  84.9564819  20.7220383  54.1753082  20.4440460  18.6666756  49.7950630
  21.0233364  19.0770817  49.1530190  21.0245132  18.1246948  50.3294258
  57.1790276  15.4022160  88.5452805  57.3628464  14.5942125  89.0244141
  57.9773254  15.9222584  88.6375122  11.4689035  70.3657074  68.1059189
  11.3465872  71.2983398  68.2833176  10.8476295  69.9277496  68.6876755
  55.1932755  45.6028557  59.5549393  54.5820999  46.3173485  59.3755035
  55.9376717  46.0261459  59.9826431  40.9427261   6.5318799  14.2080908
  41.8238602   6.2029333  14.3859386  40.5913658   6.7538576  15.0703583
  46.5451813  53.9183311  87.8830490  47.2321129  54.3124733  87.3454590
  46.1617241  54.6547165  88.3594208  81.6611328  69.6681900  13.0859337
  81.1486511  68.8598633  13.0999823  81.0067444  70.3667603  13.0892267
  41.6272812   1.0296772  67.8219070  41.3866119   0.6952959  68.6859055
  41.1694832   0.4563371  67.2071457  79.1173325  43.6716423  71.1727371
  79.6293335  43.1277390  71.7712784  78.2453003  43.2769623  71.1770020
   2.7665935  69.4678268  16.8556881   2.8327780  68.7437668  17.4782524
   1.9796413  69.9425583  17.1232166   5.3448367  63.8117218   3.6250336
   4.4364181  63.8423500   3.9251490   5.6392841  62.9273148   3.8426487
  54.9608231  64.3020020  74.8335953  54.2641754  64.8249130  75.2304306
  55.7397919  64.5097275  75.3496246  76.6370926  55.9207916  57.3903389
  76.1653442  56.2158966  58.1691818  76.4992065  56.6174126  56.7485123
  36.5180550  46.5465202  23.1611309  35.7011299  47.0453682  23.1654930
  37.2032623  47.2082329  23.2552757  77.2514725  13.3964815  72.5036392
  77.3889465  13.0455542  73.3835144  76.6965408  12.7475681  72.0709763
  61.6708412  53.7631035  79.0133209  62.3915901  53.1399117  78.9217606
  62.0777931  54.6202164  78.8869171  16.8513641  19.7692966  21.8626308
  17.1982231  20.5960178  21.5272942  17.1406040  19.1133518  21.2283535
  10.6947165  69.0367355  62.6483994  10.2747269  69.4609070  63.3966789
  11.2489367  69.7176743  62.2670898  74.4499054  32.0084343  48.5941277
  73.9176407  31.4753628  49.1846886  74.2597046  32.9111633  48.8493423
  48.1561279  68.1279221  82.2523880  47.4576149  67.7503204  82.7869263
  48.0250397  67.7478638  81.3837128  65.7229691  39.6184044  65.4115372
  65.0843277  38.9054298  65.4172592  65.1950302  40.4121590  65.3250961
  82.1004868  20.7522602  72.9869614  83.0302124  20.5593243  73.1078949
  82.0726700  21.6912270  72.8031235  86.9599762  66.6484756  21.1678810
  86.2797852  66.0865021  21.5390530  86.8637848  67.4797668  21.6325569
  84.6521378  12.1845732  55.1878090  83.9927521  12.4320717  55.8360214
  85.4293213  12.6866646  55.4330025  15.1893768  27.0853443  74.2490387
  14.2868204  27.4009361  74.2940445  15.5399113  27.4755554  73.4483566
  37.5310631   4.4828892  74.2266388  37.4556961   4.4100571  73.2751923
  36.8561821   5.1155457  74.4726257   3.3920906  55.4435387  67.0893173
   2.9993010  56.0008316  66.4174728   4.3215208  55.6720848  67.0767517
   3.8970661  39.8521767  21.9321156   4.3948917  39.1278954  21.5528774
   3.1531909  39.9670486  21.3407726  -0.2329513   8.1406269  22.5809994
   0.0801212   7.2706242  22.3333855   0.1886176   8.3164339  23.4221897
  40.7284966  58.1923943   8.4033432  40.7854996  58.1298599   9.3567953
  40.4937897  59.1053085   8.2367973  48.7633018  45.4843597   3.7746286
  48.2604599  44.7237930   3.4832225  49.5712013  45.4478493   3.2625759
  75.1350555  59.0898819  27.1570015  75.1274643  58.3951950  26.4985294
  76.0634918  59.2713165  27.3030491  16.0030098  37.9617805  28.7826405
  16.1502571  37.0170555  28.8278522  15.1074677  38.0800285  29.0992680
  24.9487247  60.3141022   9.2006788  24.7027016  59.6746750   9.8691368
  25.8392658  60.5751839   9.4352112  80.3595581  56.9232407  31.1502266
  80.7074432  56.5958138  30.3207684  79.4603577  57.1813316  30.9476089
  64.4790115   7.4577813  34.6116066  64.9671936   8.1977663  34.2505875
  63.6549149   7.8392634  34.9141998  31.5396729  69.3331451   8.4519110
  30.8306770  69.8289185   8.0423183  31.8327961  68.7274704   7.7711301
  25.0423012   1.8172194  76.3497849  24.2745113   2.3737440  76.4802094
  25.7721119   2.3310955  76.6955261  52.0761299  54.3261452  54.7802048
  51.8921280  53.4709854  55.1688881  52.2087555  54.9064140  55.5298271
  35.5063095  61.0083275  82.7341919  35.1922989  61.8512840  83.0613785
  34.9703140  60.3596191  83.1903915  35.1339607  62.6472702  10.6237411
  35.9451675  62.5083580  11.1124907  34.9123955  63.5647278  10.7831707
   9.4941273  57.7269669  78.6827393   8.9188013  57.7517319  79.4473419
   9.3729334  56.8494377  78.3201294  15.9754305  16.1077118  14.6754980
  16.2999916  16.1548443  15.5747585  15.6336327  15.2176590  14.5905676
  25.5403366  64.5819016  51.7481461  26.1802692  63.9743538  51.3771973
  24.8862877  64.0181427  52.1612091  61.7247353  34.8762016  71.5369644
  61.9854660  35.6003113  72.1060944  60.8428421  34.6468086  71.8300018
  25.6428013  58.1963882  14.9635935  26.1233215  58.9071693  14.5391884
  26.2690125  57.4734726  15.0020790  64.5166397  62.6150169  63.9870644
  65.3438263  62.5665169  64.4662704  63.9050713  63.0156822  64.6048660
  50.6494102  38.0865097  59.5935173  50.0734177  37.9087448  58.8499718
  50.4470673  37.3951836  60.2238808  40.0954132  14.1248846   2.8764365
  40.8234100  14.7462711   2.8649967  40.4005737  13.4086685   3.4333410
  57.0708351  31.6943359  79.6734543  57.9134445  32.0716515  79.4207230
  56.4377937  32.1067581  79.0857544  85.1169434  61.9014626  25.2485962
  85.1068649  61.5648308  24.3526001  85.9374924  62.3903008  25.3115807
  13.1133165  41.8982277  70.3394165  12.3021965  42.3717537  70.5240555
  13.5024929  42.3682632  69.6019592  71.3337479  14.2622414  11.0130949
  71.2345963  13.5442734  11.6383314  70.8631973  13.9675331  10.2333755
  51.9699898  55.5756340  21.7152119  52.5159836  56.2334328  22.1458149
  52.5694580  55.1126251  21.1299839  75.9643250  22.0507317  51.1507034
  75.6088943  21.9456348  50.2681770  75.5546951  22.8506489  51.4801979
  57.7986298  16.1758595  15.9518938  58.2192421  16.7145615  16.6220551
  58.4249077  16.1616478  15.2281504   9.0267982  56.9644585  21.2638283
   9.1671667  56.0333405  21.0919361   9.7546206  57.2153969  21.8326321
  62.1903114  66.2122803  41.2614250  61.9127350  66.1329651  42.1740570
  62.4538612  67.1279221  41.1699524   1.6880419  65.9400864  23.7707882
   1.3348942  66.5374908  23.1115303   1.6956815  66.4527969  24.5790596
  75.3330765  34.1773224  36.3618889  74.9839096  33.8165932  35.5469131
  75.0570679  35.0938454  36.3557739   7.3822246  56.2884293  11.2723055
   6.8663507  55.5065689  11.4692783   6.7804108  57.0170631  11.4244490
  57.3406601  11.8818169  14.2192755  57.0927582  11.0159941  14.5435104
  57.9808006  12.2014341  14.8551188  58.7482681  12.4440184  57.1431274
  58.4329147  12.0875492  56.3126373  57.9724464  12.4685774  57.7032394
  75.7086945   2.5346491  76.7471848  75.7748337   3.4712832  76.9331284
  76.5269318   2.3211319  76.2987061  60.2945137  20.1777802   1.6530560
  60.3494911  21.0839386   1.9565097  61.0023804  20.0958481   1.0139621
  75.6031723  45.7596321  63.1975021  75.4542313  46.5447960  62.6706543
  75.8083267  45.0775070  62.5580902  13.3774824  34.6767960   1.8874340
  12.4656315  34.7837486   2.1582139  13.5233603  35.3797646   1.2543558
   5.6101580  65.5532761  68.3654327   5.1935148  65.9579086  69.1262970
   5.5144467  64.6122437  68.5121613  46.6695900  50.6983604  79.6956558
  46.5191765  51.4584846  79.1336746  47.6193619  50.6701889  79.8112946
  70.2391281  13.7317762  30.4398632  69.3002396  13.9173174  30.4227543
  70.5200577  13.8338585  29.5305271  67.2082977  69.4042969  26.1367455
  67.3881454  69.6096191  25.2192879  66.3149261  69.7161026  26.2812881
  53.4356308  69.2400208  80.2953110  53.5590553  68.8393555  81.1558151
  53.8831482  68.6492004  79.6895981  40.8820992   0.5956596  55.4760780
  40.0139503   0.5050088  55.0832291  40.9143181  -0.0872324  56.1460419
  71.3167038  27.9409370  54.2142296  71.0164185  28.4034405  53.4318275
  71.9166107  27.2730350  53.8821907  76.7344818  34.2535973  59.8061295
  76.6115341  34.5643311  58.9091568  77.4998322  33.6807175  59.7583504
  21.6723270  19.7189064  57.6430206  21.3280067  20.1266155  56.8483810
  22.0406952  18.8871517  57.3451614  24.3635788  54.1805763  76.6848679
  23.5281143  54.6458549  76.7266464  24.4099293  53.6969948  77.5096283
  56.0527153  21.7425842  37.2219505  55.2431259  21.3839931  37.5855598
  55.9981995  21.5548592  36.2849236  38.3975792  22.4198875  15.7486744
  38.7479401  22.2976570  14.8663273  39.1620216  22.6380882  16.2818241
  27.3814716  47.5024033  33.6350822  27.3123398  48.4446335  33.7888756
  27.5717716  47.4256516  32.7001343  52.9457932  20.7356625  61.9127274
  53.5539474  20.2355175  62.4570007  52.7673264  20.1642456  61.1658249
  32.9955215  29.2879601   3.7951033  32.9367676  29.9025288   4.5265985
  33.4398689  29.7795582   3.1043634  40.5161209  22.7191658  40.1682396
  40.0771828  22.1210098  39.5634499  39.9596519  23.4978886  40.1810036
  50.1215858  41.3106651  22.3905029  50.8648567  40.7168541  22.4961815
  50.5117760  42.1847229  22.3881302  67.9316940   5.5279164  62.7278442
  67.4338760   6.2142572  63.1720734  68.4936676   5.9994664  62.1129761
  58.7344933  24.3359261  11.3641281  58.3260460  25.1569042  11.6387138
  58.1344643  23.9767570  10.7105265   0.0359595  53.9522018  63.7173843
   0.5303355  54.7657471  63.8172035   0.7024832  53.2859077  63.5499611
  86.0995026  10.2009439  73.8886185  86.0134125   9.2718658  74.1022415
  85.7476273  10.6561975  74.6535797  86.4126968  43.4646454  32.8891830
  86.5060959  43.2874031  33.8251801  87.0067062  42.8437691  32.4673996
  29.3054123  46.6407776  39.2354431  29.9750977  46.8369217  38.5802460
  28.7978802  47.4490433  39.3085709  33.4917679   4.0206876  16.4967079
  32.8781395   4.3179498  15.8248997  34.2546577   3.7151151  16.0059338
  58.2306213  29.3011208  22.7269020  58.1933556  30.0021038  23.3776455
  58.2778969  28.4968128  23.2437077  11.3192120  62.5984879  53.7137680
  11.1275263  62.0150909  54.4480247  11.1687832  62.0616302  52.9357033
  64.9029083  33.7286568   2.3087912  64.2312546  33.0467186   2.3173890
  64.4549866  34.5016823   1.9652328  43.5507507  22.0711002  25.8159256
  42.6144295  22.0958157  25.6186333  43.8899994  21.3554916  25.2782955
   0.8128632  56.3070908  35.2233009   0.2391310  56.4929810  34.4799919
   0.2201737  56.2368584  35.9716454  78.1736603  70.6149368  28.5296021
  79.0526657  70.2492447  28.6288280  77.8016815  70.1452026  27.7831383
  24.6075459  53.1235466  62.1900406  25.1741848  52.3586884  62.0893059
  23.8234653  52.9089661  61.6846619  83.1125641  10.6644974  30.8029842
  82.8367767  11.1518946  31.5792675  83.9530640  11.0538778  30.5617828
  63.1692047  33.6999817  56.7581749  62.2637558  33.9820938  56.8878212
  63.1728706  32.7790985  57.0193138  68.0226135  48.0006828  39.5113106
  68.5852509  48.6502304  39.0896950  67.4012909  47.7437057  38.8300285
  21.6598320  10.5262604  16.9490814  21.2739697  10.5895386  16.0753899
  21.1067696  11.0840063  17.4961395  86.4450150  46.4373932  10.7040024
  85.6489639  46.8345451  11.0572643  86.2568436  46.3100319   9.7741623
  69.4351807   4.3952827  26.5072021  68.7865219   5.0342789  26.8024406
  68.9405670   3.7893422  25.9554520  28.5669460  68.5110321   5.8985667
  28.0081425  68.8233719   5.1869392  29.1261978  67.8495483   5.4912481
  17.4804020  53.1161079  68.2654572  16.7249222  53.5193672  68.6930847
  17.4910603  52.2176437  68.5954285   0.9811159  46.1575432  61.7924385
   1.5887572  46.5146103  61.1447449   0.2481546  45.8240891  61.2749367
   4.6483850   4.8440461  24.5698547   5.2342625   4.6235104  23.8457375
   4.6013803   5.8000088  24.5572834  68.7398453  12.3331480  74.3675232
  68.1217346  13.0128860  74.0989532  68.2433243  11.7841587  74.9744110
  59.7208977   5.8314786  26.2107105  59.8353958   6.3039150  25.3861332
  59.6142654   6.5191617  26.8679428  27.5898857  55.0546646  32.8075981
  28.0412445  55.8506165  32.5265808  26.6791553  55.1908340  32.5463257
  53.9449425  26.5408192  36.1562805  53.7275047  25.6762810  36.5048828
  53.3050880  26.6858978  35.4593086  80.4998322  22.9248066  48.1929283
  79.8404312  23.6065388  48.0638542  80.7886124  22.7003632  47.3083572
  82.2528152  26.9387703  58.4570885  82.5717545  26.9902973  57.5560608
  82.9122314  27.4042892  58.9715691   6.7060766  70.4981613   4.7246995
   7.1437950  69.6848679   4.9760909   6.4863820  70.9187698   5.5559955
  81.9196167  58.9721413  34.9705009  82.8545761  58.9038849  35.1639328
  81.6560440  59.8084412  35.3543777   2.9894943  70.0795288  37.0508194
   3.8962929  70.3308792  36.8754005   2.6413562  70.7948761  37.5830917
  78.6868744   8.3855391  26.9194603  79.0201721   7.5136824  26.7073021
  78.7335892   8.4340029  27.8742905   7.7956471  22.6861629   3.5738790
   6.9065981  22.3551598   3.7013960   7.8236537  22.9491653   2.6539454
  71.6009979  59.7609100  74.0304947  71.0176849  59.3294029  73.4061737
  71.9901886  60.4819870  73.5357132  66.8834534  31.8880119  57.2854729
  66.0253525  31.6031189  56.9712601  66.7223892  32.7468262  57.6762772
  17.9808140  35.1468163  20.6906853  18.1412678  34.3066406  21.1203289
  18.6642303  35.7242126  21.0309601  59.9140663  45.3241806  37.5590515
  59.7161026  44.4819756  37.1495094  60.8640785  45.3162918  37.6758575
   1.9355618  13.9126387  20.2275410   2.8330121  14.0786390  19.9389954
   1.8851308  14.3129730  21.0955391  75.4869995  62.5625153  74.9186707
  75.0941772  62.1679230  75.6972656  76.2823029  62.9869194  75.2405548
  55.4502068  37.3005219  84.0760651  56.0544128  36.6361771  83.7446823
  54.6122513  36.8445091  84.1542587  59.1531334  64.4106750  50.5208511
  58.6912537  64.9093628  49.8469009  60.0315323  64.2812119  50.1632385
  65.2645950   3.4092491  71.0843124  65.3557281   4.1229401  70.4529877
  65.9274063   3.5923936  71.7501755  74.4862289  32.1204910  72.3685532
  75.0052490  32.7816277  72.8265305  74.6948090  31.3002472  72.8156815
  78.9896469  33.1022415  69.9743042  78.5185852  32.3875580  69.5458679
  79.1440201  32.7873611  70.8649445  80.6733322  30.2609978  36.4181290
  80.6216660  29.3159332  36.5610046  80.7684860  30.3550911  35.4703255
   2.9055102  18.0852642  68.8630066   3.5170414  18.5115795  69.4634323
   2.8005445  18.7094212  68.1449203   0.8346888  60.0404549  51.5408211
   0.3231277  60.5239410  50.8921471   1.5925854  59.7158089  51.0545807
  18.7523193  10.9799252  56.8915596  19.6422443  10.7785730  56.6022072
  18.8275757  11.0888271  57.8395615  15.6844025   8.7750635  79.3760376
  15.8120413   9.6534300  79.7343826  15.8228951   8.1900520  80.1208878
  82.0126724  48.8649635   9.3265495  82.1766281  49.4371567   8.5769215
  81.2044067  48.4033585   9.1032543  28.9164200  64.0421753  32.4381828
  29.7988148  63.7836304  32.1721573  28.4022274  64.0037918  31.6317329
  23.7685490  61.6208229  82.1107101  24.5035973  61.4362640  81.5260086
  23.2357483  62.2561455  81.6324615  22.2674408  67.0577621  27.8564167
  22.2006397  66.4157410  27.1496086  22.8446293  66.6464920  28.4997997
  41.6934280  46.1825638  79.3915100  40.7605476  46.3020630  79.5695190
  41.7731743  46.2972183  78.4445496  71.5540695  66.1531219  88.4877014
  72.2963867  66.2433548  87.8901520  71.4628525  67.0175323  88.8885880
  83.6501389  34.4501190  31.2477226  84.2474136  33.7949371  30.8868427
  83.0184937  33.9431992  31.7579060  64.9885635  24.6092720  13.9673557
  65.5363083  25.1764603  13.4246683  65.3411560  23.7304802  13.8272171
  10.6471252   8.9600945   7.1729193  10.0453625   9.0019207   7.9161315
  10.0871830   9.0724173   6.4047523  23.2406197  29.1088200  70.2179184
  23.3854160  28.2207737  70.5444794  22.5160656  29.4432278  70.7465286
  82.4880600  37.7704353  71.5137634  82.1219864  38.0738869  72.3445053
  81.7656479  37.3087311  71.0881042  81.4624405  31.4191818   8.9378843
  82.2415848  31.7574711   9.3791552  81.8021698  30.7932415   8.2983418
  45.6548386  56.5281792  69.0572357  45.2966347  57.3028030  68.6237793
  46.6037560  56.6447334  69.0102615   7.0846624  49.4899254  10.3467140
   7.0906343  49.1577263  11.2443991   6.6848598  48.7874146   9.8340082
  67.3307877  17.3918209  89.1454620  68.1710815  17.8062000  88.9494019
  67.3010330  16.6269627  88.5707092   8.5391922  66.8012085  60.2232971
   8.6671152  65.8769455  60.0097504   9.2754230  67.2477493  59.8052101
  57.4905663  48.2002869  80.7527466  56.8505363  47.9123268  81.4036484
  57.3567505  47.6127472  80.0090256  68.9915466  66.8945007  31.2032700
  68.5883331  66.1227264  31.6007843  69.6905365  66.5425034  30.6521416
  25.1328201  23.5752544  78.7090073  25.1424503  23.5770893  77.7518539
  24.7295265  24.4103508  78.9460754  47.3325500  34.4302063  11.9901028
  46.9024620  35.1381798  12.4697161  47.0340004  33.6309967  12.4241104
  13.9393806  28.5330105  71.6933823  13.3185444  29.0849590  71.2178345
  13.9723415  27.7201500  71.1890030  62.7116203  41.8925476  17.5299072
  62.7434845  42.7655296  17.1385994  63.6278191  41.6713219  17.6968536
  23.6246834  71.0959015  42.9185982  23.2466145  71.6656036  43.5884819
  24.5417843  71.0000763  43.1754532  65.2440567  40.8124390  61.0303917
  65.4106216  40.6163368  60.1084213  66.1146317  40.8698921  61.4241180
  54.3178101  22.7987976   5.4701219  53.9735909  23.6540661   5.7275386
  55.0306969  23.0001106   4.8639102   2.6954036  19.3782234  66.5937958
   2.1480975  19.9375153  66.0425415   2.9375072  18.6461735  66.0265884
  70.7717285  56.3859138  67.2219238  70.0554504  56.6091194  66.6274796
  70.9359207  55.4567566  67.0608673   1.6783434  21.5316544  34.0454597
   2.3717051  20.8778534  34.1350441   2.1387575  22.3708496  34.0473785
  66.7255707  69.5221329   5.2770572  66.8113556  69.3421783   4.3408475
  66.6551132  68.6575241   5.6816783  40.9846535  51.4151077   0.7402709
  40.4404449  52.1253815   1.0802407  40.5815239  50.6183815   1.0851547
  79.2625809   1.5790968  31.7431564  79.5220184   0.8013416  32.2371407
  78.3119659   1.6224145  31.8465137  82.9624634  31.1691914  78.1982651
  83.2316437  30.8708668  77.3294907  82.9995728  30.3833351  78.7434998
  14.1247501  70.5913773   7.9189992  13.6459799  69.8576279   7.5334768
  15.0131178  70.2579651   8.0449934  54.2631950  47.5493660  30.1034718
  54.7024574  47.1999397  29.3281136  53.7030754  48.2486954  29.7666683
  43.3243980  70.1998978  84.0621948  44.1461411  69.8203049  84.3734436
  42.8870010  70.5078430  84.8559723  61.8206177  63.5319138   0.7305441
  61.8894997  63.1421356   1.6020705  61.0150337  64.0479355   0.7619465
  63.7189178  39.9144135  39.1957130  64.5986176  39.8838387  38.8196449
  63.7802277  39.3863106  39.9916916  15.9963522  63.6928864  38.2711487
  16.2614765  63.7463112  39.1893463  16.6653309  63.1453552  37.8601570
  57.4508629  64.8019791  70.8507690  57.4932213  65.6869812  70.4885483
  56.5160980  64.5973129  70.8743286   8.9682055  52.9147491  12.6827307
   9.1909504  53.8432426  12.7499104   8.4159365  52.8567314  11.9030733
  20.5319691  55.3270912  22.8275375  21.4603806  55.1977539  23.0213299
  20.0743027  54.8949699  23.5486794  75.7874222  13.0409079  80.1274567
  75.8810349  12.4270115  79.3990326  75.2703247  13.7618389  79.7681580
  10.2254925  39.0810623  19.8960400   9.6525297  39.3688622  20.6067562
  10.0257959  38.1510582  19.7890701  71.9469528  69.6708984  12.3446159
  71.7602081  70.5006866  11.9055147  71.0990601  69.2293243  12.3928595
  38.6618919  66.7186966  27.5745125  38.8840904  66.2890778  28.4005222
  38.3793221  66.0055008  27.0020313  42.0065804  55.9843140  40.2555161
  41.1348648  56.2187386  40.5739288  41.9226036  55.9891777  39.3020210
  52.5729866  44.7016220   3.7913039  52.8253593  43.8242569   4.0789943
  52.4222908  45.1857910   4.6031575  54.8048630  13.0000629  48.7587852
  55.0518723  13.8920603  48.5147362  55.3623161  12.4406862  48.2178841
   8.4898348  40.7994881  87.8953323   8.6100931  39.8498840  87.8905334
   8.9314070  41.0928078  88.6923294  51.9209175  42.4616585  62.6742592
  52.7179413  42.7243652  62.2138596  51.3548622  43.2323914  62.6320724
  83.0648422  38.3631668  61.7013664  82.4155655  37.6946449  61.4828453
  82.6807327  38.8383026  62.4382095  68.2498245  56.9319382   5.6911755
  68.7323532  57.1558189   6.4869623  67.4312592  56.5493164   6.0070648
  56.1468277  32.6745644  41.9861794  55.6391907  31.9057713  41.7263908
  56.6489983  32.9052887  41.2046242  38.5015678  60.6853714   2.5105896
  38.2208939  60.0553703   1.8468465  37.7289848  61.2283020   2.6673601
   2.8940337  27.9725552  19.6277580   2.8794866  28.8938560  19.8870373
   2.4757411  27.5123291  20.3553944  54.2429619   9.1176910   2.0233974
  54.9593201   8.5579262   1.7238605  54.6749840   9.9118414   2.3379045
  35.0967407  35.0139809  24.7226791  35.1227837  34.4203453  23.9722481
  35.9024544  34.8266792  25.2043152  67.9770966  36.5609055  47.9059105
  68.2435684  35.6698341  47.6796150  68.7942200  37.0050430  48.1323662
  57.4016800  51.2722664  20.2616940  57.8805771  50.6237335  19.7456570
  57.3010445  50.8663559  21.1227055   5.6402020  37.0845871  82.6950073
   4.9914150  37.0997124  83.3986206   6.4618797  37.3276901  83.1215973
  57.4880676  23.8602695  16.6193485  56.6418457  23.8744164  16.1722031
  57.4028397  24.5132561  17.3140259  62.3639107  14.9140024  45.7129745
  62.9842834  15.1792479  46.3919563  62.4399185  15.5915956  45.0411720
  28.2074165  59.0594673  78.4537125  29.0359764  59.5144348  78.6044617
  27.7814426  59.5615387  77.7589417  65.3058853   0.7299191  52.4434547
  65.3430939   1.5704819  51.9870529  64.9666901   0.9440752  53.3125420
  26.5776939  34.1654320  75.2052155  26.9779224  33.3382988  74.9370728
  27.1088181  34.8378868  74.7786636  57.4966469  54.1607132  23.3256168
  58.2732811  53.6062469  23.4006977  57.4505081  54.6229019  24.1625671
  23.7201042  56.2088509  41.4531097  22.7769203  56.3648415  41.5010948
  24.0020580  56.1629257  42.3666878  55.3949471  24.0862064  74.4381485
  55.4820290  23.3133869  74.9961853  56.1994858  24.5823994  74.5889435
  59.8667717  71.4682846  32.6503906  59.8304291  71.0763550  31.7778625
  60.7377815  71.2437210  32.9777336  69.3287888  42.5536575  35.1182518
  69.0869751  42.2895813  34.2305450  70.2146835  42.9054108  35.0305557
  53.3560486  13.6540651  13.8849411  54.2862473  13.8392210  13.7557802
  53.1613960  14.0010796  14.7555285  10.6330681  63.4100304  23.1773777
  11.4628153  62.9741859  22.9829788  10.7691126  63.8124504  24.0351562
   1.5950043  33.4461899  85.4066772   1.9285882  32.5526505  85.4875107
   1.7952367  33.8537521  86.2493057  33.7555542  18.4905834  20.7316742
  34.3364334  18.7737350  21.4378166  33.4988976  17.6010666  20.9748173
  51.5688019   3.0369403  32.0042534  52.4507179   3.3723218  32.1654205
  51.0070992   3.5521545  32.5832863  28.6641655  70.5643539  46.8402443
  28.2301178  71.3262787  47.2240562  29.2142811  70.9266891  46.1457520
  66.3343735  27.7943382  28.1324348  65.9693909  28.5450611  27.6639957
  65.6155090  27.1634846  28.1709480  21.6509743  49.7726746  35.1175003
  21.9778385  49.9721947  34.2402420  21.7947998  50.5774040  35.6154518
  64.4356613  40.6583366  24.3194313  63.5391655  40.6314316  23.9850636
  64.8286896  39.8395462  24.0171986  42.2556763  27.5352116  77.0014572
  42.7254753  27.2105618  76.2332611  41.3605232  27.2159748  76.8873672
  31.5888557   5.8110099  78.9137573  32.1177368   5.5526576  79.6685867
  30.7752151   5.3162298  79.0107727  63.2447586  10.2791462   3.9224606
  62.4920425  10.2907104   3.3312616  62.9960823  10.8639183   4.6383042
  64.9983215  -0.0494316  32.4723244  64.7475357   0.8540813  32.6646805
  65.1432190  -0.0615339  31.5262318  68.9756699  59.8461151  61.5964851
  68.1019669  59.4867363  61.7505112  68.8205109  60.7615738  61.3638916
   9.1095324  31.3785515  87.4623032   9.2813101  31.8839474  88.2568512
   9.8086624  31.6336651  86.8603363  38.8187332  45.4341087  85.9825974
  38.0284958  45.7649612  85.5556412  39.1383095  44.7481232  85.3964844
  60.7243118  31.9477997  53.9280014  59.9534073  31.7914944  54.4734459
  60.4999466  32.7225456  53.4125824  11.7966766  64.4845200  25.6812744
  12.6168194  64.5614090  25.1937447  11.5902023  65.3810425  25.9455662
  78.2616501   8.8405771  32.2948685  79.1485367   9.0814877  32.5625000
  77.7503967   8.8728037  33.1034546  45.1806068  38.7158356  34.8506737
  44.5784607  37.9717789  34.8559036  44.8697281  39.2805176  35.5582886
  42.2859764   9.8550024  21.6658859  41.7897453   9.0584316  21.4775696
  41.9725685  10.1347170  22.5259838  35.7662621  28.1081657   2.1340055
  35.7147560  27.6601315   1.2897050  35.5324669  27.4374981   2.7757032
  74.9032059  67.0510941  71.0866776  74.2155991  67.2297134  70.4451675
  75.4758453  66.4178085  70.6539307  10.0255766  17.0591507  28.8840008
  10.3142424  17.6484280  28.1871109   9.9637213  17.6172028  29.6592331
  13.7972698   4.8119826  27.3329163  14.0159359   4.4335084  28.1844883
  13.7083902   4.0571604  26.7510433  20.2079487  71.5770187   5.8582258
  19.7241592  70.8680801   5.4344578  20.9465370  71.7460327   5.2732863
   0.1177291  57.0826454  84.1650238   0.8061906  56.7308769  84.7293930
  -0.5998788  57.2901497  84.7635345  50.1715126  31.6353378  58.5935402
  49.2726517  31.3066139  58.6085968  50.3224602  31.8781700  57.6800423
  78.0595932  67.4247208  87.4136734  77.9654312  68.2796555  87.8337402
  78.9838104  67.2027664  87.5268021  64.8570328   0.6465796  36.1742592
  65.7392960   0.3019684  36.3124123  64.9871597   1.5816151  36.0161247
  86.6138763  68.7928391  64.0307846  86.1767731  68.9450684  63.1929359
  86.6489716  69.6560440  64.4429474  65.5037994  35.8803215  18.2775650
  64.8292770  35.5015678  18.8413029  65.2132187  36.7799377  18.1276207
  13.3629446  60.2000046  55.0795860  12.9246597  59.9811516  55.9019279
  13.0553427  59.5378151  54.4606209  10.4341536  38.8404961   2.4014409
  10.4020023  38.5879326   1.4787225  10.0687895  39.7250175   2.4205246
  87.0068893  15.8477335  25.7845020  86.2905502  16.1674976  26.3330002
  86.8747635  14.9004688  25.7462120  31.9163113  54.1596260  68.6230927
  31.8064117  54.4754601  69.5199738  31.7398701  53.2203522  68.6766205
  81.3753357  22.5394039  30.6693859  81.3681488  22.2530289  29.7560577
  81.5717316  21.7460403  31.1676159  18.8913078  49.9860725  31.8156700
  19.5058708  49.2596092  31.7117653  18.2458630  49.8549805  31.1210861
  86.5387878  14.2640066  40.3378105  85.8989410  14.3630037  41.0428162
  87.3853531  14.4077578  40.7607613  43.4647636  52.3241730  75.2350235
  43.5995255  52.8374672  74.4384079  43.8802719  51.4818611  75.0503693
  11.2228823  60.0311852  73.6694336  11.9055738  60.0982895  74.3370132
  10.9262428  59.1225548  73.7207031  52.9601936  38.2283859  10.0105963
  53.6822472  38.2352524   9.3822470  52.1795464  38.3878746   9.4801388
  15.3256721  43.7632294  29.4478683  15.4204311  44.5363007  28.8914394
  14.4791346  43.3917656  29.1996346  58.1151466  22.8615932  87.3246765
  57.9927940  23.0946999  86.4043884  59.0526428  22.9782619  87.4787064
  54.4739952  39.6793365  48.1335716  54.0982437  39.4300537  48.9779053
  54.7716789  40.5801735  48.2604828  60.1054039   7.1747561  85.5353699
  60.2523232   7.2723227  86.4761810  59.2046928   6.8584967  85.4651413
  34.5864906  41.6091728  13.7177124  35.1295738  41.8589973  12.9701309
  33.7469215  42.0405045  13.5586166   8.5123577  49.1696281  36.8829994
   8.5877371  48.2182465  36.8093605   8.1986609  49.4522438  36.0239563
   2.7185991  33.7191772  21.0134010   2.1815975  34.1704025  20.3620491
   2.8346705  34.3608017  21.7141685  77.4169006  32.8403358  34.1290970
  78.2176971  32.9350014  34.6448441  77.6140213  33.2740707  33.2988892
  54.9183388  70.2774048  35.0442200  54.2657433  69.6239319  34.7925911
  54.5699997  70.6673889  35.8459663   4.1237850  53.0511665  25.1301613
   4.6104507  53.7014389  24.6236706   3.2210741  53.3694572  25.1240749
  76.1103821   2.3224535   1.0793644  76.9263229   2.3524368   0.5797911
  75.4948273   2.8439326   0.5642081   4.8519816  46.5838776  24.8105431
   4.8790541  47.4391441  25.2395115   5.2371264  46.7364311  23.9476280
  62.3149376   1.1669559   4.9276175  62.5555077   0.3491368   5.3629689
  61.4316254   1.3560039   5.2442441  19.1122704  59.7582588   7.6881595
  18.5565300  60.5360794   7.6393838  19.2065353  59.4738541   6.7790613
  54.8972397  41.2775688   8.7922821  55.2292671  40.4914398   8.3587027
  55.2805138  41.2476006   9.6688862  24.8026829  46.6978569  50.3554306
  24.7665329  47.6539078  50.3853149  24.0615234  46.4472733  49.8039627
  38.1994629  65.6612015  65.7234650  37.3099022  65.9916458  65.8488464
  38.6359749  66.3385162  65.2068176  55.5903015  19.4129581  54.1365662
  55.8904686  18.5375824  54.3812027  56.2868462  19.9973373  54.4358253
  14.1023569  69.3387451  84.4018860  14.0956049  68.5948563  83.7995377
  13.1858788  69.4508362  84.6543350  20.6861153  69.5131302  21.9216213
  20.7238884  68.8391800  22.6002979  21.5602493  69.9031525  21.9224739
  53.8232155  62.8274727  87.7597427  54.7142982  62.8203125  88.1092453
  53.4956818  61.9425812  87.9207153  67.2348480  66.5956192  74.5876465
  67.6252975  67.0866547  75.3106079  67.0883255  65.7196426  74.9446259
  59.4511261  30.0176697  51.6751251  59.5203285  29.0959606  51.4263382
  59.9796677  30.0916023  52.4697418  62.2605476  54.1010628  61.5720940
  62.8581543  54.2435455  60.8380661  62.2508774  54.9367409  62.0387650
  29.5185814  49.9469643  36.2149582  29.5718212  49.8863144  35.2611656
  29.2890682  50.8606606  36.3844147  31.5090866  47.7049065  74.0071945
  32.2247658  47.8948479  73.4006042  31.1867790  48.5656891  74.2744064
  53.4001274  49.9544182  69.3033295  52.6035538  50.3910408  69.0015640
  53.1268158  49.4684296  70.0813675  66.4512558  46.9636421  34.9740677
  66.3354645  47.8948021  35.1631927  66.5899124  46.9268951  34.0276756
  17.2825890  35.6873322   2.1437204  16.5945473  35.5227203   2.7884929
  17.1240387  36.5837326   1.8478159  72.6757889  27.0232391  16.5289516
  72.5842514  27.5322514  17.3344078  72.2330627  27.5482807  15.8621998
   0.2331902  16.9211044  36.0862350   0.8203793  17.6330090  36.3404617
   0.4934517  16.7040844  35.1910286  41.7520828  62.1467857  44.6468925
  42.1159134  62.9089928  44.1964493  40.8633194  62.0657272  44.3008270
  82.2078400  69.7370758  61.1400948  81.5222244  69.8372498  60.4796982
  82.4813919  70.6325073  61.3390808   5.6705942   7.2907243  16.6865368
   4.7584987   7.5701141  16.6074505   5.8839831   6.9239044  15.8285513
  11.8603964  41.6674652  26.8199387  11.3166466  42.0601959  26.1370544
  12.5000887  41.1391945  26.3424911  72.8247147  68.7984314  47.8782768
  73.1050568  69.6794586  48.1261253  73.6399841  68.3069534  47.7781754
  11.5253220  25.8173122  20.1851501  11.1030436  25.1191273  20.6856003
  11.6677427  25.4379444  19.3179550  28.2962799  70.9371262  19.3640881
  28.6817284  71.6474304  18.8511314  27.7800426  70.4376297  18.7314472
  68.7271576  20.5369396  49.1063728  68.3822174  20.3891582  48.2258034
  68.3679352  21.3856411  49.3650131  65.4258957  17.7403736  48.3801155
  64.8407211  17.5987167  49.1242485  65.6389999  18.6728153  48.4171104
   6.5418277  44.7508049  37.4161606   6.7729502  44.1173134  38.0955009
   6.9976368  45.5528412  37.6715126  77.2550507  20.3795795  36.1153870
  76.3726425  20.4638081  35.7541504  77.7135620  19.8103905  35.4973068
  82.5708694  26.3737583  68.6038055  82.7376175  25.4897671  68.2767181
  82.4050903  26.8929863  67.8169479  43.1846313  49.2104797  77.5730667
  43.4460487  48.8211288  76.7386246  43.8120804  48.8625793  78.2067108
  32.7360802  71.1820297  12.9915562  32.7711868  72.1176529  12.7925339
  32.2576218  70.7985916  12.2565145  21.7798862  43.9473457  67.1991043
  20.8631439  44.1424255  67.3934250  21.8021812  43.8218613  66.2504272
  69.4658051  70.4334030  49.0504227  69.7398605  70.1026840  49.9058495
  69.0299835  69.6895828  48.6344681  26.0728951   1.8520215  32.6245117
  25.7107601   2.0178361  33.4949112  26.9372463   2.2628834  32.6424599
   0.4378844  14.1069613  61.9887352   0.6895155  14.9096708  61.5320396
  -0.5029002  14.0267973  61.8314781  73.5953445  27.7235947  71.8448715
  73.5112915  28.3251781  71.1051025  72.7226562  27.7035427  72.2376251
  26.9466324  27.7398891  20.1234856  27.3456593  26.9612713  19.7352047
  27.2866116  27.7624969  21.0179901  52.2146873  34.7947464  16.2104969
  52.8073921  35.3393402  16.7285233  52.6147118  34.7651100  15.3413963
  59.9854584   0.7241704   6.3011022  60.2456703   0.9051870   7.2042928
  59.4007950  -0.0308481   6.3670325  60.8876114  32.6184120  21.5607986
  60.8878975  33.0874977  22.3951778  61.5713577  31.9556923  21.6583729
  60.8307953  58.8073769  86.7680130  61.1022148  59.6355400  87.1638794
  60.1660271  59.0555115  86.1255646  84.3739166  44.8368721  23.9581604
  85.2806396  44.7229309  23.6733875  84.0320892  43.9457932  24.0313663
  57.6792793  38.6136208  37.3008118  58.3217163  37.9175377  37.4385605
  56.9588089  38.1863632  36.8375587  18.7376003  68.3395920  54.6537437
  18.7422256  68.7013092  53.7675285  19.5459576  67.8299103  54.7086296
  28.1909027  35.6503487   7.2862754  27.2529907  35.6771927   7.4755697
  28.2446976  35.3243446   6.3879118  72.0822830  27.4806271   3.4388382
  72.9222717  27.6265373   3.8739994  71.4469757  27.9472370   3.9818745
  40.0256081  42.5082359  20.9524670  39.6684990  42.4000854  21.8339462
  40.1959343  41.6155701  20.6518593  72.2017593  10.5736599  69.7391434
  71.8500900   9.8078852  70.1931763  72.0149384  10.4106750  68.8146057
  18.9016552  30.1614246  16.3085346  19.3418732  30.4703941  17.1003551
  18.1744423  29.6290779  16.6310215  67.5458832  65.5334854  10.7421703
  67.0121002  66.3278503  10.7593012  67.4205399  65.1420059  11.6066132
  56.9390106  48.4376488  38.5007210  57.0456085  47.6595726  37.9534874
  56.3742256  49.0156898  37.9877701   9.8871222   1.5712692  58.8914833
   9.3374367   0.8982193  58.4901352   9.5741215   2.3930192  58.5133438
  49.3287888  34.9397888  82.3383865  48.5576210  34.7373810  82.8680725
  50.0137291  34.3674202  82.6840515  24.0698452  18.5566387  13.1046934
  24.1866074  17.8594189  12.4593391  23.2000580  18.9109268  12.9198112
  36.9452248  37.2867050  69.3357468  37.5571823  36.5757713  69.1451645
  37.4944000  37.9878998  69.6864014  49.0510330  43.9983292  56.1833267
  48.1514053  43.7623024  56.4095879  49.1117821  43.8357277  55.2419968
  85.3983154  21.8716030  68.6063766  85.1551895  21.1216183  69.1491928
  84.6136093  22.4195023  68.5895691  70.1823349  32.5481186  19.2666187
  70.7074814  32.8954353  19.9876060  70.5065994  33.0067291  18.4915314
  67.8485718   2.5210991  16.8480015  66.9667740   2.3716376  17.1890736
  68.4180450   2.4415629  17.6132526  24.0509987  36.6225052   2.5945628
  24.4467506  37.2179871   3.2309716  23.1464252  36.9249306   2.5138528
  78.4671478  30.3112125  14.1422968  78.9719696  30.9187279  14.6829557
  78.6979828  30.5426731  13.2426443  49.6766014  50.2392731  55.7495232
  49.8696823  49.3397255  55.4853935  48.9309883  50.1594162  56.3444328
  45.3884888  55.8693581   9.3589849  46.1767006  56.2704010   8.9927616
  45.6029396  54.9390297   9.4277678  13.9965601  36.4645615  86.5780869
  13.8010445  36.6613464  87.4942093  13.1566982  36.5580711  86.1285095
  44.3191338   4.9617171   7.5078526  44.9826851   5.2267399   8.1447954
  44.1112823   5.7648144   7.0302930  85.3433151  36.4425278  32.0588303
  84.6131592  35.8507881  31.8773212  85.6554565  36.1792526  32.9245605
  15.8870773  14.8447313  76.1533279  15.7276974  14.6652575  77.0799408
  15.8833494  13.9822359  75.7382126  41.1388016  18.9770527  75.5100403
  40.2004318  18.8248730  75.3980865  41.2493629  19.1091290  76.4516144
  45.5272827   5.6740656  44.0206146  45.2558136   6.0262723  44.8682518
  45.6830254   4.7442784  44.1863632  25.9664078  50.5460091  64.4272461
  26.2998104  49.8188629  64.9529190  26.0791855  51.3159599  64.9846344
  79.2745743  63.1279564  22.5159931  80.0043030  63.5663261  22.0783195
  78.9688187  62.4801102  21.8811398   2.8648775  26.5912724   8.0124598
   2.3493884  27.1862183   7.4679027   2.2391868  26.2473373   8.6499949
  76.5523911  66.7908401  20.2225075  76.0991898  67.3705444  20.8346958
  76.7014999  65.9867020  20.7198658  24.2659740  10.6302948  88.9370651
  24.7937374  11.2754612  89.4076538  23.5683746  11.1432228  88.5290298
  47.9052696  46.7063217  40.9799652  48.2297249  46.0522995  41.5990067
  48.4482384  46.5884743  40.2005234  55.2453842  67.2997818  79.2122192
  55.3398514  66.3474579  79.2319641  56.1403236  67.6308594  79.2877350
  29.3840961  13.0496750  17.8304710  28.7395287  13.2922106  18.4952564
  30.0212021  12.5111217  18.2998199   3.2149134  18.0913258  13.0468750
   3.1287074  17.2490368  12.6003914   4.0275235  18.0152454  13.5469837
  44.1586304  33.8023338  86.5211258  45.0124741  33.6187515  86.1293564
  43.8040504  32.9399910  86.7376175  84.0308914  23.9289131  88.8983536
  83.4334564  23.3497448  88.4252014  83.8000717  23.8101730  89.8196869
  63.5654144  52.2862930  23.7209663  64.2148361  52.9725266  23.8744831
  63.0480995  52.2616882  24.5259590   5.5327830  58.2095795  64.1131821
   5.3167706  58.2988205  63.1849556   5.1962528  59.0102959  64.5154724
  83.7799530  59.7026367  75.3464127  84.1835480  60.1939774  74.6309204
  82.9572830  59.3782616  74.9800262  62.8294563  55.8795166  11.3191061
  63.0716782  54.9701843  11.4942474  62.0496178  56.0269699  11.8542156
  27.1201477  57.9536095  82.1953354  27.5596333  57.7044258  81.3823242
  26.2231293  57.6367531  82.0895462  50.9885330  17.8405018  13.0191660
  50.8595390  17.7106705  13.9587069  51.7146263  18.4614639  12.9606485
  83.2450790  53.7391663  65.8443680  83.4231949  54.0185318  66.7424011
  83.1593094  52.7875671  65.9021149  14.4647446  68.6810837  33.6083488
  14.4038134  67.7976913  33.9718552  15.3596468  68.9591599  33.8034363
  66.3058014  63.4553452  50.5455933  65.6424026  63.4589691  51.2356110
  66.1609192  64.2731628  50.0697556  22.9749832  53.0431137  33.3952942
  22.6960850  53.7001190  34.0330925  22.1787872  52.5512543  33.1943436
  85.8544159  57.4786263  62.1748657  85.1805878  57.7367935  62.8037872
  86.4988785  57.0007935  62.6969566  33.5024414  59.1612511  80.3399887
  34.0195885  58.6578941  79.7111664  33.9257622  60.0193672  80.3658142
  52.3988342  15.4980354  82.3480530  51.8412895  16.2759056  82.3652191
  53.2834282  15.8401918  82.2190094  70.3566589  63.7379913  40.8207397
  70.1558685  63.8962898  41.7431564  69.5035324  63.7369347  40.3866730
  18.6433239  37.3373260  40.0557976  19.3348179  37.1340141  39.4259300
  17.9234734  36.7528877  39.8181458  64.9013138   8.9889803  11.9738264
  64.9722977   9.6297750  11.2663136  65.7358398   8.5204592  11.9572563
  22.2913094   5.0026083  22.3009739  21.8125305   4.3485155  22.8100548
  21.6094418   5.5059714  21.8560963  30.7057552  62.8636665  47.4818459
  31.1636715  62.5492249  46.7023125  30.5712242  62.0790787  48.0134010
  75.6407776  51.9353943  59.7142715  75.4892578  51.4702034  60.5369949
  75.8923416  51.2505112  59.0946922  70.6926575  14.3718309  75.0878754
  70.2909851  13.6334343  74.6299896  69.9880600  14.7313681  75.6268616
  62.9984093  65.3519440  57.1222992  62.8948135  65.0040970  58.0080185
  63.8238945  65.8357239  57.1500015   5.2558389  66.4700851  44.9523926
   5.9193506  65.7817230  44.9986572   4.4391217  66.0319901  45.1917191
  17.7253132  22.1205101   9.0091553  17.5725613  21.4834709   8.3112440
  18.2881603  22.7834949   8.6093006  67.0969696  15.3147736  47.7655640
  66.7676468  16.1896133  47.9715576  68.0462952  15.3867273  47.8647270
  10.4947453  61.5744820  44.6570244   9.8147945  60.9325790  44.8616180
  10.6571093  62.0239906  45.4863701  21.9555378  13.7428503  68.0870743
  21.7882938  12.8020973  68.1440582  22.7878838  13.8662148  68.5433807
  18.5801392   4.1675391  68.7698135  18.8841305   4.9757929  69.1827850
  19.3639393   3.6218493  68.7057114  55.5186501  60.6222649  68.1179886
  55.6593399  60.5569153  69.0625305  55.4944992  59.7142563  67.8160400
  64.6448517  30.3441448  36.4002304  63.9019012  30.9433842  36.3283348
  64.8952026  30.1632481  35.4942322  72.9815521  69.7159576  71.8474426
  73.8807220  69.8034286  72.1637726  72.4549561  70.1955261  72.4869232
  55.4157143  24.3681812  18.6227264  55.6895599  24.0633106  17.7576885
  54.7926712  25.0721302  18.4424191  11.9682894  49.2218971  79.1357803
  11.4804125  48.4011879  79.0676193  12.7695436  49.0664635  78.6357193
  47.2852097  68.9820862  44.7069473  48.0234108  68.7081528  44.1626549
  47.5066910  68.6715012  45.5848503  24.5678463  35.0822792  26.0574646
  23.7327251  34.6325607  26.1861362  25.0907764  34.8396225  26.8215942
  50.0053482  37.3074570  45.2516937  49.1914215  36.8275337  45.4047699
  49.9563179  37.5756454  44.3341370   1.2790334  53.2526665   7.6107621
   0.6663813  53.5313797   6.9301667   1.1424153  53.8747253   8.3253336
  29.5350552  63.1049461   5.4868517  30.1032600  62.4600677   5.9081655
  28.7411690  63.1103172   6.0215931  12.5073795   2.1454718  13.8804131
  11.5786743   1.9253026  13.9529705  12.5175457   3.0868366  13.7073202
  76.9816055  43.5587654  21.0538902  76.3434296  43.4767303  21.7625771
  76.8949966  44.4647141  20.7572708  48.8042412   6.4863915  48.2473640
  48.1255531   5.8665719  47.9800835  48.3260956   7.1919928  48.6829529
  19.3682594  60.8956909  75.6043472  19.7715321  61.6720543  75.2159271
  19.2608204  60.2895050  74.8713913  65.5520325   3.8794110  52.9516640
  65.0764999   3.7634945  52.1290665  65.5439682   4.8247261  53.1018181
  42.2829170  13.0296545  24.2877979  41.5540504  12.4619036  24.0375099
  42.3896942  12.8821144  25.2275124  56.8778152  59.1982269  54.1404228
  57.4451294  58.9991913  54.8852539  55.9899864  59.1410637  54.4935799
  34.7932968  50.9586639   8.7422676  34.0028191  51.2664070   9.1857433
  34.6128883  50.0404358   8.5409164  70.8892059   4.8949246  72.5699081
  71.0471725   4.6962447  73.4928436  71.7635193   4.9577913  72.1853943
  37.0705032  53.1293449  47.7959099  37.1022720  52.2126541  47.5222244
  37.8178406  53.2292862  48.3855972  57.2538223  42.5096207  87.9632568
  57.1790581  43.4058075  87.6354065  56.4363785  42.0884056  87.6975555
  76.4884186  11.5680943  77.8803940  76.9033203  11.6962633  77.0273590
  75.5515366  11.5305576  77.6878357  55.8697510  36.0806732  38.6418266
  56.6963844  35.9315529  39.1008263  56.0866432  36.7137184  37.9573975
  50.6731453  33.3447723  24.7929039  50.9816017  32.7151833  24.1412106
  50.3657341  32.8046989  25.5209503  31.3736458  39.0101051  81.1683121
  30.7368183  38.3238297  80.9690475  32.1975288  38.6850624  80.8052750
  28.2173672  67.3042374  57.0996971  27.8406258  67.3948059  57.9749641
  28.8052311  66.5519791  57.1686440  46.7691078  67.6539383  34.6777115
  45.9802361  68.1298828  34.9373055  46.4553871  66.9829254  34.0714569
   4.9837565  34.3295670   5.5153794   4.8846598  35.2815323   5.5020971
   4.1379662  33.9965096   5.2154746  72.8117218  36.9866714  21.5238743
  73.0204849  37.8827591  21.2599106  71.9264221  36.8390694  21.1911697
  63.5708389  13.4973001  52.6007118  62.7642365  13.6666126  53.0874977
  64.2714767  13.7354918  53.2078400  28.0120506   9.1376390  76.2425461
  28.9549084   9.1462517  76.4074020  27.6387062   8.7038679  77.0098038
  82.6224136  70.6345901  22.5687847  83.5711060  70.7619171  22.5674438
  82.2686996  71.4726486  22.8667450  39.3260155  57.1648979   1.3943024
  38.7120705  56.4718361   1.1514661  39.7889328  57.3702240   0.5820332
  19.8196487  39.0127487  12.9811630  20.1192627  38.3545799  13.6082830
  18.9186554  39.2011299  13.2437553  14.9874220   7.0002499  40.9531479
  15.0156298   7.7512603  41.5459557  14.4049129   6.3756781  41.3853798
   4.8057599  68.8516541  84.7090683   4.2559824  69.6352158  84.7057953
   5.6834679  69.1740494  84.5043106  72.5558701  13.5450573  78.5098114
  71.6551666  13.7152462  78.2341232  72.4675751  13.0506868  79.3246994
  61.4719734  57.5052872  31.9488430  60.7208405  57.9920197  31.6095486
  62.2090416  57.7981529  31.4129391  44.4703674  42.8135986   3.6429093
  43.8562393  42.8555260   4.3759322  44.0737152  42.1911507   3.0334370
   0.1954449   5.1149044  40.2848091   0.0112975   6.0464234  40.1640015
   1.1130687   5.0172143  40.0305328  41.0122871  23.0387383  16.6422234
  41.3518295  22.1782055  16.3964119  41.5850143  23.6597137  16.1921082
  49.9519157  27.9648056  35.9815559  50.3949547  27.3608036  36.5774841
  49.0204468  27.8412914  36.1641541  86.4551620   7.3510828  68.3224945
  86.9577942   7.0419526  67.5688248  86.3226929   8.2842646  68.1555862
  53.3925896  56.9594612   2.6198552  53.7944794  56.6339073   3.4252934
  53.1250343  56.1698608   2.1495621  65.1472473   4.9662743  64.9263306
  64.3263626   5.0189376  65.4158325  65.6327362   4.2574792  65.3483963
  50.1268463  27.0020142  80.3923416  49.8305817  26.0922337  80.3647919
  49.5742302  27.4532890  79.7542267  86.3464203  37.0336075   3.9164352
  85.5616531  36.5898132   3.5948403  86.2174530  37.9514656   3.6773999
  30.8239079  51.1051559  61.9440231  31.3724155  51.5306473  61.2849846
  31.0188408  50.1725426  61.8520164  81.0204468  23.1641598  59.4972496
  81.9151306  23.4867172  59.3889351  80.9536209  22.4326649  58.8835068
  34.6394463  44.7755203  16.1834602  34.0194206  44.6233559  16.8966522
  35.3865738  44.2146301  16.3918648  79.2143784  51.1016579  22.1947670
  78.3864212  51.0370255  21.7188129  79.6874847  50.3027916  21.9619293
  83.6307526  26.1339188  83.7541351  83.5833359  26.1425037  82.7981491
  84.4855423  25.7492962  83.9481049  63.6642799  31.8611393  67.4536591
  63.4629822  31.5017014  66.5896454  64.6192703  31.8287220  67.5099945
  70.9634705  19.0230751  22.9983845  70.1930618  18.5090523  22.7565498
  70.6679153  19.9324684  22.9550228  72.2980652  43.2568092  36.2189445
  71.8915024  43.3053131  37.0841522  73.1080627  42.7672653  36.3620300
  21.6245651  29.2474728   5.3527288  21.7365742  29.6960659   4.5146055
  22.4690990  28.8267612   5.5139565  28.0561352   8.1483736  25.8321896
  28.8571663   8.0871544  25.3117733  28.3361931   8.5449152  26.6571465
  47.0371666  16.0000916  20.7631855  47.6471176  15.6052017  20.1400852
  46.2616386  16.2061844  20.2413483  31.1681099  70.5388184  82.0197525
  32.0406609  70.9177780  82.1259613  31.0250702  70.0381088  82.8229141
  70.2147598  33.6989326  76.1193314  69.7874756  32.9551277  75.6945801
  70.3284073  34.3416824  75.4191971  51.6329079   6.0533967  74.3259048
  50.8661842   5.6802907  73.8909836  51.7971344   5.4683080  75.0654526
  28.2955704  10.0991898  79.9525146  28.1106300   9.4060669  79.3187866
  27.7380047   9.8928328  80.7026901  83.1058960  36.1398277  28.8838882
  83.1235199  35.3901405  29.4787731  82.2530746  36.0835876  28.4528923
  46.8309975  48.7298317  88.0123978  46.6433029  49.5954285  87.6494293
  46.2528114  48.6580582  88.7718582   6.4486423  42.6333160  12.9681702
   6.9582286  41.9314537  12.5632715   7.1019092  43.2793579  13.2366896
  41.3840485  30.5165768  84.1757736  41.3029633  29.7919006  83.5556946
  40.5634995  30.5031624  84.6684723  23.0212593  63.1572113  11.5680523
  22.7622871  63.7463951  10.8595161  23.8299389  62.7500267  11.2574530
  49.9959068  61.5247879  84.6333389  50.9023666  61.4582901  84.3330994
  50.0145760  62.2098961  85.3015518  29.2175999  67.1834259  40.4514275
  28.9931660  68.0878372  40.2325706  30.1671448  67.1946793  40.5717278
  39.1438751  18.6377525  73.0871201  39.3315239  18.7519226  72.1554565
  39.4898720  17.7701988  73.2965698  16.0975475  15.1409664  85.5526886
  15.7442074  15.9972496  85.7938538  16.9099426  15.3395939  85.0870743
  53.8247681  40.2645912  80.3032303  53.6505127  40.9285355  80.9703445
  53.9356918  40.7623253  79.4931793  41.2998428  46.9603844  86.0869522
  41.5287056  46.4778442  85.2925949  40.3769493  46.7540512  86.2350159
  43.5554543  42.0887337  37.9919243  43.4500313  42.8923454  38.5011635
  43.3605270  42.3484688  37.0914955  84.2411652  32.1322365   2.8130064
  83.3260040  32.3620262   2.6520553  84.3878784  31.3482056   2.2838502
  46.9950981  45.8551712  27.2703857  47.3874855  46.5651512  26.7622566
  47.4893608  45.0762749  27.0149364   1.7316928  16.0259819  65.7352295
   2.4059546  15.6210337  66.2807770   2.2155302  16.6071148  65.1483612
  57.5364113   6.3768630  85.8416977  57.0990829   6.5600858  85.0101929
  57.4473839   5.4306602  85.9557419  21.6404438  35.1153793  62.2914848
  21.7012119  34.6193123  61.4751167  20.8470020  34.7858467  62.7134933
  13.1545916  41.1026649  36.2425652  13.0553226  41.2519417  35.3023033
  13.8478584  40.4460030  36.3089485  63.4519005  67.0209808  82.6961823
  63.2828178  66.1371841  83.0225983  62.9849548  67.5942459  83.3040924
   3.3221686  62.6578102  16.1956253   3.3575633  62.7690430  15.2455692
   2.8253415  63.4144058  16.5070114  84.9298782  69.1108322   9.3824587
  84.4556580  68.9398041  10.1961527  85.7147675  69.5845566   9.6577053
  43.3801613  69.6770401  45.0802155  42.6123390  70.2395325  45.1816444
  43.8862801  70.0868301  44.3786850  16.8670578  10.4624844  59.7630005
  17.8176804  10.5743093  59.7697906  16.5709457  10.8804550  60.5716095
  54.6244774  47.4430504  16.1605473  54.1534462  48.2761421  16.1426201
  55.3605080  47.5711365  15.5621452  22.8193550  70.0665665  36.3304024
  23.1080647  70.4110870  35.4853096  22.4892464  70.8319778  36.8009453
  25.8027287  14.3455019  16.0175381  26.4503727  15.0476274  15.9558039
  25.7873516  14.1148319  16.9463997  29.3244381  26.6160812  74.5662231
  29.4168739  25.6737843  74.4256363  28.7167683  26.6899815  75.3020935
  44.1214867  67.4188995  68.5826797  43.4396820  67.8594894  68.0754776
  43.6664238  67.0836334  69.3551712  65.5802460  46.6378365  49.3508644
  66.3597870  46.6729851  48.7965126  65.5776596  47.4755783  49.8139114
  69.6178818   4.2547603  69.6010056  69.6939850   4.8026652  70.3821793
  69.3086548   3.4106271  69.9297028  43.9877815   8.9347305  38.7385254
  44.7469406   8.3525019  38.7082329  43.3921585   8.5863886  38.0751076
  76.2234116  46.0051689  35.5433578  76.1644135  45.7580681  36.4662323
  76.8055420  46.7649727  35.5355911  62.5292320  35.4430809  48.5554352
  63.3323441  35.7691154  48.1493034  62.6795540  35.5408516  49.4956894
  61.1251640  38.5637970   5.7128959  60.4076767  38.5462379   6.3462510
  61.6260300  39.3472328   5.9400344  66.6454086   8.9228125  84.9862366
  66.3280487   9.2498837  84.1444855  67.5179138   9.3055372  85.0783539
  85.8136673   5.0015297  66.0135574  85.3784943   4.9194660  66.8621597
  86.5329514   4.3711009  66.0512772   6.3166394  16.9052715  20.7297974
   6.8253322  16.1407852  21.0000286   5.7628698  17.1036072  21.4849358
   6.3607988  38.3850975  27.2047749   5.8177047  37.6857338  27.5683289
   5.9212198  38.6311684  26.3908634  21.5732117  65.8459778  80.8488007
  21.1489677  66.0525894  81.6816025  21.7481365  66.6988678  80.4510269
  74.1423264   4.6481671  22.2758522  74.8070526   5.3006468  22.0552998
  73.3095779   5.1047006  22.1561146  43.7224236  54.5628624  76.9747391
  43.4295387  54.4678001  77.8810577  43.8890800  53.6669998  76.6816788
   8.7487278  34.3599892  17.0921803   8.4863720  34.9789848  17.7735367
   9.5208607  34.7586746  16.6908169  43.3658371  22.2866440  84.6133118
  43.9976807  22.1739655  85.3234558  42.5943985  21.7973900  84.8992233
  76.3075409  40.0579147  55.9348717  75.7882538  40.8327255  56.1499138
  76.4532547  40.1216545  54.9909782  39.0123520   3.8927522  35.7732201
  39.6916695   4.2861981  35.2255287  38.2179451   3.9414167  35.2414474
  55.8754883  42.2554893  66.8688278  56.1715240  41.3807907  67.1208267
  55.3982124  42.1202164  66.0502014  23.1367512  61.0421295  61.3137360
  23.9419327  61.0266762  60.7963600  23.4323673  60.9515343  62.2196236
  28.0178871  68.7925873  36.8901901  27.6844254  68.0520630  37.3968048
  28.7394180  69.1372299  37.4163513  11.1036434  47.3059425  84.9638901
  10.7835770  48.1513214  85.2787247  10.3649015  46.7096176  85.0859146
  10.3282013  -0.2757190  80.7371292  10.2040634   0.5924772  80.3536530
  11.0300198  -0.1567721  81.3770752  26.3452740  35.9918098  23.8435860
  25.9765930  36.0907707  24.7213745  25.5879536  36.0332680  23.2596493
  62.7528419  54.4345474  31.4561005  62.5168686  55.2561150  31.0253162
  63.7021675  54.3726921  31.3503132  30.2375450  42.9503937  71.8444672
  29.3951092  42.8340187  71.4051590  30.1299744  42.5122566  72.6886826
  73.1188965  54.4167137  34.3644791  74.0310974  54.5377388  34.1008949
  72.9562988  55.1191483  34.9940681  38.7700806  39.8807449  77.1768494
  39.4316864  40.3918228  76.7106857  37.9622841  40.3837929  77.0736923
  41.8163185  24.0320930  87.5656357  42.0842896  24.2785645  88.4508896
  41.1927490  23.3173847  87.6944046  36.2759056  64.4814072  40.1501045
  36.6240997  64.2476044  39.2896805  37.0502663  64.5708771  40.7056122
  46.2124939  59.8377838  23.6269436  46.3815155  59.0837517  24.1918335
  46.5405540  59.5718384  22.7679443  51.2034264  37.6853447  72.8941727
  51.9080429  38.2774048  72.6310883  51.5831451  36.8103905  72.8135605
  26.9135170  64.5101395  57.4998207  26.0024147  64.5973129  57.7800407
  26.9035225  64.7523575  56.5738297   7.9073496  51.6210442  50.9950562
   7.7789841  50.6972084  51.2101898   8.2100716  51.6156845  50.0870018
   7.9838305  36.3349609  18.7759514   7.6841807  37.2400703  18.6909962
   7.1940742  35.8408470  18.9958820  18.7814808   6.8902822  28.3061962
  18.7015800   6.5216866  29.1859608  18.7923164   7.8375278  28.4434547
  56.7942429  66.3648758  49.5137444  55.9526634  66.6480789  49.8711967
  57.2815475  67.1771698  49.3761063  75.6960220  40.0674248  42.7759361
  75.5270462  39.2144012  42.3758965  76.4791336  39.9309845  43.3091850
  35.2538376  48.6683502  68.3629684  34.5459213  48.0582390  68.1559601
  34.8433342  49.5323448  68.3278656  63.2308464   8.3129759  63.4283180
  62.9965248   8.8709993  64.1698990  63.2935524   8.9144735  62.6863632
  73.7031021  51.3834152   8.7297783  72.9188080  51.5418358   9.2551422
  73.7154388  50.4354553   8.5976610  48.3492584  14.5322685  42.7864952
  48.1005211  13.7501354  43.2790718  48.6626511  15.1448088  43.4519348
  76.0580673  44.7685089  45.1289406  75.4710236  44.0470467  44.9028664
  76.9013901  44.3476906  45.2961197  21.6128616  59.1936226  59.3408356
  22.1391773  59.6739998  59.9799461  20.7082386  59.3387108  59.6180305
  17.9756222   1.4445151   7.2352052  18.7497482   0.9121918   7.0519166
  17.6385593   1.6824211   6.3714800   1.9729667  47.2925949  13.1106663
   1.3986953  47.3661385  13.8729229   2.3575978  48.1639442  13.0156040
  48.2412834  -0.0722203  70.6927185  48.9607124   0.1577976  71.2807159
  47.6342545   0.6650733  70.7571106  67.6696472  50.4042358   9.8112040
  66.9363708  50.2828255   9.2080450  68.1808624  51.1161995   9.4264946
  57.1899529  49.5609474  54.5617561  57.9265480  49.1254272  54.1328278
  56.4142799  49.1881256  54.1427536  62.1572800  55.4708595  36.1616936
  61.8004532  56.3546906  36.2497139  61.8827667  55.1874924  35.2895813
  23.1341152  25.0425949  62.6750450  23.3935146  25.9294758  62.9248199
  22.5763321  25.1636448  61.9066353  76.2639236  50.1557961  57.2692871
  76.6236649  50.0981293  56.3841362  76.6843948  49.4400063  57.7458153
  52.5133553  10.3781862  72.5369339  52.3234367   9.6716280  73.1541367
  51.6833076  10.8460798  72.4457016  65.3060684   8.3925371  44.0699081
  65.8154449   7.6997709  44.4904327  65.7822189   9.1974430  44.2739601
  78.7419281  58.5124626  86.1250534  79.3616943  58.8149529  86.7888412
  78.4981537  59.3046570  85.6462708  71.2975616  38.5002747  36.2010422
  70.6081314  38.0061874  35.7574272  71.3416748  39.3297729  35.7254181
  74.0858231  56.6145477  86.5339813  73.7046051  55.7650948  86.3118744
  74.5888824  56.4501343  87.3315659  86.7380981  67.8734512  58.0977898
  85.9543915  67.6547470  58.6019745  86.4021683  68.2434616  57.2814064
  48.6393738  42.0642509  11.6712370  48.8843803  42.6936226  10.9929333
  47.8135719  42.3986282  12.0212002  16.7367516  41.5644188   2.3773086
  17.4646492  40.9591141   2.2358789  16.9740906  42.0429993   3.1715791
  52.1607933  34.9088783  53.6823235  52.2828827  35.2277374  52.7880898
  51.5894470  35.5582962  54.0922623  75.3479767  10.0145102  41.8541832
  74.8323364   9.9435701  42.6575012  74.9391937   9.3932610  41.2515373
  54.3575859  69.9810562  22.4704456  54.7143021  69.1155396  22.6701069
  54.8056068  70.2452164  21.6668720  66.5285416  28.3722630  52.2077103
  67.0261841  27.7259789  52.7086143  66.6567307  29.1935616  52.6823349
  44.6406822  59.7803574   2.6033766  44.0404739  60.4915657   2.8273520
  44.2638054  59.0074997   3.0239515  57.2365723   3.8654041  33.6546555
  56.6363869   4.5188293  34.0138817  56.7943535   3.0288789  33.7992210
   8.6115103  49.5799789  78.7223740   7.7618456  49.3266983  78.3616028
   9.1786156  49.6730385  77.9568863  14.9930983  63.9029884   2.1623216
  15.3634148  63.0306129   2.2966979  15.5235624  64.2831039   1.4620699
  70.9923935  39.8486748  63.4359779  71.6439438  40.2101822  62.8351250
  70.6537170  39.0752869  62.9849739  75.9750748  33.7736740  40.3234787
  76.2761765  33.2101669  39.6107178  76.4292068  34.6040611  40.1804771
  53.7202339  22.6594410  10.9948616  52.8854294  22.3272476  11.3249807
  53.4953728  23.1006050  10.1756897  20.0304985  51.0202103  48.8252869
  19.9303837  51.9692192  48.9000359  20.2332859  50.8727875  47.9015007
  70.5034866  55.8974228  48.9919319  69.8604050  56.4157753  48.5082169
  70.1780853  55.8914566  49.8921051  22.7000732  23.3154106  13.4492331
  22.5279026  24.1966515  13.7809029  21.8334541  22.9179649  13.3641424
  17.6355381   2.4045286  17.2116318  18.0378952   1.5364250  17.1844902
  18.1197414   2.8717601  17.8924198  30.2411060  59.7253647  45.6625519
  30.9354000  60.3420219  45.4303436  30.5008545  59.3832436  46.5179558
  13.6136866   1.9762795  19.8526421  13.7405424   2.0082502  18.9044228
  13.8396740   2.8561380  20.1543217  48.1132927   8.5483980  50.5587082
  47.6227608   8.6382408  51.3757401  48.6793709   7.7898273  50.7013855
  39.7406082  46.1938782  26.0222263  39.3086700  45.3397064  26.0152874
  39.7785759  46.4505653  25.1008682  77.0598450  70.2027664  79.8968506
  76.1523361  69.8996658  79.9248886  77.0372391  71.0651703  80.3115692
  17.6313133  42.9140968  44.8680840  17.4022198  41.9879532  44.9455414
  17.7493382  43.0538673  43.9285278  19.6614971  40.1506424  26.8936405
  20.4757423  39.7541466  27.2035255  19.5967865  40.9740601  27.3774071
  36.4798203  49.9128723   5.9675956  36.8654747  49.0396690   6.0384302
  35.8495331  49.8389244   5.2510042  75.8401260  16.9244366  27.0039825
  76.4688263  17.5690193  27.3287525  76.1667709  16.0858669  27.3300667
  19.7917843  10.7558794   1.2580738  19.4272728  10.7569933   2.1431515
  20.6774082  10.4085550   1.3642182  15.8594332   4.3205838   5.9835262
  16.3155193   4.5829272   5.1839061  16.2118263   3.4541800   6.1869826
  16.0074177  67.2609711  55.2309990  16.7302418  67.4946289  54.6486206
  16.2255154  67.6800537  56.0634880  83.7802124  34.9211464   6.6790366
  84.2411346  34.0870590   6.5891414  84.3847885  35.4771271   7.1705704
  37.3237267  28.9291668  80.1521759  36.3780670  29.0338268  80.2571030
  37.7038040  29.5631657  80.7602997  22.2916241  38.4277611  66.1998520
  21.3644848  38.2696342  66.3777390  22.3626709  38.3881493  65.2461166
  77.4280472   1.8765616  79.2201004  76.8782730   1.7788492  78.4426498
  77.1088943   2.6751838  79.6403122  49.0916672   5.8111420   2.2873139
  49.6741066   6.4985495   2.6105287  48.6258659   5.5061927   3.0659447
  50.7503052   4.4505210  79.4802704  50.0428314   3.8764768  79.1867065
  50.3037529   5.1838412  79.9034348  15.6735697  20.2862186  24.2890778
  16.0469398  21.0385742  24.7481937  16.2838764  20.1165295  23.5714684
   7.0810995   4.3641090  84.4592743   6.8461609   3.6472383  85.0484543
   6.2446480   4.7679338  84.2279663  71.5248337   3.3099666  42.0262375
  70.8881836   3.5880737  41.3677750  71.5643997   2.3580337  41.9340973
  35.2943153   0.6848357  61.1519890  35.6850014   0.1648237  60.4497185
  34.5407524   1.1110198  60.7436485  82.6200485  34.2680931  10.2389336
  83.2075882  34.8775406   9.7921543  81.7422714  34.6004791  10.0511627
  44.1484489  68.4708862  25.2519569  44.0753441  68.1998978  24.3368340
  43.4000969  68.0592880  25.6841469  72.4038773  17.8679352   2.3972948
  71.4840622  18.0738125   2.2305951  72.4245987  16.9146175   2.4808881
  38.8313217  24.5705585  76.0104599  39.6407089  24.9446716  75.6623764
  38.2025795  24.6506405  75.2931671  44.4792862  34.3937721  25.8039036
  44.1524467  35.2282677  25.4677162  44.0839500  33.7344513  25.2336044
  73.1835709   4.5901589  71.3344879  73.9408417   4.3011160  71.8436356
  73.2892151   4.1628523  70.4844971  57.1864433  70.8425369   9.7207699
  56.7532425  71.3696289   9.0493956  57.5792313  71.4841995  10.3125668
  61.6273155  68.4050140  84.2172241  61.8720016  68.4469528  85.1416702
  60.7314682  68.0678711  84.2216339  54.6187325  14.0630169  51.8529739
  54.9609375  13.6987696  52.6693382  54.9399452  14.9646158  51.8397713
  49.6400604  47.4401779  44.4359436  49.2373924  48.1497078  44.9365997
  50.2841873  47.0607796  45.0337639   2.7186148  15.3731537   1.1559024
   1.8667345  15.4939060   1.5753672   3.2797813  15.0255394   1.8490745
  50.0529785   3.8756049  36.1381607  50.3895340   3.9128976  35.2428551
  49.7694244   2.9682159  36.2498436  46.9017792   4.7182527  52.5419960
  47.2275848   4.1470451  53.2375565  46.1384850   5.1506104  52.9249840
  24.1953888  67.3582916  40.3132706  23.8315392  67.2525101  39.4342651
  24.2671566  66.4658279  40.6517792  36.6694183  41.3814354  46.2145844
  35.7736969  41.0590401  46.3144608  36.9260864  41.6525002  47.0959892
  47.1480446  33.1701279  69.9149475  47.8503418  33.7612457  69.6436691
  46.8124313  32.8052559  69.0961304  11.7310648  71.4435883  50.2029037
  11.7832918  70.6294174  50.7035370  12.1983938  71.2547836  49.3891563
  85.4289627  28.2360725  58.1581535  86.0925751  27.5529156  58.0625572
  85.8182144  29.0074329  57.7461891  47.4955559  27.6302872  33.6718979
  46.8136902  27.1680984  33.1843796  47.2459679  27.5260258  34.5900879
  82.6683502  19.9010429  65.3583527  82.4595261  19.5078983  64.5109634
  82.8176880  20.8261032  65.1629181  65.7813568  67.3387680  52.4628029
  65.4104614  68.1808548  52.1990814  65.1972885  66.6875534  52.0741806
  47.1638260  22.1150303   9.8494368  46.2168732  22.1778164   9.7246552
  47.5209122  22.8455830   9.3444471  33.8529129  51.8339462  85.1665649
  33.8871956  52.6300163  85.6969681  34.7601204  51.5307617  85.1307297
  56.8376694  51.4320831  51.9449883  55.9003754  51.2632751  52.0409813
  57.1330986  51.6522141  52.8284454  12.2405987  35.2844238  48.9854546
  12.4925280  35.4071083  48.0701904  11.3055353  35.0825882  48.9515076
  12.9125004  27.5174141  15.3589935  11.9955006  27.5973721  15.6215782
  12.8768902  27.1754551  14.4656696  14.0651789  32.8542709   7.6081319
  13.5334473  32.7923050   8.4016399  13.4635210  33.1866951   6.9419985
  45.0993614  18.4091682  75.9932785  44.9973602  19.2105026  76.5067902
  46.0103760  18.4269257  75.7000732  42.1121559   8.3888054   2.2842302
  41.4093208   7.8103933   1.9880931  42.0080261   9.1813135   1.7576180
  77.7771378  18.6463547   6.5544376  78.2003479  17.9502506   7.0569959
  77.1391754  19.0246735   7.1595054  79.0386353  13.1457176  60.5032654
  78.2550278  12.6699820  60.2278290  78.7083435  13.9828453  60.8293877
  45.8138123  15.8994770  77.0447006  45.7243958  16.8197155  76.7969131
  45.2101288  15.7894974  77.7793427  73.8414154   5.3557191  75.2944107
  74.2671127   6.1792274  75.0559921  72.9698029   5.4146266  74.9031906
  18.4961777  42.7437706  65.0610428  18.0418510  41.9099388  64.9404526
  17.8631191  43.4043350  64.7797546  71.3805618  65.7672119  67.9299850
  71.1380005  66.6752930  67.7489471  70.7978745  65.2485199  67.3753128
  45.1769447  44.6543465  60.2861710  44.8227921  44.8060989  61.1624031
  44.4470139  44.8438988  59.6966782  39.8767815  56.9611626  14.3167992
  39.3493233  57.7591400  14.2813835  40.0047226  56.7999191  15.2516060
  41.4958954  23.8267174  73.9902115  42.0219421  23.0565491  73.7749252
  41.1807213  24.1455288  73.1444855  72.4107208  32.1282539  37.1714973
  71.6400909  31.6263371  36.9061050  72.0961075  33.0292931  37.2448578
   1.7237922  32.1403465  63.9737434   2.5263133  32.0156441  64.4803467
   1.7627021  31.4675865  63.2939568  14.5446482   0.2727090  81.0251846
  15.2994003   0.8289607  81.2179718  14.1041679   0.7106343  80.2968826
  72.5120773  25.6624603  22.4402504  72.5332260  24.7162838  22.5835400
  71.5850983  25.8932400  22.5009689  31.1233063  61.4009171  25.5929565
  30.9601460  61.8364716  26.4295597  31.7789459  61.9488487  25.1615200
  67.2003403  23.8424358  11.4795780  66.4255753  23.2803440  11.4741745
  67.9281006  23.2455177  11.6535892  60.1590385  71.1168137  24.0157108
  60.4553986  71.6474228  23.2762165  60.9025841  70.5481415  24.2156811
  52.3185005  65.9730377  24.6294022  52.2947159  66.5735321  23.8843689
  52.0354500  66.5038300  25.3739681  19.7654343  71.3368454  56.7439613
  19.4203377  70.6567154  57.3223763  20.6952629  71.1273041  56.6559715
  58.2292747  60.3720055  77.6927032  57.4443970  60.5988312  77.1939545
  57.9029121  59.8618469  78.4339600  81.5018082  19.1591492  55.7624893
  80.9265060  18.4345646  56.0079193  81.3068466  19.3174877  54.8388290
  18.8999863  46.3897629  43.0839539  18.4134007  45.6062813  42.8277817
  18.2275829  47.0028763  43.3809357  54.7978096   5.0186572  36.0831528
  54.1125641   4.4578872  36.4467506  54.8195229   5.7783065  36.6651268
   1.2430114  12.1824551  84.8180084   1.7406950  12.9478559  84.5304260
   0.4002487  12.5372524  85.1010284  44.9822578  35.5691109   7.1740217
  44.0543251  35.7840424   7.2687540  45.4227486  36.1183701   7.8224893
  35.8600044  40.8825073  38.9696655  36.3208542  41.1202049  38.1650848
  35.1689262  40.2857208  38.6824608  22.9971752  61.2913933  67.5089645
  22.5569458  61.6141739  68.2952499  23.0410423  60.3430519  67.6312561
  29.1968403  51.2919807  78.0979309  29.6960144  51.0240707  78.8694763
  29.1752892  50.5117760  77.5438156  33.7254066  52.0711365  64.1467285
  32.9258270  51.9942398  64.6672897  34.3351364  51.4543533  64.5517502
  34.3874741  41.4188652  58.8228264  35.2265930  41.4615631  59.2813988
  34.0448074  40.5496483  59.0308456  11.7443867  62.2374802   2.7399244
  12.1085272  61.4509468   3.1461227  10.8329725  62.0112534   2.5545118
  80.6237869  43.5051231  53.9127769  80.9246063  43.5716820  53.0065155
  81.3730240  43.1459885  54.3880653  15.2095728  32.8366470  12.0094509
  14.7892675  33.6676636  12.2307873  16.0720291  33.0855026  11.6770763
  78.1730118  61.1206398  20.9736042  78.2641678  61.5431366  20.1195450
  78.4115601  60.2072029  20.8156300   5.6218371   0.6214496  54.3009491
   6.3354988   0.5753170  53.6647186   4.8988914   1.0255404  53.8210640
  11.3797598  65.1158905  72.4557571  12.2957373  65.0452957  72.7245178
  11.0418682  65.8624649  72.9504089   2.0623617  67.6452408  26.0860443
   2.7337687  68.2244644  26.4465275   1.2728860  67.8536835  26.5855579
  15.6228676  52.9076805  71.7712479  16.1803799  52.7144623  72.5249557
  15.3083239  52.0517311  71.4803085   3.8508160  43.8793411  53.6124802
   4.4268947  43.1511955  53.3797379   4.3981614  44.6584969  53.5146790
  13.7513666  29.9873333   4.0726418  13.3175173  30.8393250   4.0266504
  13.5905724  29.5901623   3.2167025  82.4328308  13.4476252  19.3213940
  82.0620728  14.3297195  19.3475227  82.0454483  13.0025749  20.0751190
  58.6501884  27.5546951  47.5046425  57.8248711  27.1261234  47.7313766
  58.3974457  28.4426823  47.2519913  73.0730286  70.6443481   4.0002260
  72.3218384  70.5237732   3.4193616  73.3805542  71.5312805   3.8131051
  74.1884384  46.7959747  34.0447884  74.7871933  46.2274017  34.5289879
  73.3269806  46.6102066  34.4184303   6.9921651  15.5323505  13.6111012
   6.5442357  16.1411953  14.1983824   6.3769536  14.8069754  13.5035019
  11.5721207  48.5506248  88.7104721  12.2078152  49.2069893  88.9956207
  11.4163733  48.7529526  87.7879562  28.9769688  64.7843552  47.8409615
  29.4608879  65.1101913  47.0820923  29.4348660  63.9816475  48.0904045
  27.6637859  56.5059280  46.8255882  27.9379578  56.9634399  46.0307655
  28.4278183  56.5462570  47.4007950  10.7205105  20.8553905  17.3993797
  10.3346949  20.6782322  16.5414791  10.3216848  21.6805458  17.6755772
  41.2596817  60.8531380   7.6085501  41.6649933  61.7058525   7.7661490
  40.3370323  61.0522346   7.4494619  78.8621063  31.7382107   9.3495789
  79.7537308  31.9262428   9.0565319  78.9711075  31.0980282  10.0527973
  29.7394085  59.5615158  66.3961029  30.4747143  59.0526466  66.0546188
  29.9800186  59.7511787  67.3029480  42.2971115  21.0136528  74.0199509
  42.3093529  20.2390900  74.5822067  42.8308029  20.7692318  73.2638626
  72.9546204  18.9505386  63.3968849  73.4637680  19.3605900  62.6977043
  73.3599472  19.2656422  64.2047501  40.6031647  60.4616165  13.5902166
  40.7150993  59.9075775  14.3627081  40.2620049  61.2869110  13.9347839
   4.4462628  39.3340111  85.9215775   4.9561934  39.1416817  86.7084732
   5.0651522  39.7698517  85.3357010  65.2203979  38.1834030  23.2379932
  64.7138977  37.4511566  23.5894299  66.0652924  38.1262245  23.6842079
  46.9075775   1.5775999   5.7965150  47.3776054   1.4431204   4.9735827
  47.5859108   1.5306149   6.4702253  55.9823761  69.2191772  82.4375610
  56.7620010  69.7468491  82.6107025  55.2985382  69.8594971  82.2411346
  50.0941010  35.4909286  65.3050690  50.7081108  36.0817947  65.7410736
  49.2698975  35.9770813  65.2811203  10.7079878  35.6606102  64.9321213
   9.9739370  35.1925964  65.3300705  10.4437771  36.5804405  64.9504318
  49.2407875  39.7587814  81.7485809  50.0173531  39.4260979  81.2985764
  49.4896774  40.6363106  82.0387955  63.4196053  13.3737078  79.7416763
  62.9334373  13.9080448  80.3696594  63.6695099  13.9856625  79.0493698
  51.3721313  28.5277481   2.0857236  50.7830887  27.8862705   1.6885240
  51.7799759  28.0595608   2.8142109  38.0973320   7.2036748   9.2392340
  38.1041679   6.3209715   9.6093950  37.4893265   7.1495008   8.5019226
  35.7150269  43.9156876   1.5212455  36.1807175  43.4751930   2.2321107
  35.1510010  43.2381363   1.1483802  17.5295143   3.7859085  13.7079134
  18.3725796   4.2302756  13.6184101  17.3201466   3.4888420  12.8223925
  45.5569878  25.2190819  76.0755005  46.4031944  24.8069324  75.9014282
  45.5150375  25.2863102  77.0294189  19.1921082  70.2628784  10.6734581
  18.7488213  70.1454849   9.8332520  18.5967350  70.8118591  11.1837330
  27.8453178  58.3064194  51.3943214  27.5312748  58.0630074  50.5234833
  27.1648273  58.8829613  51.7418327  38.0159531   2.6543710  70.0414886
  37.1669540   2.2176347  70.1100235  37.8503723   3.5482283  70.3412094
  54.0964890   0.1265793  46.1319160  53.8951073  -0.5466231  45.4819336
  54.4211731   0.8660660  45.6181335  83.8227386   2.6961517  77.4239349
  84.0583038   2.5323164  76.5107574  82.9481964   2.3183818  77.5171661
  58.8629227  71.1452332  72.8684006  58.7084999  71.5959167  73.6986237
  59.6301460  70.5969315  73.0326080  51.5724258  35.5214119  37.8646469
  51.3518639  36.4309845  38.0653000  50.8013535  35.1827431  37.4096985
  55.7075958  11.1009970  57.3042641  54.9395676  10.5297766  57.3124886
  55.4241638  11.8900852  57.7660408  76.4654083  13.2633047  21.2248402
  75.9501266  14.0212660  21.5009117  76.6997833  12.8226690  22.0416279
  57.0720482  65.9222031   2.6293824  56.4830399  65.8018570   1.8845203
  56.4975815  66.1827316   3.3493454  23.9722233   2.7791107  54.2788086
  24.3887405   2.8298681  53.4184761  23.9422798   3.6857648  54.5842819
  86.4208755  19.9471569  24.4707241  86.1724396  20.8658772  24.5730076
  87.0018616  19.7722969  25.2110672  71.7702866  22.8022804  70.8369751
  72.2518921  22.5276318  70.0566788  72.3545609  23.4224758  71.2731094
  45.6046333  24.1291733  15.7362976  45.7954597  23.5349274  15.0105639
  44.6919136  24.3848476  15.6028519  13.6799488  63.0656395  48.4469986
  13.3806419  63.8150940  48.9617462  13.8847046  62.3944054  49.0979614
  60.0381966  65.5969696  43.4006271  59.8515930  66.2620239  44.0632820
  60.3550262  64.8440170  43.8995438  65.3746872   3.5511775  88.9337616
  65.0253525   4.1374784  88.2626114  66.2916031   3.4263167  88.6890259
  30.8444595   2.0235686   5.0530629  30.7247200   1.1571745   5.4419785
  30.0072556   2.2139254   4.6298785  69.8805237  42.5991859  15.0391388
  69.4159698  43.3777275  15.3462124  69.4738617  41.8746109  15.5143747
  67.6808548  54.0500450  62.3089600  67.3715286  54.6104240  61.5972557
  68.5911713  53.8577766  62.0840492  39.6933174  70.2473450  30.1115170
  40.2080345  71.0023422  30.3965969  39.8483315  69.5840759  30.7840309
  69.5836563  16.0718937   9.3188314  69.1219559  16.5668106   9.9956799
  69.1252136  15.2324619   9.2811966  62.0146065   3.9276373  18.7640362
  62.1947479   3.7607539  17.8388710  62.1325760   4.8722205  18.8644257
  70.7468872  36.3654709  32.3896637  71.3193054  35.6737251  32.7214127
  70.4843521  36.0627441  31.5203743  80.6316833  69.8774261  47.3385315
  80.8021164  70.3148880  48.1726837  79.9403687  69.2455978  47.5362930
  19.7778511  45.0350456  51.7184792  19.4195309  45.7774429  52.2049828
  19.7480679  45.3119812  50.8027000  24.5583401  25.5689983  69.5894470
  24.8716736  24.8938160  68.9876328  23.6927986  25.8045959  69.2554398
  57.3341675  20.2322521  50.4359398  57.8320389  20.0144386  49.6479607
  57.8633118  19.8892021  51.1560478  60.2057190  49.4881401  57.7173309
  60.2069664  50.0189171  58.5138893  60.0759468  48.5917664  58.0270119
  38.1137314  37.1375351  28.8599567  37.7907448  36.6853409  28.0805779
  38.7614212  36.5394020  29.2327385  10.4525785  14.2448616  86.9883881
   9.5698843  14.0222864  86.6925125  10.9613924  13.4467573  86.8456650
  78.2902832  35.4457397  49.1103401  78.3630600  35.2484932  48.1765137
  77.3527222  35.5721474  49.2560768   7.9413505  55.9282875   1.7997590
   7.4945560  55.6716156   0.9930828   7.3424883  55.6663017   2.4990151
  19.0059795  57.2522659  79.4695740  19.6618080  57.9319000  79.3139572
  19.4943695  56.4309158  79.4139557   3.1259463  65.4782562  74.3739929
   3.4246783  65.3226700  75.2699814   3.5079429  66.3234711  74.1375198
  46.8794327  60.8333282   4.1246686  46.3498611  60.3639565   3.4800942
  46.3087730  60.9164696   4.8886490  53.0979919  68.7295532  85.4223328
  53.4448204  69.4588089  84.9084091  52.5545998  69.1453476  86.0917206
  61.8229446  45.9111290  28.4769306  61.8528976  46.8623047  28.5798740
  61.2157021  45.6157951  29.1553631  27.9912720  57.9373932   3.8497980
  27.0914116  57.7287750   4.1007161  28.5276508  57.3182106   4.3449121
  76.6126404  38.5449333  50.5242157  76.9952698  37.6780357  50.3888779
  77.2502823  39.1499863  50.1453285  71.5159607  34.6968918   4.5622029
  70.9618454  35.1560364   5.1933751  70.9043274  34.3580971   3.9084733
  26.8757153  54.0532265  36.9349709  25.9879532  53.7702713  36.7157822
  27.0398903  54.7972221  36.3555298   2.3729389  12.3803072  32.9140205
   2.5279083  13.0910597  33.5361519   2.5729492  11.5837641  33.4056969
  46.1190796  26.8430347  16.1668015  46.9942551  26.8006611  15.7814322
  45.7549171  25.9683094  16.0308781  33.3540726  39.0615196  59.5897179
  32.6277161  38.6305351  59.1392822  33.7706909  38.3633423  60.0948982
  81.1609421   1.6817412  81.4166718  80.8228989   1.1344737  80.7078323
  81.4741058   1.0583398  82.0720596   8.8516331  19.2145882  71.7740326
   8.4186373  19.7926502  71.1458664   8.6510458  18.3313236  71.4644470
   7.5485382  51.1093521  22.5358143   7.9247193  51.9546547  22.2904892
   8.1452398  50.4630432  22.1583691   2.0191700  22.3658752  56.8870468
   2.5776947  22.3953953  57.6638412   2.5887101  22.6488342  56.1716499
   1.8898211  14.7592173  75.2650528   2.0655661  13.8521614  75.5152435
   1.5876751  15.1760159  76.0720367  24.2506580  14.9420338  69.3868027
  24.2228279  15.8850832  69.5484009  25.1486263  14.6887770  69.6006775
  22.5659790  18.1977844  84.5784988  21.9654789  17.5003109  84.3155060
  22.3894501  18.3271027  85.5103531  52.0516777  23.0308800  63.3143997
  52.6961060  22.3718090  63.0563850  51.2802849  22.8322792  62.7836037
  57.6312485  70.7325058   6.4477062  57.7456131  69.7950821   6.6038742
  56.7421303  70.9188538   6.7493329  66.4756622  26.1172733  12.3124847
  66.9016266  25.3312740  11.9704409  67.0678101  26.4327755  12.9951668
  84.1420212  14.4002590  46.8259583  83.2065659  14.2029085  46.7788506
  84.5136490  13.9863596  46.0469780  72.5743484   4.4779468  11.0990219
  73.4434662   4.0885181  11.1949883  72.2135696   4.4799671  11.9856262
  13.2555447   0.6955498  24.2523098  12.5648832   1.0549273  24.8091469
  12.7879629   0.2923868  23.5208340  75.7362137  55.2951889  34.5834274
  76.0526657  55.7198792  33.7860985  76.1668625  55.7695847  35.2945671
  55.1025162  22.9179688  68.4477615  55.3206711  23.8410683  68.3192062
  54.4546432  22.9208488  69.1523743   9.2400017  15.7744484  11.9929571
   8.5898256  15.6348429  12.6814432   8.7776747  16.2825623  11.3263950
  76.3244934  44.5150070   9.2566948  76.5179520  43.9707222   8.4934397
  75.5405502  44.1209984   9.6393356  53.0925102  54.1967239  15.4631042
  52.7040176  54.0130615  16.3184242  52.6121063  54.9592400  15.1405926
   7.4234304   0.7093955  62.2821617   7.0556870   0.6798710  63.1654091
   8.2656698   1.1517222  62.3880501  20.5163422  33.7608223  67.6989822
  20.2141724  34.5427513  67.2369080  21.4183121  33.9630661  67.9475403
  81.6517639  12.6152010  16.9878502  80.8205414  12.9932232  17.2749004
  82.3128510  13.0589046  17.5191917  83.8061829  59.8413620  52.1498566
  84.2800217  59.2776489  52.7613602  83.7526779  59.3283691  51.3435059
  56.5181046  56.4317322  57.8815002  56.0105400  57.1908798  57.5946121
  56.3961563  55.7853966  57.1860809  27.4928532  19.4016724  18.1920109
  28.2810402  19.4398823  17.6502247  27.6149597  18.6250248  18.7380333
  60.8348427   5.8934617   7.0096207  60.6793442   5.4409976   6.1805673
  61.2484550   6.7191792   6.7579336  19.0282001  56.4541130  65.3572617
  18.3069572  56.5582619  65.9778976  19.6895485  55.9579964  65.8396759
   2.9170420  56.3224564  23.5646858   3.4030459  56.9395294  23.0176449
   3.2152638  55.4599838  23.2758369  75.7621841   8.8748941   0.1536005
  75.6900406   8.5637884   1.0559533  75.5931320   8.0993557  -0.3813690
  49.6436996   9.5465984  33.0299835  50.4685555   9.2408333  32.6526871
  49.0211487   9.5131931  32.3036613  80.6271667  22.6499424  69.5953369
  79.7403717  22.2909050  69.5650406  81.1896286  21.9214439  69.3323593
  18.9894791   4.4036312  72.3783340  18.8235626   5.3460355  72.3542938
  19.6504059   4.2594461  71.7011185  20.9977779   6.5744081   4.6111388
  21.1213913   5.6512551   4.3903675  21.1556759   7.0402718   3.7899988
   5.1088548  10.8548689   8.1631193   5.5044184  11.6796112   7.8810544
   4.2358508  11.1003618   8.4694338  72.7643661  38.8356056  79.6417847
  71.8513641  38.7301064  79.9092331  73.0326767  39.6687660  80.0291977
  37.9389801  52.1379509  65.5958710  37.3818092  52.8536568  65.2899933
  38.4514427  52.5208740  66.3078995  48.3760719   3.0004148  78.6057663
  49.1623878   2.5309775  78.3272629  47.7281570   2.8051653  77.9287720
  83.8993835  49.5306091  36.8332291  84.3906784  50.1773300  37.3397980
  83.0798721  49.9725800  36.6111984  25.5991116  68.4702759  52.6235886
  25.6598015  69.4254684  52.6109428  26.0182476  68.2145081  53.4452591
  59.5673485  67.9888229  13.2371140  59.4068947  67.6427612  12.3592005
  60.1997795  67.3819962  13.6218653  49.8948059  41.9564514  57.8821182
  49.5192947  41.4448624  57.1655273  49.9289665  42.8516808  57.5450287
  15.7151041  57.1281624  85.2026367  15.8037806  56.9678917  86.1421509
  16.5487976  56.8401947  84.8308029  20.6538677  42.1108856   5.1758494
  20.0445271  42.0693130   5.9128747  20.9210663  43.0292358   5.1374989
  27.2425041  55.2347107  22.4366226  27.7336731  54.6449661  23.0086250
  26.3633099  54.8577995  22.4021626  54.8574944   0.4267253  55.9894447
  54.4771156   0.9326866  55.2714310  54.1488075   0.3468470  56.6278954
  64.5016174  40.2936211  32.9391136  63.7418327  40.6377373  33.4087257
  65.1665955  40.1710243  33.6166191  51.8502121  35.2613640  71.0754776
  52.0881233  35.4677620  70.1715851  52.4473801  34.5562286  71.3252792
   2.8116326  43.4709778  30.3562183   2.3727524  42.8083000  30.8895836
   3.6282077  43.0543976  30.0807228  52.9091988  48.2292137  53.3551826
  52.0304832  48.5679588  53.5264626  53.3333549  48.2188454  54.2132149
  18.1032581  47.0194206  52.8701210  18.5413704  47.5763588  52.2266083
  17.2707863  46.7872124  52.4586601  21.4005337  63.4893761   3.0372398
  22.0185833  63.0423622   2.4589465  20.7590847  63.8816795   2.4448917
  85.1093521  48.5973549  50.1019020  84.4010010  47.9793892  50.2824364
  85.8130417  48.0568542  49.7428627   9.9524107  71.2833862  86.0392990
   9.9204149  70.7529678  86.8354492  10.8863602  71.4182129  85.8787003
  48.7889977   8.0378742  40.7635651  47.9163933   8.0664062  41.1559601
  49.0967331   8.9436121  40.7977829  49.7897568  16.1514111  29.7543583
  49.7341843  15.7948294  28.8677959  48.8919830  16.4067993  29.9665108
  53.7338257   5.9103341  20.2271233  53.8282356   6.2413154  21.1203022
  53.3759193   6.6489353  19.7345753  46.4912109  15.3107071  71.6592331
  46.3583717  14.9446535  70.7848206  46.4164467  14.5592194  72.2473679
  29.0989723  29.4606781  74.7123337  29.7430344  29.6782761  75.3861771
  29.1442795  28.5075569  74.6365814  53.1679420  44.3983269  11.0345182
  53.4444427  45.2065620  10.6026201  53.3895302  44.5313644  11.9561634
  16.1368027  57.6065140  70.5282059  15.9359598  57.2680283  71.4007492
  15.3333101  57.4679871  70.0267715   2.5336444   4.2161818  88.3971481
   2.8840654   3.7526009  87.6365356   1.6080701   4.3480020  88.1918030
  37.5571404  69.7754440   6.6569424  37.1605644  68.9888306   7.0313721
  38.4997749  69.6205521   6.7176366  75.8366470  37.0723305  74.8075867
  75.3081512  37.0505676  74.0098114  75.5580063  36.3006287  75.3006058
  68.0446930  55.0941696  13.9362230  68.7936020  55.6874809  13.9941463
  67.5473785  55.2572556  14.7376652  17.9129276  36.6722641  61.1686401
  16.9922276  36.4719772  61.3372459  18.2201004  37.0845642  61.9760323
  36.1707535  46.9456673  78.7637939  35.3213539  47.1928940  78.3982468
  36.5525093  47.7711639  79.0622101  15.1776619  43.6028786  76.0078506
  15.1354151  43.4985390  76.9584122  14.2644300  43.5722542  75.7227173
  79.9161758  69.1588440   6.1518292  79.7107697  68.9824829   7.0699453
  79.2758865  68.6445923   5.6600900  18.3856716  60.0487442   1.7283905
  19.2225418  59.6320648   1.9339606  18.2960472  59.9512520   0.7803956
   6.7008071  21.4964619  64.3428497   7.2155824  22.2671013  64.5823364
   6.4047656  21.1368561  65.1790771  29.7325268  63.7975464  36.1707726
  29.6224728  64.7476196  36.1323547  30.3542519  63.5999336  35.4703140
  66.7639389  13.8457775  78.8191757  67.3299408  13.1166754  79.0727386
  66.5171432  14.2567606  79.6476822  76.4271927  32.8439903   8.6247511
  76.5907898  33.7554131   8.3823137  77.2913437  32.4957199   8.8442516
  26.8825169   8.0507202  78.6270599  25.9840717   8.2119064  78.3388748
  26.8032970   7.3564854  79.2812729  77.2287674  49.4204178  47.9633560
  78.0984344  49.5087204  47.5733337  77.2404480  50.0165520  48.7121696
  82.1224670  60.8021202  57.8088951  81.9667358  60.0824127  58.4204483
  82.1912689  60.3786850  56.9532089  86.2402344  53.6476669  58.2783127
  86.4289551  54.5486336  58.0158768  85.3131180  53.6567039  58.5162354
  69.0510025  26.0980225   1.9153584  68.7933884  26.2092838   1.0002161
  69.8573074  25.5836449   1.8763605   4.2696047  42.5034752  68.1762543
   5.1235833  42.6709709  67.7776337   4.0655055  43.3083954  68.6523666
  40.7499352  43.7154655   3.5156932  40.8335075  42.9731407   2.9171929
  40.5206070  43.3203239   4.3568258  33.2591476  48.4327927  71.7325211
  33.5483055  47.6260185  71.3062210  32.6517448  48.8292847  71.1079559
  15.9979668  29.5865479  70.5442352  15.9979124  30.5130959  70.7845306
  15.3298454  29.1934433  71.1057663  49.4860725  44.7862091  28.2509785
  49.3066368  45.7248726  28.3052292  50.4162865  44.7075615  28.4625301
  51.6540604  12.7041073  57.5242271  52.0506058  12.3562679  58.3229713
  52.1353149  12.2801733  56.8136597  63.4967766  39.2786522  62.9539108
  64.2397079  39.5888138  62.4361382  63.5353432  39.7930908  63.7601967
  45.2182503  18.9770794  35.7298279  45.2850533  18.0238743  35.7861023
  45.5517921  19.1895123  34.8581314  45.5042496  27.0904694  26.0156097
  45.3395386  26.3757992  26.6307087  46.1991692  27.6047478  26.4265060
  81.9310150  42.0100594   3.2617772  82.8208847  41.7671089   3.5173957
  82.0062408  42.2604141   2.3409641  65.1627274  65.5717392  49.3187408
  64.9893265  65.9569473  50.1776772  64.3300018  65.6423492  48.8520470
  18.3016338  45.1385269  34.5484505  18.4581490  46.0766869  34.6561165
  17.7385406  45.0766449  33.7768745  82.7307587  45.5062981  81.0767899
  82.1933365  45.9752007  80.4384003  83.6096115  45.5082817  80.6975174
  79.2966385  23.7327938  39.0795326  80.0799713  23.1969051  39.2038193
  79.6254501  24.6305676  39.0335007  39.6459198  19.4444771   5.8259912
  39.9166412  19.0591908   6.6593561  38.7857666  19.8240051   6.0057774
  45.8013535   3.1527989  50.5638008  45.9037323   3.6342692  51.3847389
  46.4934578   2.4919338  50.5858154  12.4071255  29.9067879  82.6707611
  12.1898375  30.2379570  83.5421677  13.3361073  29.6824455  82.7245712
  72.2150650   5.4395366  64.3977509  72.0407333   6.2778993  63.9699783
  72.5275650   5.6765766  65.2708969  41.2241898  23.7013283  70.8532791
  41.4151764  23.0937862  70.1386795  40.3167458  23.5123959  71.0922012
  26.0346756  50.2285461  57.9141960  26.1491814  51.1234589  57.5944290
  25.1971340  49.9477882  57.5455093  25.9206467   9.6215267  65.5228882
  26.3435669   8.7828894  65.7074356  26.3937473  10.2527838  66.0650330
   7.5064464  42.1354218  73.5724411   7.6484556  41.7112465  74.4186859
   7.2424035  43.0285339  73.7934952  84.2484131  20.7099648  60.2768669
  83.7921982  20.0093651  59.8107643  83.7398376  21.4973602  60.0829964
  13.2560806  53.6872940  37.3844681  13.7691441  52.9750252  37.7661362
  13.8344860  54.4487686  37.4273186   4.8068352  70.6136169  73.0677490
   5.7612391  70.5460052  73.0955582   4.6379628  71.5291595  72.8452682
  68.9997559   6.8589211  51.4438896  68.1389236   7.2238874  51.6488342
  68.9160156   5.9250565  51.6365471  32.2862740  20.6794872  82.6199341
  31.5812721  20.4054585  82.0333252  32.5622787  19.8731670  83.0557098
  70.1644287  29.9425735  18.2499523  70.0447845  29.6098824  17.3604393
  70.0400009  30.8883362  18.1706963  22.4253998  53.4551277  54.8526001
  23.2281494  53.8948936  55.1326523  21.7610321  54.1442108  54.8562584
  80.9349518  16.2228203  75.9907608  81.4915314  16.8482647  75.5267868
  81.3412018  16.1343422  76.8529434  31.5980606  48.2901115   3.3445389
  30.7014351  47.9747887   3.2311022  32.1189690  47.7496414   2.7505839
  22.9285336  54.7570114   7.8269901  22.2373886  54.0997086   7.7463455
  23.5385151  54.5513306   7.1185780  38.0574875  66.7148285  41.3580627
  37.1045494  66.7152557  41.4482841  38.3816490  66.5403595  42.2416420
  45.9949303  35.7437477  10.0885124  45.3081017  35.1070862   9.8906193
  46.7488327  35.2115326  10.3426962  61.4646873  48.2404594  68.3717651
  61.9812393  47.6331863  67.8420258  60.6226082  48.2957764  67.9200211
  74.0049362  63.7893867  85.4377518  74.2402649  64.0736389  84.5545502
  74.8198013  63.8552017  85.9356384  28.8208046  54.3370476  63.7689743
  28.0101395  53.8475266  63.6296082  29.1101952  54.0771484  64.6435776
  53.1651039  62.9628792  83.7847595  53.7091370  62.4086266  83.2252350
  52.7223587  62.3496780  84.3714371  40.6881981  54.8969841  21.2753220
  41.0588684  54.9452477  20.3941250  39.7484283  54.7826576  21.1339226
  49.1442146  54.0540352  79.0048447  48.9228096  53.1302948  78.8868637
  49.0657005  54.2006531  79.9474792   8.3671808   9.1443710   2.0638447
   9.1635227   9.1931372   1.5349833   7.8210845   9.8612242   1.7411503
  38.6186600  39.6923714  24.7213917  39.2156754  40.4365311  24.6437054
  39.1282234  38.9432449  24.4125519  77.5290451  55.2905426  50.9007645
  77.2095642  54.5973358  50.3231544  77.4022827  54.9438095  51.7839088
  29.3569355  22.9897251  19.7628307  28.7608089  22.2536507  19.9008865
  29.3563423  23.1239109  18.8150826  79.4709015  41.9412689  35.9565315
  78.9388504  41.2295227  35.6007614  79.8024979  42.4010353  35.1852417
  62.1141548  52.9478226  28.2813053  62.8225632  52.3393097  28.4913177
  62.1202698  53.5798035  29.0001888  52.5496368  39.7329102  46.1637535
  51.8591499  39.3650551  46.7152443  53.2965660  39.8376999  46.7531204
  48.2236862  10.1912098  12.4136648  48.2270470  10.9296055  13.0227575
  49.1127434  10.1686754  12.0596828  39.8056641  12.6950979  22.7839622
  39.6475677  11.9100285  23.3082733  39.3439865  12.5309381  21.9616871
  30.7009773  57.3440933  14.6453304  31.0435295  57.8067741  15.4100637
  30.2322426  58.0153313  14.1493883  31.1010075  68.2516174  67.4226074
  31.6568031  67.8126755  66.7786713  30.3001766  67.7277679  67.4445114
  71.6726151  19.5232677  60.7419891  71.7791290  18.8473854  60.0726089
  72.5652466  19.8053379  60.9417076  68.1688004  65.5858536  71.9843903
  67.4809265  64.9285431  71.8795242  67.9285583  66.0589523  72.7810669
  16.3720818  66.6671371  74.9980164  17.2970676  66.8889999  75.1048203
  16.2141953  66.7449875  74.0571442  86.3785324  68.3633728  51.9050255
  86.9685287  68.4370041  52.6551704  86.6993027  67.6018677  51.4218636
  67.9284439  12.7223682  71.4661407  67.3823090  13.2594004  72.0402145
  67.5337982  11.8512325  71.5062714  63.2029572  65.6306381  72.9925461
  63.8190498  65.6696548  72.2610092  62.4406090  66.1242599  72.6902237
  32.8578148  60.0932083  29.3463573  33.2283478  60.8056450  28.8254261
  31.9161510  60.1404152  29.1812210  70.9344864  28.0458660  11.6187963
  71.2566910  28.9271507  11.4297094  71.4716644  27.4721069  11.0724697
  26.2532768  34.9287262  28.5797062  26.3303394  33.9934692  28.7683468
  26.6808910  35.3584938  29.3204327  12.3772964  70.2855453  17.7826996
  12.7561150  70.0955200  16.9244328  13.0653286  70.0509491  18.4054413
  31.2692413  25.6102734  15.8591747  31.7784367  26.4197330  15.9007359
  31.7274761  25.0719261  15.2138567   9.3972816   6.0255857  24.8103886
   9.5626478   5.1685057  25.2031994   9.9697027   6.0521212  24.0436668
   1.7086389  17.9229279  20.9047565   1.3992056  18.7967873  21.1431942
   1.1637049  17.6710396  20.1592159  32.8626785  48.4086342  85.0485611
  32.2281609  49.0298805  84.6912460  32.9619217  48.6678543  85.9646301
  28.7738533  66.4905319  33.3848343  28.9279041  65.6995392  32.8682747
  29.2007599  66.3157806  34.2235527  66.6999893  53.1523819   6.0922160
  66.1203156  52.3964882   5.9982047  66.1091385  53.8897591   6.2451992
  81.9835052  30.5576897  24.8005066  81.6738892  30.0749798  25.5668983
  81.2626266  31.1483555  24.5821590  78.4765091  36.3531914  13.5874500
  77.7714844  36.0331879  14.1502695  78.1419830  37.1749763  13.2282982
  84.3762894   5.3158312  35.6308517  85.2575760   4.9705725  35.4881516
  83.8987732   4.5928378  36.0376549  80.5922241  25.0162220  27.7768555
  80.9009476  24.6317520  28.5972843  80.1414337  25.8177052  28.0426407
  45.2461166  46.3356667  57.7646828  45.0316620  47.0076256  57.1175995
  44.4523010  46.2494736  58.2925644  36.8258095  47.0945015  55.3561440
  36.4041061  46.9550362  54.5082359  37.7623291  47.0191689  55.1731415
  60.3433304  56.0010223  13.7197075  59.8249130  56.7790260  13.9251108
  61.2381172  56.2383003  13.9631987  50.4962120  20.0936069  84.4605103
  50.7956619  20.5294247  83.6626205  50.6341209  20.7401466  85.1527481
   2.0981507  44.9518509  58.5463562   2.6138959  45.5650787  59.0699844
   1.9007304  44.2321777  59.1457939  36.7142258  15.6111450  77.6773529
  36.0860252  16.1448059  78.1639786  36.2482986  14.7937813  77.5011139
  78.4154434  66.6054459   2.0594497  77.6704636  66.1232834   1.7006221
  79.1436691  65.9855118   2.0194967  34.8743019  57.2992096  13.6781578
  34.2147026  56.9255943  13.0937157  35.2465591  56.5438309  14.1331930
  30.5875168  24.2677803   1.0019609  31.1656437  23.6238823   0.5928196
  30.7254639  24.1504555   1.9418743  31.4070988  65.4351578   4.5164618
  30.9728012  64.6217728   4.7734137  31.5077267  65.9217377   5.3345947
  12.4607868  65.0617065  43.8977013  12.9651041  64.3700638  43.4692917
  12.9092369  65.2038193  44.7313232  18.7114677  12.5323973  49.5151520
  19.1424923  11.9998436  50.1836090  17.9781494  11.9945354  49.2165222
  30.2550888  29.5006943   4.3845453  30.3421555  30.1350460   3.6730337
  30.8849411  28.8125019   4.1702743  60.1638069   4.2997432  12.2253590
  60.6819992   4.6919198  12.9281445  60.0851746   4.9931378  11.5701857
  56.8978729   6.1267524  78.8257904  57.2319946   5.9445562  77.9474945
  56.4634895   6.9759173  78.7454224  33.5503235  12.5870476   3.3283064
  33.0950317  12.1275902   2.6227286  32.9450073  13.2798023   3.5927200
  86.4280396  41.3262672  51.7209816  87.3096008  41.6486397  51.9085236
  85.8465347  41.9687996  52.1274719  73.1538620  69.1845627  64.4062576
  73.2500687  68.4249802  63.8317986  72.9938660  69.9165878  63.8106270
  65.1200333  40.7990646  20.7932816  65.7266693  41.2343178  21.3922653
  64.3745651  41.3963051  20.7315369  63.2951469  63.3263664  45.3371964
  63.3699074  63.8302116  44.5267754  63.9754105  62.6566849  45.2664948
  36.9017220  33.8492889  11.2991009  36.7244987  34.7683678  11.0988054
  36.7654533  33.3926506  10.4689531  41.3353767  11.3831024  72.6725998
  40.8292122  11.9977674  73.2038422  42.0390358  11.9131346  72.2982178
   3.6521542  57.7957458  39.3383598   3.7506297  57.2794151  40.1383209
   4.3758740  58.4215775  39.3666191  52.3346710  51.8947678  75.9674759
  51.8131523  52.6642227  75.7390366  52.9982376  52.2261925  76.5725174
   0.2704120   2.5146523  85.3989639  -0.6255890   2.2423832  85.2007675
   0.6529547   2.7189717  84.5456467  27.7340965   0.3708875  38.8304520
  26.8751850   0.0871172  39.1434593  28.1130085   0.8469698  39.5693703
  72.1486206  54.5918808  70.0608215  71.2503281  54.2887802  69.9287796
  72.0537643  55.4438667  70.4866714  44.6695366  -0.1070138  38.5865440
  45.4909706   0.3648326  38.7238121  43.9978638   0.5749394  38.5916176
  27.7423649  46.4621162  47.0812263  26.9299603  46.9137650  46.8526573
  28.2861919  46.5358276  46.2969742   9.7107334  56.2548332   9.6304960
   8.8469172  56.2085037  10.0402613   9.5480442  56.6463356   8.7723074
  70.2120590  31.1046600  36.2488441  69.6898880  31.8337078  36.5835915
  69.6577835  30.6994247  35.5819168  53.8282013  43.6501274  60.7267532
  54.4884109  44.3066139  60.5045395  53.5856705  43.2604828  59.8867607
  71.8966446  71.8233109  53.5098534  72.3536911  71.2837296  54.1549873
  71.1666946  71.2783737  53.2158356   0.3289067  66.1650467  50.5474510
   1.1276712  65.7215729  50.2619019  -0.0488673  65.5792084  51.2034302
  42.5714836  67.3756027  51.5094757  42.0145683  67.9969788  51.9784851
  42.7542305  67.8022919  50.6723518  45.8310089  18.6299210  22.1176929
  45.3597183  17.8084202  22.2564449  46.7158241  18.3598728  21.8719215
  10.6128311   0.7681221  17.3437786  10.2646494   0.7213950  16.4533768
  11.2718391   0.0748448  17.3799438  44.9496193  63.6430206   7.9954882
  45.0981522  63.8373070   8.9209194  45.5036049  62.8827629   7.8184485
   0.6273698  32.6849937  50.6594353   0.8300303  31.8788757  50.1847420
  -0.2534413  32.9198761  50.3674850  78.9740295  58.2630386  59.7252655
  78.2711945  58.0751648  60.3473167  78.8207092  59.1690254  59.4571037
  68.0970612  39.1015511   1.1562446  68.2635040  38.9727821   0.2224637
  67.2223282  39.4885368   1.1924779  56.3750458  16.7236443  12.6165848
  56.5070000  15.7756348  12.6264315  55.4272041  16.8327484  12.5396214
  85.5178146  12.9873981  45.0064011  86.3387756  13.4618425  44.8754005
  85.7853851  12.1382437  45.3579292  28.1354771  40.1829948   2.8976529
  29.0367355  40.2746391   3.2067883  27.9193859  39.2644539   3.0583358
   5.7526298  11.4158163  73.6691666   6.5453582  11.9323912  73.8139572
   5.2698421  11.4819622  74.4930420   8.1642656  61.9606476  59.0113983
   8.5807171  61.2818642  59.5424881   7.9392800  61.5194664  58.1922722
  48.4361916  28.1836739  68.5548859  47.7312737  28.6262817  69.0275574
  48.4476624  28.6028671  67.6944351  69.3479233  52.3008919  39.8857994
  70.2636566  52.2117004  40.1498184  69.2838287  53.1913605  39.5405655
  24.1935711  58.9811668  74.8534088  25.0073814  58.4846458  74.9394913
  23.9166756  58.8323212  73.9493027  59.0815125  35.9510727   1.3597057
  58.6239777  35.1576996   1.6380017  60.0087624  35.7492867   1.4850905
  67.5712891  30.1154995  47.3110619  67.3620071  30.9460030  47.7384949
  67.7977448  29.5262070  48.0305672  83.7177277   1.2215983   8.0936775
  83.1227798   1.9714433   8.0949850  84.3829575   1.4448006   7.4426165
  70.4747391  45.7645645  68.1915894  70.1840210  46.6762276  68.2158432
  71.3767090  45.7922211  68.5108414  79.4135895  39.4474831  25.1338444
  79.4977875  40.2666054  25.6218834  79.5427475  39.6991539  24.2193985
  82.2575607  68.3363571  57.4861565  81.3163300  68.3217468  57.3126335
  82.4919662  69.2639771  57.4577904  54.4148750  56.7606468  17.1387997
  54.9597511  55.9742813  17.1076775  54.9393463  57.4328232  16.7036724
  85.9890594   3.4741220  22.2296810  85.1286621   3.2252414  21.8920288
  85.8303299   3.7009015  23.1459827  23.5682621  44.0891266  84.1129913
  23.9686775  43.2262611  84.0064163  24.2356091  44.7025070  83.8053513
  18.9826450  37.7081566  80.4778061  18.1051598  37.6429100  80.1009827
  18.8917751  38.3437004  81.1877747  75.9369736  33.3447571  69.9621048
  75.6785126  32.9449768  69.1316757  75.5260925  32.7960854  70.6302032
  37.2733879  41.7074738   8.1496687  37.7461739  42.4662552   8.4916592
  36.4333496  42.0607414   7.8568106  18.4609737  70.7844391  67.5371017
  17.5740910  70.4567413  67.6863785  18.3493595  71.5021057  66.9136124
  43.0757294  57.9022179  86.6594238  42.4604187  58.2032280  87.3280182
  42.9514618  58.5084915  85.9291992  42.8883286   2.2519026  18.0427856
  42.0298805   1.8293464  18.0155010  42.9464874   2.6193604  18.9247284
  54.4929810   6.6904864  -0.0990073  54.1921577   5.7822437  -0.0701410
  55.2525673   6.7098241   0.4831316  47.6179733  61.0427170  33.0823364
  48.1710663  60.3154793  33.3677216  47.8673248  61.1895599  32.1699257
   7.4153585  30.2655258  22.8836079   7.9753017  30.7999020  23.4467564
   7.9798613  29.5479412  22.5961361  83.6774063  12.4415255  14.6148491
  83.4339676  11.5733061  14.9360380  83.2575989  13.0487185  15.2241993
  25.7906761  20.5186634   2.7774174  25.5818176  20.3992920   1.8509403
  25.0563145  21.0245934   3.1252365  60.7187614   4.4201131  53.0842285
  60.9207802   3.9929211  52.2518082  59.8575783   4.0790782  53.3256645
  27.6853828  38.7250443  17.7222195  26.9183578  39.1313744  18.1257038
  28.1058273  39.4355240  17.2377872   1.3381221  31.4341831   7.2049184
   1.4800485  31.8121605   8.0728025   2.1525414  31.6066418   6.7324662
  55.5216293  31.0835571  86.2281418  56.2418900  30.4532185  86.2165833
  55.1567879  31.0142040  87.1103592  20.1798782  63.0654602  27.6810913
  19.3409538  62.8392029  28.0826454  20.1359692  62.6847954  26.8039360
  13.3116474  63.7625694   4.6697993  12.6134243  63.1078606   4.6784849
  13.9587011  63.4145432   4.0562601   8.2294807  49.4584160  41.9670525
   8.2603903  50.1112595  42.6663895   8.3009558  49.9682770  41.1601067
  56.0859604  39.7779808  18.9580517  56.7945633  39.1344948  18.9522896
  55.8465424  39.8788681  18.0367851  17.3364410  62.4092216  51.5375786
  16.6985035  62.4055901  52.2511978  17.1416512  61.6162148  51.0381470
  21.2658749  26.2735424  18.2550373  21.3771591  26.4780178  19.1834965
  20.3191032  26.1931992  18.1392822  86.0559311  10.1850042  33.1090546
  86.7934952   9.9061050  32.5664291  86.4099960  10.2140598  33.9978867
  84.5114441  41.6893234  25.6169758  84.6950150  41.2258263  26.4341087
  83.5746155  41.8817978  25.6560402  53.0626335  59.5065994  31.7274799
  52.9228363  60.4494705  31.8151455  52.7007484  59.1349945  32.5319557
  69.4309616  52.4004478  19.2136211  69.1664886  53.3196564  19.2503433
  69.8980789  52.3186493  18.3821526   5.1059518  50.2297707  71.1955872
   4.5488601  51.0059509  71.2540970   5.4494419  50.2482758  70.3023300
  44.3598289  23.2981949  18.4620457  44.1812973  22.5082798  17.9517612
  45.2940521  23.4612217  18.3321056  41.0340538  27.8261337  86.1822586
  41.8184052  28.0188560  86.6959534  40.3413620  28.3359718  86.6023483
  78.5107956  58.3894310  20.8981781  78.1903229  57.6609077  20.3664055
  78.7517090  57.9885445  21.7333317  66.4075699  15.5489721   8.2775259
  66.7867203  16.3588200   7.9360232  65.9374161  15.1723194   7.5336714
  37.7794418  39.9286575  28.8448238  36.9455223  39.7750206  29.2888985
  38.1511421  39.0548515  28.7242546  23.4962177  45.4951859  55.8975639
  23.1191044  45.6907387  55.0397911  22.7715263  45.6163368  56.5110588
  49.7002296   3.2776036  87.9652557  50.5327187   3.4671564  87.5325165
  49.7416801   2.3424270  88.1651459  68.8584137  22.1910648  78.9663620
  68.3227005  21.7847157  79.6476288  68.5213394  21.8271446  78.1477203
  86.0996857  22.7122116  56.9701004  85.5592651  22.1756325  56.3902206
  86.9645538  22.3033257  56.9377899   1.9118515  57.8654327  25.4877281
   1.6251162  57.3464241  26.2391586   2.2627606  57.2219467  24.8720798
   7.5973892   2.7705398  76.6675491   7.0931039   1.9574329  76.6955719
   7.0047479   3.4062250  76.2664108  69.0988159  21.4963512  12.3104630
  69.7457199  20.8627224  12.6207209  68.9573669  21.2643471  11.3926401
  53.4574203   2.5780253  36.9594498  54.4107018   2.5570948  36.8754654
  53.1532707   1.8492138  36.4185638   5.7303505  62.5421448  63.1803627
   5.6810255  63.1340637  63.9309807   6.0398231  63.0927162  62.4611053
  80.4527588  64.5352707  82.2895432  81.1991806  63.9491539  82.1648026
  79.8351746  64.2862701  81.6019211  49.6103783  64.1033401  50.0194168
  48.9443054  63.7255173  50.5937271  49.8042526  63.4098091  49.3888168
  13.4493122  29.6223125  13.0824690  13.1532898  28.8510723  12.5989504
  14.2699327  29.8712196  12.6571941   7.6813622  10.9610910  65.2154846
   7.5385699  10.1818485  64.6782455   8.5305882  10.8128633  65.6315079
  84.9577179   5.6541562  30.3525963  85.0677795   6.5880222  30.1736755
  84.3597641   5.6222057  31.0993652  25.0588150  66.8138046   6.8455191
  25.1456718  66.4502182   5.9643316  24.8267479  67.7316208   6.7041168
  48.1521454  46.3969498  12.7594175  47.7023811  46.3459358  11.9160080
  47.5085411  46.7870674  13.3508644  76.0146790   0.6304109  25.1100063
  75.9264755   1.4047059  24.5542011  76.5082550   0.9366682  25.8708096
  26.1198444  12.2967434   1.1610738  26.7076359  12.4423370   0.4197668
  25.9924030  13.1664171   1.5400946   9.5017366  32.8447037  61.6624870
   8.7315073  32.4826469  61.2244339   9.3047457  33.7760658  61.7624321
  27.5958176  61.1995125   9.6379271  28.1566944  60.6407890   9.0998964
  28.1418915  61.4360695  10.3876438  74.6455688  40.3326607  24.2082596
  74.5971222  41.1135216  24.7597446  74.1715927  39.6621895  24.7002430
  84.4171295  41.8973007   4.4399776  84.4944305  42.0425110   5.3829360
  85.2987976  42.0517120   4.1007924  47.7120018   1.5654442  85.7318954
  47.6994705   2.4544733  85.3773499  46.9524117   1.1387497  85.3354340
  84.4676208  55.6351280  18.7439404  84.7302399  55.4247856  19.6400509
  83.5861893  55.9979362  18.8315830  73.7812805   4.4323950  28.6469898
  73.7283173   4.9910016  29.4224815  72.8699188   4.2923298  28.3900127
  11.1535969  38.1137810  33.8431702  11.9394894  37.9083481  34.3495331
  10.7129145  38.7951927  34.3508186  17.5790329  34.4719963  81.8947144
  18.4389915  34.4000053  81.4805603  17.4675369  35.4092636  82.0538483
  63.7567253  19.8737144  54.3057213  62.9537315  20.0080338  53.8023376
  63.7789536  20.6064491  54.9212189  67.3317795  49.3912239  60.2243958
  67.8239059  48.5928574  60.0329437  68.0035248  50.0549202  60.3809280
  58.1093712  25.9214993  18.3608418  57.5243950  26.1258850  19.0904045
  58.2987480  26.7701702  17.9606876  23.4224529  65.5152588  29.7769489
  23.7011223  65.6120377  30.6875572  22.4855347  65.3271179  29.8318977
  33.7208710  52.2455864  23.5004253  33.7540779  53.1012802  23.0727367
  33.8764534  52.4341774  24.4258747   8.3620758  22.3068218   6.3436456
   8.8441257  21.9514618   5.5969338   7.5570273  21.7900772   6.3768811
  81.7751312  65.6036758  84.5590134  82.7200089  65.7306671  84.6445160
  81.6623001  65.2248535  83.6872406  73.7450790  26.5423870  34.9248085
  73.9069214  25.7137718  34.4737663  73.6158600  26.2953796  35.8405151
  50.7097206  30.0852242  24.8862076  51.2524033  29.3080997  25.0196304
  50.5525665  30.4219437  25.7683372  62.9727173  10.0697412  84.1062775
  62.9106216   9.2359905  84.5723648  63.8537903  10.0699711  83.7321930
  76.0748062  24.1549664  22.0043049  76.9493103  23.7920628  21.8636971
  76.2191010  24.9171276  22.5651245  39.1912918  31.6884212  46.3907852
  39.6888695  32.4947701  46.2549438  39.3641205  31.1655579  45.6078529
  67.4735641  18.5137672  50.9951134  67.8430023  19.3160095  50.6261215
  67.1320496  18.7781601  51.8493347  70.0776291  16.0048771  21.5171661
  70.8297424  16.5514717  21.2895966  70.3703842  15.4979029  22.2744656
  72.0208588  49.6799927  65.7249527  71.7128143  50.1081009  66.5237427
  71.2739716  49.1597481  65.4287415  81.3782959  14.0332289  47.0653954
  80.7198486  14.7021856  47.2529449  81.0581436  13.5967150  46.2759705
  77.3273697  25.9539185   1.8496518  77.6996613  26.3383255   2.6432891
  77.0948563  26.7062531   1.3054440  80.7474899  10.8435583  60.8427238
  80.1109238  10.1440687  60.9901581  80.2288666  11.6478004  60.8642006
  75.7192535  14.3039150  69.7123947  74.9180374  14.7954016  69.8932724
  75.9318466  13.8783302  70.5430069  36.0690689  70.0567169  55.4123001
  35.8455772  70.9631042  55.6238327  35.9620743  69.9989777  54.4628525
  83.1359177  15.1009665  63.4152527  83.7997513  15.0098648  64.0988083
  82.5682831  14.3387604  63.5295372  23.6040344   5.8202810   2.6699693
  22.6567478   5.8693342   2.5416195  23.8783550   6.7307620   2.7795374
  56.6612129   7.4893370   1.5557028  57.2136841   8.2693739   1.5052078
  57.0656967   6.9530921   2.2376604  62.2399025  60.2604561  59.3715439
  61.4868774  60.3799591  59.9502563  62.1997566  59.3396263  59.1133003
   8.9107380   4.6221352  21.9802227   9.3602295   5.3385215  21.5319157
   9.5859480   3.9546914  22.1020470  45.6135445  38.8317795  42.1139565
  45.4634514  38.7120361  43.0517044  44.7467232  39.0214272  41.7549515
  78.4060593  13.4855280  79.0482788  78.1045990  14.1363096  79.6821823
  77.9026260  12.6982174  79.2554703  11.8269787  69.7559357  45.2497559
  12.4374619  70.3529358  44.8171654  11.6085958  69.1090851  44.5788460
  53.3826408  54.7458954  33.4425888  54.0937195  54.7147179  34.0826111
  53.7746468  55.1501579  32.6685486  71.3268509  45.4508247  40.5772285
  71.3486404  44.5097504  40.7508202  70.7895584  45.5367317  39.7897224
  59.4085121   6.8447828  57.3128967  60.0454025   6.2639022  57.7290459
  59.5449905   6.7165985  56.3741875  29.1453438  32.2370186   7.8187075
  29.1835041  32.3529320   8.7680969  28.5749168  32.9427071   7.5139947
  24.9189491  52.9407272  87.0229416  25.2804337  52.2567978  87.5866776
  24.7749386  53.6833115  87.6095047  64.2265167  14.1011581  32.6660690
  64.3830795  14.2562885  31.7345886  64.0216217  14.9658718  33.0217628
  58.9949074   7.8275294  18.4581127  58.5154305   7.7787871  17.6310959
  58.3301010   8.0576525  19.1071949  66.4864349  13.3944206  83.2612915
  65.9526520  12.8754215  83.8629074  66.8958130  14.0583172  83.8161621
  79.6299362  63.0141373  39.0996361  79.4456863  63.0970230  40.0352707
  80.0178070  62.1438446  39.0080795  77.2607651  51.5398216  15.0293036
  77.3440399  51.2917290  14.1085720  76.3508987  51.3403511  15.2497540
  82.6042175  24.3833580   2.0985613  83.0345993  23.9804707   2.8526728
  81.7033005  24.0622768   2.1371741  51.3775291  21.9230518  69.1002731
  51.5906906  22.1406651  68.1928406  50.7488098  22.5940609  69.3661499
  12.5592947  37.1477547  80.0650940  12.0494576  36.6065254  79.4622955
  12.5250397  36.6764755  80.8975372  66.7213440  60.1150017  16.3573189
  66.6122284  61.0424538  16.1471844  66.3791580  59.6540146  15.5913973
  48.8483658  37.4872589   0.9950576  49.7292595  37.8606110   0.9656483
  48.3310280  38.1318550   1.4778531  16.6862392  17.1129189  20.4102592
  15.8179789  17.0512085  20.8084412  16.5414791  17.5891190  19.5926342
   8.6593456  51.5212936  16.8164616   8.3071899  52.1686897  16.2056446
   8.0613270  51.5466347  17.5634308   6.0578156  21.8478355  60.6630173
   6.4046845  21.3608189  61.4104958   5.5802422  21.1942863  60.1521072
  64.6055908  13.3786840  39.8875313  63.8137054  13.1995621  39.3805122
  64.8576355  14.2661886  39.6325035  62.3621826  68.5318375  46.4484138
  62.4987869  69.2010880  45.7778397  62.3884468  69.0127487  47.2756195
  18.7305107  63.7677269  23.3156338  18.6844559  64.6809464  23.0325489
  19.6632633  63.6084785  23.4600220   2.1329408  41.7821960  63.1511497
   1.8307459  41.2993584  62.3818817   1.8281865  42.6780052  63.0066299
  52.5125618   0.6027288  19.3600807  52.7951775   0.2355875  18.5224857
  53.3252449   0.8616806  19.7945004  66.4689407  51.8478928  81.5250549
  66.9043350  52.2642746  82.2688904  65.5350723  51.9749985  81.6923141
  77.0035477  25.0482883  45.3629646  76.2819519  24.4781284  45.6283760
  77.7283859  24.4494476  45.1834221  40.7744713  63.4208603  40.7903862
  41.1303902  64.1144562  40.2349777  39.9539833  63.1710320  40.3653946
  66.7145233  36.0368652  24.5359287  67.5009766  36.0389519  23.9902916
  66.4273224  35.1237717  24.5386524  31.0016251  11.6199121  84.0291061
  31.6348820  12.3182983  84.1948700  30.7561665  11.3075151  84.8999634
  73.0418701   4.6357708  51.3393707  72.4002991   3.9592111  51.1228485
  72.5499268   5.4556322  51.2940750  62.9614449  56.2857590  14.2198048
  63.6631088  56.4264221  13.5841036  63.2961235  56.6630821  15.0333443
  84.8408051  69.0254517  37.6773987  84.0361481  68.7891846  37.2159500
  84.9414139  68.3477097  38.3458061  55.5060043  55.4880409  70.8252563
  54.7563896  54.8978195  70.7481003  55.8102036  55.3724365  71.7254410
  49.9626503   4.9583554   5.4526687  50.2373199   4.2806315   6.0703082
  49.9832954   5.7687964   5.9615803  84.0727615  19.7336330  27.8143024
  84.9170456  20.1823044  27.7684822  83.9673462  19.5155907  28.7403584
  20.6959038  59.2796974  23.2653561  21.3948154  59.6713676  22.7415752
  20.1752815  58.7811508  22.6355648  43.4190140  40.6640549  73.4140396
  43.8580818  40.0817528  72.7940598  43.4520645  41.5255318  72.9981079
  16.5501652  19.1513062  17.8932476  15.7426853  19.3812618  17.4335423
  16.8178177  19.9614773  18.3270855  84.9648361  36.9629517  11.9309893
  84.3523026  36.3678055  12.3632269  84.5854263  37.8322487  12.0598335
  71.2681732  20.8155651  66.6153717  71.8826981  21.1881943  65.9831314
  71.8246994  20.4411488  67.2982483  72.8555069  54.1420860  23.6756458
  73.0769882  54.4510231  22.7971592  73.4299927  53.3895798  23.8168201
  23.0278683  32.6252594  78.9234848  23.4258766  32.9059677  78.0994644
  22.5100670  31.8550396  78.6892242  43.1469574  62.0582352   3.1315517
  43.8612061  62.4322739   2.6156325  42.4179420  61.9874039   2.5153089
  83.7993240  15.1251545  15.8225985  82.9749146  15.3914871  15.4156075
  84.4090118  15.8330040  15.6141195  72.6159744  68.9401779  78.2931976
  73.4934616  68.6706543  78.0218887  72.6492233  68.9360809  79.2498093
  28.1198330  68.4149475  28.2315044  27.5931587  68.1817474  28.9960079
  28.5095940  69.2594223  28.4577274   7.5897040   8.8715162  87.9343796
   8.2645159   8.2164774  88.1126633   8.0133419   9.7090607  88.1222153
  74.2465591  37.2997131  49.6135101  75.0074463  37.8768730  49.6779976
  73.4968567  37.8941231  49.5842133   1.3846966  26.3939056  70.4023514
   1.2535348  26.7636356  69.5292358   2.3268735  26.4673252  70.5544815
  78.2708435  34.3018456  66.0406723  78.1012573  34.3735580  65.1013489
  77.4224625  34.4700851  66.4507599  42.8083725  36.5570412  54.1662178
  42.5263557  36.2763596  53.2956352  43.7597122  36.6360245  54.0959167
  82.9505234  58.5305786  59.3444366  82.8165207  57.8264847  59.9788857
  82.9201202  58.0946045  58.4928284  77.2427139  17.0871487   3.2060587
  76.3146515  16.9959602   3.4219570  77.4380112  18.0092010   3.3731177
  68.8045044  68.4510651  19.8086224  69.5259476  68.9935608  20.1271381
  68.1684265  68.4543915  20.5239029  48.5734329  25.5157223  14.6201820
  47.9363785  24.8091469  14.5146227  49.2269745  25.1609135  15.2228661
   7.9575815   3.3348806   0.0938631   8.3738918   3.9019275   0.7429978
   7.1399555   3.7817433  -0.1253007  40.1002693  71.6900253  58.8410416
  40.5989952  71.8303986  59.6459007  40.6158905  71.0518417  58.3479958
   0.4655131  49.3232994   0.6413244   1.3600764  49.3606262   0.3028056
   0.0383728  48.6472435   0.1152730  10.1725998  54.0759430   4.3063273
  11.0006962  54.3467293   3.9098883   9.7144499  54.8964844   4.4880958
  31.1350422  44.6538315  15.6623154  31.7427197  44.1219559  15.1484385
  30.6660252  45.1770325  15.0123014  73.1084442  25.6578827  19.7138119
  72.8537064  25.5679455  20.6321011  73.1357117  26.6029358  19.5642738
  57.4624367  63.3889542  34.2441444  56.9902420  63.3484840  35.0757866
  58.3744316  63.5382576  34.4935532  60.2517853  14.3577108  88.0584259
  60.9039841  13.7594404  87.6938095  60.7657356  15.0741854  88.4309158
   8.4585352  45.3248825  49.5124245   9.1581116  45.7196846  48.9918900
   8.9153929  44.7842674  50.1568222  12.4223185  47.0766182  22.1969395
  12.2125778  46.3704643  22.8081570  13.3659744  46.9992981  22.0563412
  39.9972305  31.8608932  81.0236969  40.8635254  31.6184921  81.3508148
  40.1742630  32.4536552  80.2932663  32.7745209  57.7726746  85.1570816
  32.0474625  57.1703033  84.9997101  32.9378777  58.1785202  84.3057098
  48.7885742  20.9589119  34.0083771  47.9323959  20.7716484  33.6235123
  48.7359276  21.8768520  34.2745514  56.1986580  33.0011444  19.9432316
  56.6115913  32.1383057  19.9782505  56.2562828  33.2570686  19.0226822
  10.6633844  47.2966270  58.1935387  11.3489389  46.6337433  58.2761803
  11.0128851  48.0610313  58.6515427  65.7972336  35.1191864  32.2477226
  66.6063232  34.6230507  32.1234055  66.0066147  36.0003471  31.9379654
  12.8552055  24.6906948  10.8357420  13.6757784  25.0419273  10.4900150
  13.1073904  23.8752766  11.2690182   8.5720539  39.0391502  48.8169823
   8.6213369  39.9879341  48.7002907   9.1130409  38.8641205  49.5870018
  52.0815277  17.6202831  70.7285004  52.3024139  16.7245960  70.4731903
  52.3195877  17.6710796  71.6542358  71.7357712  68.4000320  24.8667698
  71.4922791  67.5354080  25.1974716  71.4372101  68.4014282  23.9573250
   4.7755280  54.9746475  48.2099304   5.2510667  54.9230537  49.0390472
   5.4416132  54.8144836  47.5414162  59.9161568  46.5235596  17.7565422
  59.0434990  46.2382736  17.4857845  60.1753387  45.8949471  18.4302673
  77.7918167   0.7774357   9.6182013  78.1379547   1.5919297   9.2534866
  77.4521637   1.0253462  10.4780893  62.9499359  55.1294250  55.0523453
  62.7328491  55.5641899  55.8770180  62.1276894  55.1209183  54.5623779
  23.6953068  60.3027267  63.9728508  22.8090191  59.9411774  63.9703979
  23.5880795  61.1974945  64.2955322  73.2149582   6.4473324  85.5474091
  73.9904251   7.0043559  85.6152725  73.5497665   5.6081467  85.2313385
  83.1433334  28.9986649  18.9076195  82.9634171  28.2769279  19.5100803
  83.4979019  28.5752945  18.1257782  33.6797676  24.6368237   1.6030619
  33.7783661  23.8062325   2.0684958  32.7468948  24.8402023   1.6710562
  46.9113998   7.8893719  13.2330055  47.8485374   7.8374958  13.4209099
  46.7866440   8.7695494  12.8781042  44.0950851  39.3694611  37.5872879
  43.2540894  39.0329704  37.8966904  44.0835190  40.2969627  37.8235931
  13.6404200  26.8610344  21.8391171  13.9135027  26.2143669  22.4898701
  12.9488821  26.4236774  21.3424015   3.3462420  53.3958435  16.0946102
   2.5098870  53.3465271  15.6316738   3.5689201  52.4845085  16.2846336
  13.9042835  13.7037268  85.3384552  13.3764877  14.2782936  84.7838898
  14.4817610  14.2978411  85.8178024  10.6052265  50.7790985  83.4722061
  10.3030834  50.7072258  82.5667877  10.6979256  51.7202988  83.6197662
  48.7281189  32.4131584  64.3046036  48.1314049  33.1231155  64.5415192
  48.6986275  32.3845711  63.3482857  64.6285324  46.3563309  70.8747330
  64.6925964  46.0368843  71.7747803  63.9300652  47.0102730  70.9018250
  54.0805511  66.8542938  18.3092365  53.7967758  65.9410858  18.2672615
  54.1328278  67.1311493  17.3944416  31.3101292  46.4551544  10.1041203
  31.6510754  47.2057266  10.5905638  30.3757286  46.6379890  10.0056305
  63.1612434  11.8627987  11.6665249  62.3961334  12.3438206  11.3511591
  63.7256699  11.7800255  10.8978853  47.6749611  43.9144707  15.0802698
  48.1054115  44.5081635  15.6954699  47.3871422  44.4797707  14.3634520
  37.8340340  60.5001717  54.7301559  37.5751534  61.4055138  54.5582008
  38.2472153  60.2105942  53.9167328  71.3322678  57.3547897  34.7397575
  71.4701309  56.8771057  35.5577087  70.4007263  57.2420769  34.5506554
  51.7430115  53.8270760   4.8146553  51.7110367  52.9167519   4.5205154
  51.0932045  54.2763786   4.2741861  47.7887115  57.7348213  16.0199261
  47.1169701  57.2843666  15.5079832  48.5143471  57.8573265  15.4078188
  54.8695145  37.0966492  33.4407310  54.1719322  37.7020073  33.6920280
  54.4224434  36.4056206  32.9520226  46.8097687   7.4512291  27.3101501
  46.4620628   7.8516531  26.5132847  47.5053520   8.0449963  27.5927105
  31.3781185  42.0719757  32.3037910  31.9727573  41.8642616  31.5830345
  31.4517918  41.3250885  32.8978996  74.2381744  69.0532074  60.8220215
  73.5537949  69.4721909  61.3438530  74.4070969  69.6695175  60.1093788
  77.8861847  58.2595406   2.4272082  77.2137299  58.2391396   1.7463101
  77.4035110  58.4329720   3.2354028  71.7414703  56.7142677   5.4655857
  71.2304459  55.9351120   5.6846757  71.2122574  57.1719208   4.8123446
  52.0419464  36.9563599   3.0336068  51.3161850  36.7674065   3.6284177
  51.8514099  36.4387894   2.2512727  78.6832886  31.9916744  59.4065132
  79.5933533  32.2855225  59.3657303  78.7405777  31.0679703  59.6508942
  45.6850319  62.4246407  50.2396889  45.6733055  62.7857018  49.3532753
  45.3797951  61.5234413  50.1352806  14.5752535  34.3140907  68.4948120
  15.4897823  34.5025101  68.7054367  14.4043722  34.8169479  67.6984634
  74.2138596   8.4737749  78.2575607  73.7546158   9.2565546  77.9532928
  74.4420547   8.6681261  79.1666183  21.8426170  46.0835075  33.7831078
  22.7929420  46.1573601  33.8706169  21.7152214  45.5392227  33.0060921
  58.9213486  43.2300301  49.7694893  59.6044044  43.4569817  50.4004860
  59.2997894  42.5190964  49.2521973  53.9303322   9.3275490   9.7734823
  53.3641701  10.0930853   9.8716793  53.5326004   8.8251324   9.0624142
  68.7596817   6.6742129  33.4991188  69.5764694   6.9211884  33.0654182
  68.3458862   6.0562434  32.8965302  74.0110550  52.9658089  48.5581665
  73.9651031  53.2014122  47.6315536  73.8315201  53.7834320  49.0223770
  57.0572853  18.7291565  36.8965759  57.4189262  19.5758762  37.1583290
  56.1886902  18.7052555  37.2980766  51.7135124  55.3748817  29.5782871
  52.0386047  54.4826889  29.6988659  52.3170357  55.9199829  30.0831184
  13.5473032  19.1749821  12.4673405  12.7848721  18.8189831  12.0110569
  14.2981939  18.8300114  11.9842358  65.1413574  23.0005531  67.8006973
  65.3931274  22.6201782  68.6422195  64.4297714  23.6041908  68.0139999
  85.9269409  50.9432907  82.0097809  85.0801392  50.7559090  81.6047592
  86.4576187  51.3039436  81.2994690  35.8540916  64.6901169  67.0484314
  36.2944031  64.3860779  66.2547607  35.4024925  65.4903336  66.7802048
  18.6520214  15.4447737  69.1670609  19.4011345  15.9719467  69.4448166
  18.9678917  14.9642019  68.4018707  11.6092033  10.6390381  28.8954391
  11.3847666  10.0846252  29.6427593  10.8245201  11.1658344  28.7438164
   8.0368958  48.5606804  61.4602890   8.0415869  49.4971848  61.6582069
   7.1582847  48.2688866  61.7034569  73.1909561  45.4599152  31.9737606
  73.6869202  45.8931770  32.6684074  72.2743073  45.6180420  32.1995621
  57.9685822  61.9578705  87.5193329  57.4281731  61.3279533  87.9961929
  58.2548981  61.4847450  86.7380447  49.4820900  61.8744240  72.5829239
  49.3117676  62.7982178  72.7668381  50.3570061  61.8648376  72.1947708
  17.6350269  53.9408951  10.2902975  18.3533611  53.6733246  10.8635626
  17.8529606  54.8375359  10.0357952   8.1912651  35.6761131  69.6430054
   8.2879601  34.9015884  69.0889359   7.8535547  35.3369522  70.4719543
  33.2921791  33.6030884   5.1799073  33.3588867  34.3604927   5.7613883
  32.3523483  33.4341698   5.1134725  47.6297760  50.9541779  57.5577965
  47.2257538  51.6541138  57.0448761  47.0774612  50.8779907  58.3358536
  48.4964638  16.0069218  74.7930298  48.0595512  15.2122908  74.4866028
  49.0482826  15.7125854  75.5176697  23.4715443  70.7195129  59.9059486
  23.1607666  70.2798309  60.6973534  24.3459587  71.0346375  60.1347084
  30.7639542  14.7453871  80.0948029  30.5465240  14.0121613  80.6704178
  30.1779709  14.6430979  79.3448715  41.5399704  56.4168663  69.1217270
  42.1058350  56.8768959  68.5017242  41.9399300  55.5522499  69.2150040
  53.7681847  59.8711662  48.2704353  54.2172012  59.3773460  47.5843163
  52.8574295  59.5815048  48.2170296  43.3227119   3.3894930  20.5671234
  44.0497627   3.9023738  20.9200840  43.2983971   2.6024292  21.1113396
   4.3185496  53.6672630  21.7781143   4.8381987  54.0175781  22.5016308
   4.1825051  54.4153976  21.1967201  67.8458023  34.3612823  45.6257057
  68.6107101  34.2717552  45.0572586  67.4613342  35.2024994  45.3791847
  30.9590015  70.1131210  10.9495869  31.3967628  69.6701279  10.2227077
  30.6264343  69.4024429  11.4978237  10.6051931  53.3626480  44.4455414
  10.2994118  54.1690025  44.0301857  11.4791708  53.5776100  44.7714043
   1.1544681  46.6271820  85.1174545   1.9739192  46.8917503  84.6994400
   0.5241517  46.5774651  84.3988037  60.7210007  63.3191452  61.4067230
  60.5130653  63.1643829  60.4852867  59.9357338  63.7347107  61.7629433
  42.8901024   3.7708573  62.8633003  43.6588898   3.9669001  62.3277969
  42.1571083   4.1490068  62.3775482  34.6793137  38.9015427  69.7271729
  34.0904274  38.6154022  69.0289078  35.5229988  38.5075035  69.5054474
  65.9829712  37.8750343  68.2845993  65.6974945  37.1216316  68.8014374
  65.3830795  37.8951378  67.5389786   6.4429026  30.8259087  11.2329369
   6.7961679  30.7378559  12.1181955   5.4992557  30.7050018  11.3385000
   4.8921227  47.1198540  54.6886482   5.4438601  46.4790649  54.2400818
   4.5589571  47.6809731  53.9883766  61.4419098  32.3284531  39.4702988
  60.9672813  32.5676880  38.6742287  61.9162865  31.5308380  39.2357559
   5.3495274  54.1493073  59.9908524   4.5443726  53.7020721  59.7302055
   5.1568079  54.5027618  60.8592796  22.0312748   9.9784012  62.3958015
  21.9956284  10.9256124  62.2625618  22.8827438   9.8260679  62.8057137
  45.3967628  49.4286575  10.0332775  45.3944550  49.0234604   9.1660757
  45.0594215  50.3122063   9.8857079  51.1559448   6.1312342  52.8047066
  51.5290642   5.2733989  52.6018944  50.4791641   6.2611799  52.1403923
  46.5463905   0.8852887  10.9644108  46.8025780   1.7187068  10.5694246
  46.1972809   0.3721483  10.2356853  18.7382431  56.6446190  88.2849655
  19.4963799  57.1599426  88.5604706  19.0554295  55.7416420  88.2689743
  36.6007080  48.8221207  72.3008957  36.9335060  48.2751236  71.5893631
  37.3608017  49.3265038  72.5908661  24.5381508  65.0916901  82.1342316
  24.6086884  66.0009308  81.8434753  23.6035957  64.8932419  82.0754242
  21.2686901  13.7760401   8.7081881  22.1899338  13.5268831   8.6342793
  21.1199646  13.8670912   9.6493692  33.6782608  14.6948786  78.7417603
  32.8576393  14.7636509  79.2296982  33.9533691  15.6017008  78.6067734
  72.7195435  64.0354767  75.6366196  72.5287399  63.9312057  74.7044373
  73.0399704  64.9339066  75.7164764  34.4935417  70.2910614  50.1358604
  34.1146164  70.8316650  49.4427567  33.7377167  69.9526901  50.6159286
  24.3051872  59.4069061  26.3490849  24.9405174  58.6950989  26.4260025
  23.5065403  58.9823036  26.0358639  61.2065010  34.8965263  18.9611511
  62.0349197  34.5601540  19.3029270  60.7529411  34.1223373  18.6277733
  75.8322449  26.7233829  86.3737640  75.6484222  27.6627598  86.3704987
  75.1383514  26.3454170  86.9140244  44.7888489   3.2155406   5.3425522
  45.5779343   2.6784725   5.4142003  44.7502365   3.6960058   6.1695309
  79.6295471  33.7626076  62.1967201  79.4718628  34.7010231  62.3003998
  80.4972992  33.7083435  61.7963676  31.4640808  50.0568542  23.8566208
  32.1733322  50.6973763  23.9106827  31.5633469  49.5225067  24.6445618
  56.1945686  36.8901634  49.9141769  56.0890617  36.8167686  48.9656448
  55.4001770  36.4962349  50.2747231  35.3665237  48.2793121  32.3105621
  35.3393021  49.1852722  32.6183434  35.9800949  48.2942314  31.5760288
  56.1166840  19.0159035  33.9313469  56.1895409  18.8903885  34.8774796
  55.5397072  18.3099709  33.6398163  52.0119286  10.9706230  34.2682190
  52.0823021  10.3267365  33.5634575  51.6501160  11.7495995  33.8456993
  62.8757935  51.4871330  45.6861649  63.0596886  50.9367905  46.4474373
  62.0622520  51.1338921  45.3261642   3.2118855  39.4870911  58.0644226
   3.8401895  39.1672134  57.4170113   2.3680403  39.1459351  57.7681656
  37.1819000  65.0320206   2.7984834  36.6939430  64.8876419   3.6092134
  38.0063400  65.4270096   3.0822492  61.4517975  18.0610943  45.4759865
  60.7902679  18.7086887  45.2326126  61.0619659  17.5842171  46.2086906
  31.1042137   7.3866191  87.1434555  31.8111019   8.0293789  87.2017746
  30.3036594   7.9009185  87.2475662   5.7722692  40.5475159  62.6544495
   5.2345805  39.7604599  62.7420273   5.4424787  41.1393433  63.3306236
  82.4575043  67.0476990  48.8375702  82.2709503  66.2620316  48.3236160
  83.0123749  67.5804291  48.2678757  80.9042435  64.5489960  65.7420349
  80.5229416  64.0159531  65.0443954  80.1631699  65.0339661  66.1051483
  51.5955849  41.5334969   1.1695995  51.6032219  42.2701225   0.5584074
  52.4443207  41.5787544   1.6098586  16.3432922  30.2860279  74.5593796
  15.4481812  29.9618168  74.4598999  16.2871723  31.2157764  74.3388138
  61.0940094  69.9839554  56.3965530  61.4182358  70.2427673  57.2591820
  61.4712677  69.1166687  56.2491951  79.0055237  62.3039627  87.0988922
  78.6423950  61.7539024  86.4047775  79.8340988  62.6239777  86.7421188
  63.2391052   4.6674314  21.2380371  62.5862122   5.0601730  21.8174496
  63.0858536   3.7251983  21.3083458  66.7386551  40.9863319  53.9013329
  66.5123825  40.0927200  53.6434784  66.0146027  41.5204735  53.5747108
  10.2790089  30.1456032   4.9797778   9.4480515  30.1912956   4.5068564
  10.1600103  29.4302273   5.6045237   0.3248631  10.0185308  67.3285217
   1.1166403  10.2925014  67.7914047   0.6061855   9.9018860  66.4210587
  22.2626591  46.6797714  69.5031891  22.4572964  45.7572441  69.3379974
  22.6088295  46.8442574  70.3803101  29.6776886  66.1572418  50.4786339
  29.1595249  66.9342041  50.6885490  29.3742771  65.8946152  49.6096115
  55.8878593  24.0357075  28.6647396  56.0981827  24.9416981  28.8909645
  55.1552925  24.1055679  28.0526123  73.9097290  45.2370491  87.5290833
  74.0968323  46.1332550  87.8084412  73.5102005  44.8257446  88.2955246
  31.0198460  57.7041206  68.5969391  31.8248787  57.6785736  68.0797348
  30.3858337  57.2093925  68.0778046  42.3969994   3.5865884  14.0973692
  41.7561798   2.9556174  13.7695675  43.2000694   3.0773792  14.2069826
  47.1064873  37.1565056  36.0602684  46.6128464  37.7227249  35.4670181
  47.3259468  36.3892021  35.5317650  12.9641399  54.1302834  46.0261841
  13.5695610  53.7099075  45.4154625  12.9690619  55.0529327  45.7713776
  28.0184250  66.0008392  85.4318390  28.1460133  65.6625900  86.3181458
  27.2897530  66.6162186  85.5129166  57.5187454  43.7293968  27.5054684
  57.4113998  44.4652252  28.1081829  58.3567963  43.3381119  27.7520447
  28.8206196  33.2731781  69.8363724  29.6619873  33.6175842  70.1358948
  29.0518017  32.5909653  69.2059937  74.6694336  56.5167542  29.0686951
  74.3605118  57.4073143  28.9022408  75.4866638  56.4504852  28.5747681
  62.8833389  62.8780136  73.0366058  62.7754211  62.7614861  73.9805374
  62.9296608  63.8264694  72.9161072  60.8028107  33.6098747  24.2546101
  61.5701256  33.7702789  24.8039112  60.3269920  34.4404182  24.2593746
  22.8557949  52.6346779  43.4518013  22.0951309  52.8799019  42.9250298
  23.6042976  52.7768326  42.8723450  76.1975937  51.2174721  70.8710861
  76.8380203  50.9532089  70.2105942  76.0037537  52.1317749  70.6644287
  45.8491669  50.4879379  75.6491089  46.5673981  50.9641647  76.0657425
  45.3297043  50.1512375  76.3791962   2.5242047  43.9440193  50.2264900
   3.1069229  44.5641518  49.7881889   3.0263929  43.1300735  50.2655945
  19.7145901  28.6788387  84.9898376  19.1080303  27.9713707  85.2084808
  20.0621815  28.4393768  84.1307297  22.4879494  53.5825157  25.8317280
  22.6970558  53.9989929  24.9956360  21.9351864  52.8373032  25.5964775
   8.3654547   1.8095912  11.7838793   8.6281958   2.5537925  11.2422495
   8.0350199   1.1637306  11.1594524  72.9548035  45.0560760   5.4002147
  73.6128006  45.2496452   6.0678935  72.2230759  45.6365433   5.6096783
  44.5918617  30.1826420  65.4554672  43.8949890  30.4934254  66.0334015
  44.6742668  30.8662434  64.7905350  50.2838593  11.5043926  87.1065826
  49.8059692  11.8784580  86.3663635  51.1126556  11.2072201  86.7310562
  36.2901878  68.1131058  81.7849884  36.3631020  68.3039856  80.8498535
  35.9665680  67.2130051  81.8211899  64.4632263  42.4359970  53.5113220
  64.4207764  42.1674881  52.5935364  63.7618599  41.9434853  53.9376450
  69.5592194  16.6779976  51.6732674  69.1775894  15.8479681  51.3875504
  68.8821793  17.3290043  51.4887848  75.9260178  58.0157623  44.7167511
  75.0688934  57.6968575  44.9993706  76.4354324  58.0813370  45.5244827
  81.8649368   3.7766676   7.7932773  82.2444534   4.5805178   8.1482792
  81.5471268   4.0248909   6.9251704  27.7822495  60.3121262  40.0935555
  28.6467724  59.9519730  39.8957596  27.1917019  59.8634529  39.4884262
  41.7982101  58.8162727  49.5207024  41.1224823  59.4483070  49.2754288
  42.0670662  59.0822220  50.4000282  32.5688324  42.9974594  65.1556778
  33.1963005  42.8533745  64.4473343  32.0731735  43.7696686  64.8832016
  38.2001991  69.2867432  32.5981903  39.1171341  69.4006271  32.8481712
  37.7090645  69.7708054  33.2620468  68.9389496  44.6849823  22.5207787
  68.8946686  45.5526199  22.1189404  69.7797165  44.6755142  22.9782238
  79.2204437  53.8980064  86.7145081  79.8215179  53.2044067  86.9862747
  78.7948837  53.5523186  85.9298859  25.3152370  54.5300102  83.3347931
  24.4701729  54.1047516  83.4805832  25.0974636  55.4495087  83.1820602
  48.7403450  37.9860764   5.0390134  49.5549278  37.4914589   4.9493408
  48.3470573  37.6554642   5.8466344  80.4138947  14.9602194  65.8499374
  81.0593109  15.2119789  66.5104599  79.5786285  15.2682905  66.2015839
  51.9995766  22.9049511  87.3888931  51.1297226  22.6985683  87.0468521
  52.5147285  23.1290073  86.6138840  23.8236904  20.3334427  62.5355034
  24.2544956  20.2008572  61.6910744  23.2927799  21.1203709  62.4125900
  61.2206612  18.6131363  26.3116093  61.7426338  17.8385048  26.5207062
  60.4657135  18.5585461  26.8975334  57.6393585  45.5672417   7.2578478
  57.4315758  45.0643272   8.0453339  56.7873001  45.7728043   6.8731775
  52.6430893  58.6929398  64.3446503  53.5324287  59.0468712  64.3387146
  52.7229080  57.8521690  64.7951736  58.5560074  53.8823547  42.2194710
  57.6158485  54.0084763  42.3476448  58.6224594  53.0700302  41.7175369
  42.0738792  62.4429588  37.3519783  42.4092293  61.9889565  38.1250610
  42.6918335  62.2193146  36.6560287  64.2777176  47.5479469  53.5912590
  64.9316254  47.8364143  52.9545326  64.4295273  46.6071281  53.6809921
   6.9952245  33.9169540  63.9502449   7.4191022  34.3092613  63.1869278
   7.7079601  33.4936066  64.4288025  65.6645889  11.5733261  18.1052876
  65.6910858  11.4049234  19.0471840  64.7333984  11.6683969  17.9050808
  27.8708954  25.0083599  41.8111076  28.3669338  25.6363277  42.3363075
  28.5393333  24.4891224  41.3641014  19.2037487  22.5402317  15.5206499
  18.8506393  21.6894665  15.2603741  18.5019093  22.9450855  16.0303020
  42.1219826  66.4732895  41.8538589  42.7065697  66.3812943  41.1015091
  41.7587891  67.3547974  41.7685890  46.6812401   5.1541314  75.4768677
  45.9403038   5.0539269  76.0745316  47.3970833   5.4625950  76.0324326
  53.1146698  36.0441856  84.3792648  53.2146225  35.0926285  84.3513336
  52.6770935  36.2146683  85.2133484  63.1733742  62.0094337  51.8446884
  63.5386696  61.1388931  51.6867142  63.7125969  62.3714561  52.5478325
  54.6304932  35.7567444  65.6908340  54.0633888  36.4307060  65.3161392
  55.1749802  35.4676361  64.9585953  23.3768806  46.5865021   7.1353774
  23.3115082  46.9208260   8.0299091  24.0191460  45.8789062   7.1904802
   5.7955341   1.8370887  72.1582794   6.6656642   1.7608896  72.5498199
   5.9449739   1.7271495  71.2192307  82.4229279  34.3480949  51.4784355
  82.5365372  35.2905807  51.3557777  81.8852921  34.2722397  52.2667389
  61.0217209   9.2383022  19.6353416  61.7449074   8.9579382  19.0744209
  60.3306236   8.5959501  19.4741058  51.2634888  51.3538513  59.0865517
  51.7275734  51.8859444  58.4402275  50.4406319  51.8200417  59.2342186
  30.7350807  58.7153893  31.4989262  30.4052448  59.4974480  31.0564022
  31.1899853  58.2261848  30.8133812  41.8471909  63.7144279  74.7146988
  42.6418648  64.0527267  75.1273499  41.1548233  63.8838501  75.3535690
  72.1608124  17.3938980   8.1208239  72.3669815  17.2941418   9.0502176
  71.9510422  16.5078621   7.8255773  20.6129627  23.8558807  10.5757694
  21.0279522  22.9994526  10.4730711  21.2702370  24.3883400  11.0237751
  60.0875053  38.7551575  60.6745377  59.2167244  39.1379013  60.5673866
  60.1598129  38.1209717  59.9612274  67.9465637  57.9322319  11.2799187
  67.0111084  57.7784996  11.4123363  68.2848206  57.0939903  10.9650106
  19.1021729  14.1630516  84.1169510  18.6396904  14.0324068  84.9447632
  19.3589935  13.2821302  83.8444595  46.8125954   7.0142522  65.1122971
  46.9964104   7.9276137  65.3318787  45.9699326   6.8327742  65.5284882
   3.6029813  11.1271830  17.4477959   3.9504292  11.0549908  16.5588074
   4.0004902  10.3958616  17.9204330  62.2763329   0.4666622  22.2812843
  62.0336075   0.2837390  21.3736210  63.1458969   0.8622990  22.2215977
  26.4457188  59.8472557  66.3298721  27.1538925  60.2438660  65.8225098
  26.3721352  58.9578514  65.9837875   6.7268782  62.9092064  67.7402573
   5.8588214  62.5058899  67.7334137   7.3346162  62.1699333  67.7212982
  85.4962921  55.4669876  76.2203064  85.5703125  54.5416336  76.4536972
  85.0009613  55.4685364  75.4012375  57.7169991  58.4183273  29.6397343
  56.8076210  58.6363220  29.8440456  58.2334251  59.0379753  30.1550694
  49.3730049  45.4036407  85.1661682  49.5894165  46.2513809  85.5544128
  48.7316742  45.0223198  85.7657700  57.3972435   9.3228960  62.1728287
  58.2335892   9.6648617  62.4887695  57.4377022   9.4313812  61.2226562
  51.7809563  65.5111618  55.5882721  52.3973160  65.8886032  54.9606781
  52.2707977  64.8052216  56.0100822  44.8579254   4.2371502  61.0506897
  45.5324440   3.5628438  60.9696541  45.3302155   5.0134106  61.3516808
  44.1308899  48.8654327   4.8948841  44.1740913  48.1128426   4.3049903
  44.6645241  49.5355072   4.4677262  71.0784531  57.8665085   2.7031755
  71.8869705  57.5894051   2.2721939  71.1141663  58.8229103   2.6872025
  21.7548103  26.4204330  70.2547302  22.0177650  26.0235462  71.0851364
  21.1668015  27.1329308  70.5053864  79.4611206  34.1213264  46.5080643
  80.3324738  34.3619118  46.8228493  79.5881500  33.2786674  46.0721550
   7.4353352  44.4947510  23.7756500   8.0171528  44.4223022  24.5322685
   7.7188668  43.7947350  23.1875858  77.0691452  54.4299965  67.2391739
  76.9193802  53.8824234  66.4684830  77.8737793  54.0845146  67.6257553
  26.0193405  66.0228729  25.5033398  26.1408672  65.8562088  24.5686283
  26.9049854  66.0091248  25.8662109  35.4127655  64.9003754  59.8520508
  34.8372078  64.7190323  59.1090240  36.0367661  64.1745300  59.8543854
  22.3593388   1.1377627  37.7369423  22.5244312   0.8808193  38.6441116
  22.8983822   1.9180267  37.6071243  60.7219658  71.0192642  84.1171341
  59.7736168  71.0038528  84.2460785  60.9659081  70.0984497  84.0232239
  71.6797485  54.9314232  39.2491150  71.2784271  55.5085373  39.8988152
  72.4367599  54.5551376  39.6980896  43.0948372   8.8522291  12.7951174
  42.8181458   8.7402248  13.7045841  43.1058693   9.8002234  12.6631413
   9.1407270  25.1086407   8.1782112  10.0108519  25.4106178   7.9175878
   8.8170700  24.6257286   7.4177680  13.3828497  71.4886093   1.8393717
  13.3017006  70.8048477   1.1744504  12.5811224  72.0041733   1.7518437
  13.6715565   3.1763940   3.8358002  13.1915836   3.6806633   3.1788602
  12.9958963   2.6791751   4.2967658   8.8525467  20.0751801   9.3327847
   8.0987368  20.6078720   9.0793276   9.4976740  20.2293491   8.6426582
  38.1510849  27.9210548  23.3863907  38.1653671  28.0372639  24.3364048
  37.8852043  28.7747211  23.0446415  10.3090277  49.8461990  21.0057449
  10.6934490  50.7086143  21.1628799  10.9108582  49.4237595  20.3929024
  28.5207806  37.8661842  22.4648705  27.6473904  37.5676346  22.7184181
  28.5556602  37.7281876  21.5183125   4.8885283  42.2901344   0.4669225
   4.4967299  42.4905319   1.3169620   5.4550929  43.0391083   0.2817871
  51.9575462  36.4598808  33.9698753  51.2477036  36.8510475  33.4606133
  52.2637787  37.1676750  34.5368690  24.8328075  29.5097008  78.6738129
  24.3023300  29.2627964  77.9162750  24.2480145  30.0430527  79.2121277
  46.9621010  36.3257751  72.5732803  47.7247887  35.9930954  72.1001358
  46.3052559  35.6351814  72.4845963  46.5173683  56.1312103   0.6155765
  46.3362427  56.9235954   0.1100542  46.0827332  56.2784500   1.4556035
  75.0611191  49.1749153  72.5234909  74.9818115  49.5926666  73.3810577
  75.5457230  49.8072777  71.9929199   7.7643747   1.7349917   4.8207045
   7.4901533   2.1261151   5.6501966   7.8943758   0.8087190   5.0240521
  32.5903969  56.2863159  12.6811743  31.8780708  56.5223846  13.2753944
  32.6425476  55.3321648  12.7369328  82.6602478  47.7827148  34.8054428
  81.9951706  48.4055672  34.5122604  83.0209579  48.1742477  35.6009445
  72.7427673  38.2533455  10.2192545  73.2657166  37.5822296   9.7806644
  72.4299011  37.8290367  11.0181971  19.7871265  51.7571106  80.5403366
  18.8391743  51.8877602  80.5168228  20.1517410  52.6414146  80.5043716
  43.0970535  48.8676109  11.3107557  43.9114647  49.0894356  10.8593597
  43.3347092  48.8479614  12.2377748  48.9130745   8.7552605  69.0301437
  48.4698181   8.2956963  69.7432785  49.0415573   9.6441069  69.3613205
  57.2539597   2.9651077  30.1688290  56.5247421   3.5186274  29.8893890
  56.8701134   2.0934596  30.2643528  71.3313446  31.6045418  26.3457146
  71.6585541  32.4987144  26.4438190  71.2323990  31.2859211  27.2428894
  58.6878357  58.1999168   6.0865283  59.1874542  57.4385605   5.7916656
  59.3445129  58.8862724   6.2045221  78.7436981  51.3981438  65.0693436
  78.4126816  50.5014610  65.0181732  77.9589462  51.9381638  65.1630325
  48.1260681  49.2187386  39.2909317  48.5432892  49.4369316  40.1243286
  47.4632072  48.5667343  39.5183868  69.6406021  29.0774097  40.1478500
  69.6482391  29.1880760  41.0985985  69.2992401  28.1934738  40.0123444
  58.7032928  49.0616379  18.5386047  59.5677376  48.6936760  18.3553810
  58.1534424  48.3004570  18.7243481  74.6359787  21.8887901  69.5436020
  74.5531845  22.4927521  68.8056259  75.5655746  21.6614647  69.5639343
  25.4699440  65.3972549  46.2191620  25.3296814  65.2039032  47.1460762
  26.1994877  66.0168839  46.2114754   5.8088288  42.2807693  30.0812798
   6.2403445  43.0523987  30.4481773   5.9095106  42.3776093  29.1343288
   8.1998978  54.6525650   7.4143310   7.6215482  53.9535789   7.1091142
   7.7619996  55.4602051   7.1456332  62.9211044  23.4627342  54.4076424
  63.5832787  22.8472176  54.7221222  62.4632111  22.9881344  53.7138710
  63.7043381  60.9915733   5.4791312  64.3107529  61.7321014   5.4685144
  64.0853195  60.3790169   6.1083012   9.4704695  12.7464828  72.5313263
   9.9064512  13.5985670  72.5414963   9.7794323  12.3289375  71.7273178
  52.3093719  53.0270805  17.9488926  52.9205284  53.5137787  18.5019226
  51.4554825  53.4180908  18.1338634  50.7716751  36.1878357   5.3631983
  50.5140877  35.2699356   5.4488468  51.4998703  36.2904243   5.9759278
  35.1883659  60.1556854  50.1074829  36.0183716  60.5421600  49.8282623
  34.7262230  59.9652138  49.2911644  39.4203873  60.2022057  23.1302433
  40.0436668  60.6334496  22.5456200  39.5510368  59.2672577  22.9720249
  20.3503685  15.0881042  35.5309563  20.8251839  14.2580090  35.5724831
  20.5619144  15.4420795  34.6671371  78.5673370  40.6153183  22.3834724
  77.9625473  39.9860611  21.9904099  78.7695465  41.2273369  21.6758194
  41.5192032  38.6248436  35.4289703  41.2751312  38.3961830  36.3258400
  42.0355721  37.8789215  35.1236916  78.1235504  60.9438400  35.0679970
  79.0633698  61.1237679  35.0925102  77.8510208  60.9682236  35.9852562
  48.6372871  41.0153236  45.7344666  49.3663864  40.7356453  45.1809044
  48.1529503  41.6402817  45.1949463  11.7297726   7.5160627  65.1079025
  11.9991808   8.3964396  64.8460083  11.5336933   7.0704827  64.2837372
   4.7131691  16.9329166  23.0513783   4.5151329  16.0446396  23.3479843
   4.0028553  17.4677372  23.4058571   0.0023560  33.7432289  38.9393501
   0.9498299  33.6337128  38.8585358  -0.2550434  34.2004852  38.1387901
  18.0362492  68.3080292  60.9219589  18.5852051  68.6518250  60.2172012
  18.6062088  68.3075104  61.6909676  82.7614822  60.2529259  42.5053253
  83.0169144  60.0358238  43.4019012  83.0479889  59.5015869  41.9860611
   3.7148652  13.4100780  72.3670883   2.8905783  13.2016287  72.8067856
   4.3913927  13.1712847  73.0007401  46.9944801   6.8460908  73.6229095
  47.6264801   7.4161367  74.0609283  46.7108841   6.2354984  74.3033371
   4.0741792   5.8368540  29.5836124   4.0718703   4.8960171  29.4073963
   4.9579921   6.0185132  29.9031544  81.5013809  66.6461487  25.6908073
  81.3675079  67.5669556  25.9153690  80.7814178  66.4376831  25.0954742
  54.3325844  43.4448051  37.9080353  54.3234138  44.3158951  38.3047028
  54.5581207  43.6015472  36.9910812  28.1722221  24.8076744   0.0961728
  27.6225262  25.0240498   0.8493326  29.0669556  24.8440742   0.4343404
  32.5039749  69.6093140  55.1111908  32.8605614  69.4880905  55.9911842
  32.9145737  68.9198990  54.5893173   1.4678824  64.6261597  54.4021187
   1.1636190  64.0063782  55.0650864   1.0672613  64.3217239  53.5878372
  42.7863503  45.9500046  59.0240822  42.1892929  46.6361809  59.3222733
  42.4337807  45.6772194  58.1770172  40.1922455  63.7460670  56.4080772
  40.7884712  63.9949455  57.1143379  40.7615967  63.6101837  55.6507072
  63.8389816  64.6077652  75.3969269  63.1416969  64.5343704  76.0485764
  63.4810638  65.1912537  74.7278442  82.0685196  49.5135422  70.4960251
  82.0660782  48.9665756  71.2815552  81.1809616  49.8688431  70.4488144
  76.3462906  53.4056625  46.4267845  76.5033035  52.5775146  45.9731865
  75.7774506  53.8985558  45.8354225  20.8620834  38.9831352  10.4520235
  20.4606647  39.3452606  11.2419338  21.6837883  38.5976677  10.7560787
  27.7497959  26.7938786  76.9867172  27.6739597  27.2142792  77.8433075
  26.8914852  26.9187260  76.5818176  60.7370834  19.1718102  61.5149956
  59.7894516  19.2611008  61.6162643  61.0860519  19.3089523  62.3957024
  86.8123016  13.8648176  78.1951828  87.3694839  14.6290283  78.3427048
  85.9229813  14.1834345  78.3494949   6.0410914  48.8501701  39.7679863
   5.8104062  49.1465454  38.8875465   5.8379617  49.5959167  40.3326378
  42.8388443  24.0467072   6.3582077  43.5978127  23.9034290   5.7928133
  42.5142632  23.1670780   6.5508971  67.1390076  11.4796143  41.8618393
  66.8976746  11.5005589  42.7878799  66.6885681  12.2328863  41.4798431
  76.6277161   9.4603100  11.7907066  77.1256714   8.9107800  11.1854858
  76.2520905   8.8443308  12.4197588  19.0492153  38.5873985  72.3950500
  18.9668674  38.7819214  73.3286514  19.1392250  39.4446487  71.9788132
  64.6337738  13.2648172  85.1895599  63.8496437  12.7213755  85.2672653
  65.1232376  13.0955391  85.9945450   2.7109540  39.5673904  10.6882401
   2.0820627  39.1152458  10.1258402   2.6465907  39.1166649  11.5302229
  68.6654816  56.0118103  85.3375549  68.7302246  56.0306015  84.3827286
  67.7976456  56.3690758  85.5258484  66.0457153  42.5477982  69.0591660
  65.1229782  42.7736664  68.9418335  66.2938385  42.9728851  69.8801193
  11.1623793  29.6432724  78.8337250  10.8980694  29.9739456  79.6922302
  12.0473585  29.9854317  78.7073517  60.9767723  13.5774183  73.8329849
  60.3738213  12.8823328  74.0966873  60.8810806  13.6294708  72.8820038
  42.7801170   4.9029918   1.4610931  43.4965210   5.3495822   1.9122584
  42.9974899   3.9732134   1.5281233  80.3566208  67.7627563  81.5436020
  80.1438065  66.8444901  81.7101212  80.6364288  68.1017685  82.3938980
  66.6351013  71.0303879  43.4350967  66.2374039  70.7009506  44.2410393
  66.1372528  70.6107864  42.7334518  18.4055786  18.3909340  62.0889549
  18.0949516  19.1444435  61.5869980  18.1281967  17.6312428  61.5769386
  11.9381933  68.5973206  13.5743637  12.2141285  69.2865601  14.1785488
  11.3364639  69.0340500  12.9715166  55.7031326  54.2145653   6.2929587
  56.2377548  54.7796516   6.8507094  55.0496788  53.8424950   6.8852363
  50.6190720  65.2897644  22.2030811  50.9458351  66.1791916  22.3386707
  51.2739487  64.8772736  21.6398602  21.5984325  33.8287659   6.0487828
  21.1545982  32.9913635   5.9146214  22.1052265  33.9622574   5.2478018
  30.0569782  14.8421068   0.1512239  29.6783981  15.4379759   0.7976362
  30.9180813  15.2131958  -0.0411978  30.7008171  13.0116196  77.2224426
  30.6410275  12.0993977  77.5061798  31.5930424  13.1002197  76.8873062
  86.2770004  48.5449562  77.4444962  86.2216110  47.6221275  77.1963959
  87.0247345  48.5882721  78.0405197   6.2167082  29.2318077  61.9022789
   5.7115827  28.4234734  61.8146553   5.6825857  29.7876968  62.4696693
  79.3547058  63.5195885  41.7491646  79.1923904  62.9952545  42.5333557
  80.2751999  63.3600655  41.5406761  59.7212791  51.5297012   5.3965836
  59.1707573  50.8161964   5.7191801  59.1024666  52.1683578   5.0424342
   2.5510008  41.6611671  46.8472061   3.2149789  42.0647964  47.4061775
   1.8013084  41.5243225  47.4264030  51.4421425  21.0296154  82.0667801
  52.3178940  20.6934586  81.8762970  51.4576187  21.9322472  81.7485809
  85.2815933   9.1130533  16.7731724  84.5663300   8.6994486  17.2564583
  86.0458832   9.0076361  17.3397236  80.6092072   8.0396118  74.1614304
  80.0927811   7.2862234  74.4476852  80.6035614   7.9847040  73.2058258
   1.8451103  41.9475136  43.8670006   2.3125246  42.0833893  44.6911926
   1.6773081  41.0055428  43.8392906  62.9055557  64.6719208  15.2767115
  63.0551796  65.3217926  15.9633780  62.4803505  63.9417725  15.7265100
  14.7885218  59.6122437  27.0685730  15.5253801  60.0547791  27.4898033
  14.2572699  60.3221016  26.7078724   8.9803982  70.0701752  70.1814575
   8.7838812  70.8906631  69.7293472   8.3373833  69.4486694  69.8401337
  54.1949730  51.8305779  80.4618683  54.9806290  51.4120560  80.1099930
  54.4742317  52.7200012  80.6790466  33.7324753  68.8246384  43.1182899
  34.1957207  68.0109558  42.9193993  33.9840431  69.4218216  42.4137878
  72.1755371  40.8864861  71.1436462  71.4194641  40.3562202  70.8918304
  71.8658981  41.7900543  71.0810623  64.4045563  36.8793259   7.1313562
  64.0649109  37.7282715   7.4144921  65.3148880  37.0532837   6.8920588
  60.6471100  10.2081671   7.3418651  60.5674553  10.0470009   8.2820311
  59.7540474  10.3990154   7.0550685  80.1487808  70.8678436  18.3916931
  80.0472107  69.9161606  18.4066830  80.2232208  71.1153107  19.3133469
   8.1999836  59.4561691  29.9561539   9.0562363  59.7535057  29.6484928
   8.3818769  59.0256767  30.7915115  67.7165146  63.2774429  87.8538742
  67.9421844  62.6999016  88.5830917  66.8808136  63.6688461  88.1080933
  37.9682198  37.1893768   1.2905606  38.8685379  37.1094246   0.9755003
  37.7791100  38.1263504   1.2400459  28.2797298  66.2439270  73.0697556
  29.1154060  65.7782440  73.1015778  28.0689087  66.4205780  73.9865875
  49.6308746  70.4492645  62.6494141  49.6702843  70.4144440  63.6051674
  49.5798187  71.3831329  62.4456635  67.5917053  40.5298996  68.6492844
  67.0372772  41.2596169  68.9256058  67.0788040  40.0803490  67.9776764
  36.6866150   9.3355169  24.3629341  36.4612923   9.6124420  23.4748039
  37.6030350   9.5910797  24.4682598  32.9927750  56.0414238  28.5049667
  32.6940956  56.2535324  27.6206398  33.8202133  56.5135689  28.5979958
  64.7799835  23.4351082  24.4884720  64.9710846  22.5161381  24.3008461
  63.9220238  23.4195709  24.9126225  86.3465958   0.9624848  88.5740128
  86.8485184   1.4386712  87.9125366  86.1970978   1.6037184  89.2687759
  26.0000420  60.2044907  52.4954567  26.1469173  59.6951714  53.2924843
  25.0871811  60.4860229  52.5559349  80.2083435  54.0309868  62.4665604
  80.1746521  53.1534462  62.0857391  79.2950592  54.2441635  62.6581383
  51.2983932  18.8470001  76.2475281  51.7021942  18.0028591  76.4490356
  50.8580132  19.1014996  77.0584106  79.3221741  11.1845808  50.0711060
  78.7835083  10.8916359  50.8061218  80.2228622  11.0466795  50.3643188
  57.8987732  52.7121735  74.6867676  57.2068214  52.4032135  75.2715530
  58.5234413  53.1498451  75.2650986   4.6355023  21.0345058  14.3572569
   4.6849251  20.7334099  13.4499912   5.4630356  20.7540474  14.7481070
  53.5435905  31.7005196  20.5331955  53.5679398  32.0518112  19.6431217
  54.3594360  31.2071953  20.6183872  37.8636780  30.7409649  82.0934372
  37.8982964  31.0327759  83.0044174  38.5773659  31.2123222  81.6636658
  10.6836281  68.8200989  34.5622101  10.7217827  69.4626617  35.2706528
  11.2311811  68.0960541  34.8658142  78.8511124  22.8108807  85.1042328
  79.1898804  22.0645237  84.6098480  79.1095047  23.5758610  84.5901642
  24.6083546  69.7735825  16.6780472  23.7771397  69.3491211  16.8905258
  25.2617588  69.2844849  17.1781254  50.6253510  60.5399399  65.1161346
  51.3456573  60.8607559  65.6587830  51.0147247  59.8418922  64.5894928
  71.8409729  23.7089653  41.2861252  71.7883224  24.5393963  41.7592506
  72.4322281  23.8870697  40.5547447  51.0663261  15.6410208  66.8897934
  51.9905434  15.6355162  67.1388397  50.8887024  14.7434692  66.6085739
  64.1740723   2.4743979  62.1606827  63.8157158   2.2186732  63.0106354
  63.8540916   3.3661709  62.0243492  28.0385513  54.6243439  29.1727428
  27.5232010  54.8853149  28.4095001  28.8788204  55.0680733  29.0574818
  10.4615860  49.8467979  86.0150299  10.3301735  50.2902184  85.1769714
   9.9354162  50.3493309  86.6369934  30.8590794  51.4959869  80.2279510
  31.5459442  52.1218872  80.4575119  30.6460266  51.0607452  81.0534286
  66.8096237  18.7734203   6.7029691  67.6676559  18.7718525   7.1272583
  66.7233810  19.6550484   6.3403010  60.0042419   7.6521573   3.7600548
  60.5264435   6.8688912   3.9333546  59.1469955   7.3155985   3.4991133
   0.3097127   3.7978387  17.4869480   0.8137093   3.1496286  16.9949684
  -0.0786188   4.3590150  16.8157463  46.8832932   1.0097915  64.1351166
  46.9023972   0.3883890  63.4072952  46.0002174   1.3784146  64.1122131
  66.8620682  66.8859558  40.0951691  67.4583740  67.5791092  40.3783417
  67.1873245  66.6277084  39.2327614  78.5226593  51.2143707  35.6205788
  79.1680984  50.5189438  35.7471771  78.8770294  51.7427444  34.9054070
  17.7764435  41.6219368  10.3809319  17.4489384  42.4307594  10.7743454
  18.7165222  41.6315994  10.5609055  13.8347387   1.7081134  53.0526657
  14.5966787   1.2133979  52.7511101  13.6840687   1.3956714  53.9448051
  16.7400169  51.4858627   0.7770922  16.5914536  52.0572166   1.5305599
  15.8967648  51.4618111   0.3247892  67.2164841  56.3628845  37.9096565
  66.4317627  56.4623451  37.3706284  67.3831177  57.2402115  38.2542725
  24.9617958  47.0030556  26.3214703  24.9320869  46.3659286  27.0352077
  24.0620289  47.3209190  26.2465496  48.0320587  47.4038506  77.1418228
  47.3983231  47.9857445  77.5613556  47.4966850  46.7833328  76.6472931
  58.3697891  38.7804756  81.1925049  57.7093048  38.1990967  80.8156815
  58.9128227  38.2072220  81.7335434  77.7937317   6.6660976  49.7434235
  78.3550644   6.1217589  49.1913109  77.0165710   6.1290932  49.8979645
  42.5674286  18.8402805  20.5666008  41.7223434  19.2856159  20.5054283
  43.1920052  19.5379581  20.7650471  68.3860550  39.6252861  37.1727028
  69.2500534  39.5079689  36.7777672  67.8025284  39.7815247  36.4301987
   6.1781468  51.3504257   4.4717178   6.6611495  51.6655655   3.7077625
   5.3266430  51.0852547   4.1240740  73.6816330  69.4029922  87.3501053
  73.0653305  69.5684662  86.6366501  74.3472977  68.8335037  86.9643478
  50.5095024  31.9795933  70.3155670  50.1920471  31.8974419  71.2148438
  49.7312546  32.2066574  69.8066406  48.8290443  57.5212212  44.4327888
  48.0689507  58.0693512  44.6278419  49.2668877  57.4098282  45.2766571
  37.6960640  10.6287279  85.6261673  38.0349922   9.7971010  85.9574585
  38.3926544  10.9632835  85.0613098  68.7427597  54.5134010  32.4907303
  68.4979019  55.2038307  33.1068382  68.6311874  54.9119606  31.6276379
  65.1817932  39.3052444  47.5701752  65.6099014  39.2630920  46.7150841
  64.6956482  38.4832764  47.6354141  79.4468613  52.5513115  67.3186798
  78.9798813  52.0328064  66.6634521  80.3645477  52.5061417  67.0502777
  28.1629944  48.9451408  38.3244286  27.7128506  49.7358208  38.6218033
  28.5715656  49.1990356  37.4968796  81.3937836  46.5756073  63.7901611
  80.7192383  46.6429024  64.4659576  81.8213348  45.7364655  63.9612389
  59.8662376   1.5480049  14.1483421  60.3567696   1.8232876  13.3738565
  59.5624428   2.3656411  14.5425673  62.6544914  46.4281120  66.3191910
  61.8453751  46.0174980  66.0143051  63.2203865  45.6939888  66.5580521
  40.6608658  44.5724754  36.6234055  40.9965019  45.4317970  36.8786392
  40.7303467  44.0426636  37.4175720  41.9637108  14.5036240  21.7587109
  41.6185226  13.9008141  22.4172688  41.4787979  14.2905750  20.9614029
  81.6841049  43.0037384   0.5896780  81.7767487  43.9079552   0.8897470
  81.8408051  43.0471725  -0.3536094  84.4806519  30.7954941  44.5489998
  85.2810516  30.4335938  44.1687050  84.3932724  31.6592846  44.1459389
  28.3576107  59.9729042   2.0683532  28.0059929  60.7200279   2.5525019
  28.2828922  59.2371063   2.6760156  65.8326645  41.2194252  75.3058853
  66.5381470  40.7298508  75.7287827  65.0743637  40.6373558  75.3549423
  33.5655098  20.2397728   1.6399120  34.0470467  19.7469826   0.9754479
  33.1302986  19.5694485   2.1666830  62.5629158   5.0309768  13.8864384
  63.0668716   5.5214276  14.5358400  63.0779076   5.0989184  13.0824471
  20.5854321   3.9508665  83.1487122  21.3914452   3.5721192  82.7978134
  20.8781109   4.7051516  83.6602020  61.2170792  36.2201271  65.7988358
  60.4575615  35.6378021  65.7826462  61.2950287  36.5371742  64.8990402
  37.7947311  27.2917271  73.2481918  37.5988274  28.2020798  73.0265808
  38.5867691  27.3406391  73.7834702   9.6650467  39.5142899  79.5485992
  10.5964508  39.5598488  79.7645721   9.6456547  39.3001442  78.6158676
  66.9493484  65.4899292  32.5091209  66.2537384  66.0459213  32.8601608
  66.9006577  64.6880646  33.0295753  37.7194405  19.4656658   9.0109291
  37.4471703  18.5482616   9.0326052  37.8101349  19.7104111   9.9318562
  11.9610176  14.5133085  21.3225746  12.3229723  14.1815739  22.1442642
  11.2821665  13.8808393  21.0872555  64.8794708  49.7284431  14.7385931
  65.3527908  49.1406860  15.3274384  64.7593918  50.5307693  15.2466154
  64.6603546  60.1471519  68.3704758  64.9988937  59.8254776  69.2060318
  65.2134323  60.9000168  68.1618423  81.8602066  15.9494734  67.7038727
  82.0869141  16.8264828  68.0132141  82.5439453  15.3844118  68.0636520
  63.8866081  60.4394913  20.0582581  64.0526810  59.7189026  20.6660442
  64.7574387  60.7270241  19.7840080  49.3846474  52.8658104  74.2019958
  49.2870064  51.9288177  74.0324631  48.5477600  53.1283417  74.5853043
  75.4150848  59.9420052  60.2315712  75.9407043  59.3359261  60.7537117
  75.9817657  60.7030563  60.1054420  85.5834274  49.8731613  72.9636307
  86.0179825  50.6398849  72.5900879  85.6270828  50.0104370  73.9099274
  82.7121658  69.3453217  75.8049774  83.3936996  69.9382782  75.4885178
  83.1073456  68.9065247  76.5583191   7.0780034  48.7002068  12.8310375
   6.4830790  48.8562584  13.5644846   7.1688647  47.7480202  12.7947474
  29.8797359  68.1487732  45.9738464  30.3538113  68.2998199  45.1561241
  29.8715611  69.0022507  46.4071274  62.1654243  18.8915558  71.5674973
  61.2567520  19.1886845  71.5200195  62.6059456  19.3531551  70.8539810
  10.0622454  12.8156366  20.5063343   9.3139286  13.1347742  20.0019474
   9.7180490  12.0719252  21.0009594  15.2467737   0.4275873  46.0708199
  15.6397924   1.2436762  45.7613564  15.9920464  -0.1128122  46.3330574
   0.6527418  45.3054504  70.4454041   1.3500311  45.9152107  70.6866837
  -0.1547845  45.7528000  70.6984177  23.7126560  68.3899460  81.9742203
  23.5470486  68.1658630  82.8899689  23.6127720  69.3412476  81.9385834
   8.1156874  16.7160969  25.1460495   9.0070286  16.5917397  24.8200493
   7.7841835  17.4684906  24.6559048  57.2896233   9.9063358   8.4003773
  57.2165680  10.6776867   8.9624386  57.3903694   9.1748333   9.0094633
   5.7748113  40.2351685   2.5849431   6.1119723  41.1076088   2.7884140
   6.5172601  39.7774200   2.1906493  43.8875656  53.7266884  32.4250145
  44.4137688  53.1027336  32.9250374  44.3018494  53.7522926  31.5624905
  38.4093590  63.8442116  72.2482300  39.3159943  63.5376053  72.2328186
  38.0948372  63.7068291  71.3546829  21.9252415  38.5132904   3.2175725
  21.4893436  38.1366997   3.9820368  21.6164742  39.4188309   3.1877034
  24.3499069  70.6237183  30.6378746  24.8087234  71.4589233  30.5475521
  24.9529400  69.9781036  30.2694168  27.3730488  62.8045235  81.1507950
  27.0606670  63.5422821  80.6269989  27.0712280  62.9963531  82.0386810
  50.9671898  21.9765186  11.2532272  50.1035271  21.7270813  11.5820112
  51.0317307  21.5475082  10.3999882  38.3508949  44.6319504  48.4141235
  37.6750374  45.1359406  47.9608650  37.8721008  43.9269333  48.8499413
  60.1322594  59.1120071  41.3433876  60.1383286  59.6538773  40.5543556
  60.2939720  58.2238312  41.0252304  39.5164642  68.3662415  85.8900452
  39.2012711  68.4619675  84.9913101  39.6866875  67.4291611  85.9856262
  28.6938972  25.6200085  19.9019871  29.1521187  25.9386902  19.1243591
  29.0016899  24.7200260  20.0093536  78.1811447  49.4722328  68.7634659
  77.3738632  49.1268387  68.3823624  78.8476181  49.3166847  68.0942535
  64.2864304  59.0383797  17.6480198  64.7956238  59.6416893  17.1067505
  64.3290253  59.4121056  18.5282154  49.6681290  55.0644989  86.4347153
  50.0355072  55.1402054  85.5540695  50.3748779  55.3487434  87.0143204
  45.1028214   9.3537073  87.1723785  45.9482880   9.0499134  86.8420410
  45.2719269  10.2440853  87.4803772  80.8502579  10.2472534  71.7200394
  81.2650070   9.5199671  71.2560730  80.5740051  10.8470144  71.0270767
  15.8989391  70.6022415  54.3719254  15.1800680  70.5412521  55.0010033
  15.7891235  69.8367844  53.8077850  44.5565681  60.5962257   0.0479329
  44.8692017  60.2919998   0.8999538  43.7169685  60.1523514  -0.0715616
  46.8209000  13.2803354  77.5950012  46.3206253  13.7437258  76.9232635
  47.2802353  13.9719687  78.0713272  45.8738022  54.4857788  29.8898773
  46.4484367  53.9185066  29.3758450  45.1625938  54.7124443  29.2906818
  42.4887428   0.0630828  41.5772057  42.9229507   0.1102503  42.4289513
  42.9527931   0.7019045  41.0360985  13.7968121   1.6750665  39.6119461
  13.1688499   0.9917411  39.8463821  13.7844763   2.2771690  40.3559570
  86.4737396   7.4220958  43.4907837  86.1314163   7.3988056  42.5971947
  87.3255844   7.8511028  43.4098358  45.7645607  51.7610855  84.2688065
  46.0510635  50.9237099  83.9041824  46.3937111  52.3977966  83.9296875
  51.1554947  51.3566132  21.7891655  51.4464874  51.2849236  20.8800907
  50.8741646  50.4715767  22.0210972   3.2971950  71.9257202  70.9094009
   2.7099850  71.2917023  70.4977798   4.1600108  71.5130234  70.8711777
  86.5704956  26.8052521  78.2013092  87.2158661  27.4463425  78.4991913
  86.3207169  27.1051903  77.3273087  51.5206680   1.6283478  84.7545319
  50.5819054   1.7860324  84.8549805  51.9364891   2.3393412  85.2421951
  75.9287262  65.8081589  81.1205368  76.5209579  66.2147293  81.7531509
  76.3713531  65.9104691  80.2780151  35.0367584  55.9180222  50.6205940
  34.8243141  55.8698387  51.5526772  35.2785950  55.0227509  50.3834648
  74.6785507  25.2231464   5.0740132  73.9301071  25.2625084   5.6694193
  74.8327789  26.1337776   4.8226275  22.8832703  37.1768379  11.1036358
  22.2112160  36.5132713  10.9479065  23.5088177  36.7511940  11.6899376
  16.8273201  22.2922173  80.7353897  16.2684383  21.5243568  80.6159210
  16.7063293  22.5360718  81.6530609  77.7392960  16.6161366  87.3196869
  78.4496002  16.4002609  87.9239197  77.1703262  17.2023506  87.8185425
  52.4272766  66.6709442  35.2744904  52.8702812  67.0520859  36.0325851
  51.7066803  66.1636810  35.6481972  39.1847115  17.0539837  79.0466080
  39.8687935  17.4172344  78.4841843  39.3517838  16.1114788  79.0487137
  75.8446274  32.4980202  86.2932129  76.7588043  32.2401924  86.1747284
  75.4786072  32.4958458  85.4087601  39.6781044  67.3386002  64.3643875
  39.5623817  66.6729050  63.6863823  40.4535904  67.8279114  64.0897369
  64.5787735  35.7609482  69.7080460  64.9468307  35.4271126  70.5261612
  64.1048279  35.0165443  69.3372726  71.7062759   1.3155872  27.1537018
  71.6299362   1.5268419  26.2232304  71.2925415   2.0534725  27.6015682
  65.4681396  41.2906075   5.2956920  65.0173111  41.1547813   4.4623032
  65.5486603  42.2413368   5.3722758  54.8193779  58.4159508   8.4845715
  54.3896904  58.5907669   7.6472912  54.5441437  57.5284309   8.7143316
  62.1652908  61.4865685  63.0688477  61.9013710  61.9457207  62.2714996
  62.8191757  62.0592499  63.4697189  74.9394226  69.4389801  73.7530746
  74.9055557  68.5029449  73.9503860  75.8672562  69.6182098  73.6006317
  61.1083412   5.9291253  64.7588959  60.9507179   6.4311256  65.5585098
  61.1974068   6.5916543  64.0737991  16.7644272  38.0373611  65.8135910
  16.2486553  37.9623756  66.6164551  16.1376381  38.3320847  65.1529083
  53.1475830  69.3043289  57.8809700  53.6594238  68.9160233  58.5905266
  52.4396210  68.6789398  57.7263184  46.2596169  54.6907234  75.8468704
  46.3698883  54.6352882  74.8976593  45.3473930  54.9546165  75.9670181
  38.9761200  51.9338760  31.4737492  38.2634354  52.5342941  31.2550888
  38.6876907  51.0863342  31.1350574  64.4078522  30.3899498  85.1362915
  65.2618713  30.3119202  84.7111053  63.7846413  30.4517460  84.4123993
  30.6870804  66.9743500  70.1603851  29.7362556  67.0103760  70.2646255
  30.8544617  67.4243317  69.3322906  83.6237564  19.8515491  30.6272507
  82.9173889  20.0542202  31.2406006  84.4128189  19.8316879  31.1687527
  77.3454056  65.8580856  78.4649353  77.2719421  66.7905655  78.2616653
  78.2036514  65.6056290  78.1244888  84.4525681  10.2207003  42.9695969
  85.2362213  10.3511667  43.5035362  83.7378006  10.1621704  43.6035690
  66.7834549  57.8924599  59.7272110  67.4887466  57.2565842  59.6069527
  66.6881485  57.9677238  60.6766739  45.3334961  65.5415573  49.5190468
  44.8639832  64.8866882  49.0023880  46.1284943  65.7184448  49.0161324
  13.5595083  46.9837494  53.8567009  13.3830557  46.0555458  54.0101013
  12.8026018  47.4361687  54.2290459  46.0362434  52.0879936  69.5234299
  46.0029793  51.2513390  69.9872589  45.3242035  52.6016846  69.9046860
  65.3936005  30.1306038  33.5055504  66.2393417  30.5113564  33.2689323
  64.7780991  30.8616257  33.4508095  32.0357056  71.4901886  88.5337372
  32.8130684  71.8414536  88.9679642  32.2768135  70.5940781  88.2990341
  30.6669598  55.4184036  82.7571335  30.8976936  56.1004715  82.1264343
  29.7190495  55.3200760  82.6675186  85.0889740  32.6480370  79.9055328
  84.5718689  32.0310440  79.3876953  84.6902542  33.5005035  79.7307205
  57.9528351  31.8398514  64.4055023  58.5475922  32.5090179  64.0668106
  58.1831055  31.7611351  65.3312454  46.9757385  54.8698769  20.9573612
  47.3546829  55.3269234  21.7081852  46.7801361  55.5641479  20.3281116
   6.2419138  53.8213501  81.7095871   6.8248200  53.2770615  81.1802521
   5.7117262  54.2967911  81.0699921  57.1040916  26.4968948  42.1689148
  57.9788322  26.6931381  42.5043983  56.5682259  27.2390919  42.4486008
  10.9792318  38.0780754  36.8825607  10.7415981  38.9499397  37.1981697
  11.8392668  38.1955719  36.4791183   3.2381177  40.2658691  60.6090965
   3.3100665  40.0882454  59.6712799   3.8739347  39.6759796  61.0140648
  36.9285240  59.9170837  27.4413261  36.7450333  59.2519188  28.1047401
  37.8714905  60.0676384  27.5075130  10.9816046  33.1278343  53.5893059
  11.0741682  32.1845970  53.4552650  11.6641064  33.5157013  53.0415993
  15.1431341  70.8204727  65.9742203  14.2725410  70.6022720  65.6415176
  14.9906225  71.5326614  66.5953140  70.5009308  35.8099289  66.4103546
  70.7690277  36.7253761  66.4897995  69.7895813  35.7128792  67.0434418
  25.3121490  50.8721199   1.5988312  24.9184856  50.1812248   2.1316750
  24.6167965  51.5220985   1.4976205   7.7845774  51.9740562  80.1589355
   7.7595878  51.8635101  79.2084656   8.6450443  51.6428146  80.4160461
  17.4479294  48.7714958  86.6996307  16.7447376  49.2465668  87.1424179
  17.1750622  48.7396431  85.7826996   1.2155727  38.1949425   0.0372417
   1.1374909  39.1439896   0.1344263   2.1388519  38.0115509   0.2108956
  79.7034912  59.4588509  41.4083519  78.8598328  59.8836746  41.5632286
  80.1357574  59.4662933  42.2623558  24.5435448  39.6407051  56.4433327
  25.4542999  39.5136261  56.7090569  24.1521645  38.7693748  56.5052910
  18.1644306  59.2772446  39.9342384  18.4990158  59.0256004  40.7950287
  18.5122852  60.1572533  39.7899513  19.3072033  13.8136320  16.3732643
  18.8673458  13.2336359  15.7516842  19.6107044  13.2318716  17.0701675
  19.8436661   5.9906335   7.4001312  19.4311790   5.7925730   6.5593820
  20.6950932   5.5553193   7.3576431  67.2337265  42.4635506  21.8876781
  67.4819489  43.3880081  21.8866138  67.5249481  42.1363831  21.0365734
  41.1060982  11.7886009   0.8167349  41.6041870  12.1822004   1.5331300
  41.7502708  11.6572313   0.1210214  82.0430298  47.1393967   0.0571395
  81.3749542  47.5446053   0.6100594  82.6481628  47.8519516  -0.1485366
  64.2753754  39.2820587  80.2586670  63.8959923  38.4373970  80.0160675
  64.1043472  39.3607521  81.1971664  72.8886948  59.4279861  46.4585724
  73.3159637  58.6092224  46.2069702  71.9828873  59.1788902  46.6421432
  30.9476700  17.1834087  77.4028244  30.7720032  16.9545174  76.4901505
  30.2563591  16.7433300  77.8974457  52.2855415  54.9500389  11.0888834
  52.8448524  54.1863594  11.2309856  52.8904305  55.6918488  11.0813198
  59.1553879  45.3263588  87.9557724  60.0164528  44.9924431  87.7041702
  59.2361221  45.5169525  88.8903198  58.7568932  13.2743216  38.4590530
  58.1111259  13.6956234  37.8918457  58.7686386  12.3613358  38.1717339
  40.2472801  56.6891899  87.6664429  40.4896202  56.4270630  86.7783051
  39.9230614  57.5848198  87.5717773  66.6563339  45.2966537  40.1615868
  66.1932449  45.3175621  39.3241196  65.9820786  45.4897232  40.8129959
  76.1964035  40.6863251   4.3400517  75.5912247  41.3518867   4.0129051
  77.0555038  40.9688683   4.0264397  41.1349068  12.8516235   6.0553651
  40.7928009  11.9623661   6.1471095  40.6081734  13.3744421   6.6598859
   0.3334279  71.0735321  50.9485435  -0.1503720  70.3131256  51.2709541
   0.4157610  70.9233475  50.0067902  63.4142685  22.0326157  78.2610931
  62.8263664  21.5406208  78.8342819  62.8624077  22.3030663  77.5272446
  75.8666458  57.4918709   8.4443121  75.7304153  57.1860390   7.5475731
  75.2796173  58.2427025   8.5330782  38.9159203   6.9005713   5.2368579
  39.8622780   7.0434580   5.2219605  38.6860733   6.7232900   4.3247323
  33.7686234  48.5352974   8.3859377  32.8823090  48.5762787   8.7450981
  33.6819801  48.0040627   7.5944109  33.8057404  44.2303200  58.6278763
  33.6790428  43.2914619  58.4910355  34.7020683  44.3961296  58.3357582
  40.0477066  30.6477089  22.5272179  39.2653503  30.4491253  22.0127087
  40.4270935  31.4154530  22.0995903  62.0538368  43.3846054  43.6902313
  62.2126923  44.3262100  43.7563591  62.9275627  42.9976273  43.6346474
  28.9945831  15.8905544   7.9780059  29.5753326  16.3314571   8.5981398
  28.1707802  16.3745518   8.0356808   4.2759490  29.6322193   1.4968120
   5.2105570  29.8340797   1.4521692   4.2417917  28.6866627   1.6416748
  78.3708267  71.3310852  68.9164047  78.0297394  70.4416046  69.0097351
  78.9406357  71.4500580  69.6762695  46.8409424  67.9341812  60.8900833
  45.8959694  67.7854614  60.8562927  47.0257072  68.4760361  60.1229553
  10.1082125  28.1829910  64.9835129  10.7340889  27.6501827  64.4929810
   9.6429596  28.6837082  64.3134003  60.6859779  71.2845688  63.7849693
  60.9497223  70.4759369  63.3459015  59.8295288  71.4917603  63.4110718
  40.9796104  54.6587372  85.6224213  40.7059631  53.9808235  86.2403030
  40.6431084  54.3620605  84.7768555  57.8782959  54.6647797  14.4044962
  58.1041489  54.6035004  15.3326492  58.7037506  54.5071602  13.9462204
  42.5224228  40.9059067  26.8769989  41.9788933  41.3535690  26.2286110
  42.6793137  41.5644302  27.5537281  19.1634979  38.5095482  63.3711281
  20.0285683  38.1620560  63.1540260  19.2240429  38.7409782  64.2979507
  81.9949646   9.2664766  19.8398228  81.3971634   9.9789982  20.0660629
  81.6175919   8.8788443  19.0501614  48.8314056  37.5644226  74.4505463
  48.2261734  36.9059486  74.1094742  49.6126633  37.4774055  73.9043808
  79.8490753  51.4265060  69.9108047  79.9791794  52.0743942  69.2183075
  79.2123718  50.8114204  69.5467758  77.4034424  53.7215195   1.2490085
  76.8957214  53.9702873   2.0213842  77.0081558  54.2180023   0.5324308
   6.8799691   6.2316852  30.2763462   7.2471933   7.1154032  30.2968655
   7.5956621   5.6822777  29.9567108  69.6740799  14.7879448  78.1598206
  68.8515396  14.9241514  77.6895981  69.4094696  14.6427898  79.0681992
  66.6758118  38.1527252  31.6915874  67.6263123  38.0810471  31.7790604
  66.4981308  39.0900612  31.7694492  40.6725082  41.1071854  34.0672531
  41.2097855  40.3774033  34.3754387  41.1934853  41.8865547  34.2606468
  66.9871826  35.3113518   1.4449450  66.3811722  34.6544800   1.7877318
  66.4468155  36.0904846   1.3138440  57.4977798  45.8968163  62.4968224
  58.3438416  45.4813194  62.3301620  57.3683701  46.4838600  61.7519302
  77.0945663  56.6018600  27.0580482  77.0101166  55.6650124  26.8807964
  77.3588943  56.9813156  26.2199707  47.9328270  31.6922112  30.1620388
  48.2673302  30.8699131  30.5200367  47.4070854  31.4283924  29.4069042
  41.5272522  40.0785522  30.8229256  41.8149605  39.4514351  30.1594601
  42.0910110  39.9051819  31.5768166  36.6271172  66.6929169  32.0005798
  36.2765961  67.0556641  32.8140793  37.4053726  67.2198181  31.8191414
  75.4142456  21.4746284   6.1943054  74.6027985  21.9739380   6.2863240
  75.1261063  20.5710392   6.0649524  28.6086483  43.5633202  10.9490871
  27.8336487  43.0034485  10.9027185  29.2722263  43.0963020  10.4413557
  19.6857567  47.6102753  34.7910576  20.1874905  48.3526726  35.1277161
  20.3217506  47.0981293  34.2916107  14.8593636  61.7806320  57.9835167
  14.8215342  61.0408211  58.5897179  15.2280703  61.4133835  57.1801414
  79.1165695  55.5255852  59.0870438  78.9114990  56.4605598  59.0888100
  78.3418121  55.1111679  58.7072525   5.8293805  34.8267250  58.4136581
   5.0076995  34.4785728  58.0674477   5.7234545  34.7899246  59.3642654
  29.1002617  28.6927528  81.2165833  29.7278900  28.3457947  80.5826035
  28.2435265  28.4958630  80.8378067  41.5436707  16.7102222   2.9171677
  40.8750076  17.3771343   3.0732183  41.4436378  16.4824429   1.9928616
  66.9655380  70.1622772  53.6679459  66.2099152  69.9046402  54.1960373
  66.6425934  70.8784637  53.1211243  83.3073044  27.2019958  44.4673042
  83.9018402  26.9019146  45.1548424  82.8947067  27.9847927  44.8322983
  14.8072948  48.5851059  87.2459335  14.3538666  49.3092194  86.8143158
  14.7117567  47.8486710  86.6419678   1.9387327  33.8494568   4.5618620
   1.2151793  33.2239037   4.5246124   1.6914442  34.5386887   3.9453895
  70.5904007  32.7631950  39.4419365  70.1234818  32.2984657  40.1363716
  71.4973145  32.7996063  39.7459488  59.1594238  52.5109367  29.2530384
  59.8542938  52.3159180  29.8818130  58.8158875  53.3599014  29.5313797
  78.6672363  42.5942307  87.4094467  78.9237518  41.7615967  87.0130234
  77.8973541  42.8693886  86.9116516  21.8279305  24.9068623  80.9250793
  21.2624092  24.8099918  81.6912613  22.1797352  24.0294704  80.7745895
  46.3825302  53.7873802  58.9300957  46.1784554  53.6843872  58.0005913
  45.8557129  53.1179237  59.3665848  74.2707596  14.4146719  72.4411469
  74.1467972  14.4705038  73.3886414  73.5365219  13.8826237  72.1344681
   4.2416377  55.5303612  14.3791990   3.5983078  56.2085686  14.5850897
   4.0987411  54.8553581  15.0426655  44.9147682  33.4405785  28.4589939
  44.7782097  33.5351143  27.5163116  45.7857323  33.0512543  28.5369816
  84.1637344  26.9434605   2.1979389  83.2213669  27.1054249   2.1539290
  84.2669754  26.0441170   1.8868847  12.0301399  55.2641335  80.2325439
  12.9319544  55.5125694  80.4356232  11.8756742  55.6179924  79.3566666
  62.0062523  40.9361000  31.1622829  62.2735748  40.2134399  30.5943661
  61.5308800  40.5147743  31.8783379   8.4688740  41.9704514  80.7108078
   8.4624224  41.0280571  80.5432281   8.6212082  42.0451584  81.6528549
   4.4879603  14.2732983  16.8621807   3.6492436  14.1498289  16.4177246
   4.4778962  13.6340609  17.5745754   2.1554718  14.7903929  36.8012733
   1.5007004  14.1069126  36.9439659   1.6861984  15.6089916  36.9622383
  20.3002510  34.1936913  17.5982971  20.3098507  34.6992035  16.7855263
  19.3868389  33.9278107  17.7042160  54.6038437  14.7588005  38.4236374
  54.5760880  15.7070026  38.5515976  54.5863380  14.3969393  39.3096313
  36.5630531  17.7038574   2.7812750  36.0871468  17.7401810   3.6109884
  35.8829041  17.7763138   2.1116674  62.2245293  28.7763405  26.6862450
  62.3666077  27.8761501  26.9789982  62.9380112  29.2736549  27.0860577
  58.7593689   3.8742793   9.0455847  59.0052223   2.9497421   9.0775013
  58.4682541   4.0137305   8.1444540  70.7152634  34.8636398  49.4567184
  70.6389847  35.7909851  49.2321243  70.9824524  34.4407463  48.6406288
  15.5329618  41.1959686  66.3101273  15.2091265  41.0140610  65.4279251
  15.3848734  40.3823471  66.7921295  60.2184601  36.5398560  59.1368675
  59.3294144  36.5367699  58.7821541  60.7671051  36.2434845  58.4106522
  72.2312622  67.8868484   4.2447739  72.0893555  68.8114929   4.0419798
  72.7393494  67.5545731   3.5047226  42.4475937  57.7769508  15.4995403
  41.8557243  58.2606468  16.0756950  41.9050941  57.0810280  15.1285696
  39.4040642  57.4372826  19.5538158  39.1699448  56.5125618  19.6332321
  38.5640488  57.8944855  19.5142136  52.5485229  60.8663750  78.1788864
  52.5378647  59.9465370  77.9142685  51.8689384  61.2772255  77.6444702
  34.0633659  52.3905220  89.1474915  33.7715492  52.9852028  88.4565353
  33.2559090  52.0088081  89.4917831  33.5167885  36.3211021  21.0003700
  33.5735474  35.4147453  21.3029060  33.7487221  36.2789078  20.0726528
  64.0363235  28.5890751  54.0973358  64.8176727  28.4176865  53.5716553
  63.6272774  27.7304516  54.2054100  64.2328491  51.3733101  43.2556610
  63.7192154  50.8218918  43.8458710  63.6686096  52.1262245  43.0796242
  73.7472153  56.0603218  18.6402702  73.1734619  56.3680840  17.9386120
  74.4592819  56.6995125  18.6651115  75.1599503  69.5855713  45.2130775
  75.2850571  68.8454132  45.8070030  75.9520111  70.1128387  45.3173103
  11.8352060  15.6972885  78.5039368  12.0900822  16.6112976  78.3780060
  11.0507202  15.7405462  79.0506897  69.7157135  19.5961094   5.7207346
  68.8982773  20.0930824   5.6883698  70.2182083  19.9124184   4.9699459
  10.7564764  11.5620565  76.4401855  10.8341322  11.5925121  77.3937378
  11.0095577  12.4387760  76.1511459   0.8383100  63.8819237  75.0820999
   1.6013854  64.4011307  74.8283768   0.9249721  63.7759476  76.0294571
  56.4219551  69.9862747  68.1310730  56.3596306  70.9216080  67.9374237
  57.2350960  69.8983002  68.6283569  34.1565781  57.3774185  48.1195335
  33.3304176  57.7526474  48.4243202  34.4824448  56.8765259  48.8672981
   4.4891858  31.7859344  60.3364067   4.5139246  32.3392067  61.1171188
   4.5634623  30.8930206  60.6731834  83.3274231  63.5865364  65.0968857
  82.4702454  63.9988441  65.2040176  83.4368362  63.5041084  64.1495361
  80.3700256  31.1093407  43.7064133  79.7384949  31.1681519  44.4233093
  80.2112961  31.8944721  43.1823807  27.1978207   1.9946656  61.8011398
  27.5810089   2.4636841  62.5423660  26.7061176   2.6626430  61.3233643
  48.6916542  14.9558334  23.9743462  48.2191124  15.6546488  24.4266701
  48.0041580  14.4086123  23.5947018  57.9965553  22.1993046  62.0830956
  58.1365128  23.1392269  62.1979485  58.7340698  21.7902489  62.5358429
  27.6580677  42.6430130  19.1604843  27.1996861  42.3991928  19.9646416
  27.0701275  43.2623253  18.7280331  28.3879642  57.6694756  19.4213142
  27.5965576  57.3737831  18.9713402  28.2365704  57.4507523  20.3408108
  45.0978394  22.0316849   5.7094417  45.1421585  21.8061390   4.7802501
  44.4013100  21.4752846   6.0580072  12.8263578  42.4894447  17.7734241
  13.2669897  41.6472855  17.8867569  13.1738358  42.8326988  16.9502163
  86.3235168  55.8339081   2.3982842  86.4196930  55.0079994   1.9240928
  87.0274582  55.8211403   3.0467720  54.4650993  12.3815260  77.0641785
  54.1074905  11.6719141  76.5305099  55.4046783  12.2026567  77.1020050
  84.3601608  62.7486267  46.0981140  84.8333359  62.0181770  46.4965820
  84.2943039  62.5147705  45.1722603  43.0104218  34.3188515  33.0572548
  43.4144936  33.8949852  32.3000946  42.8043594  33.5987129  33.6532173
  77.7778702  16.5070381  54.0497513  78.2243805  16.2733288  54.8635330
  78.4445038  16.9582424  53.5318336  60.7744904  48.7953033  31.4499435
  60.9992905  48.5089645  32.3352165  60.3622780  48.0304718  31.0482635
  22.9559269  62.1727295  34.0913658  22.7969360  62.7607269  34.8297501
  22.1796627  62.2663155  33.5392036  43.0709953  40.0065918  77.7765198
  43.0590401  40.9583778  77.8774719  43.0455170  39.6703796  78.6723709
  71.1632309  28.4459686   1.0671192  71.6833496  27.9678497   1.7129656
  70.8164978  29.1975994   1.5478046  26.5168953  56.2451286   1.2024662
  27.3445816  56.0290184   0.7729732  26.7146187  56.2037621   2.1381087
  67.6618881   0.9073522  60.8366928  67.8725891   1.6294744  61.4286194
  67.8429718   1.2533772  59.9627876  35.7535667  65.4644318   0.5198084
  35.4980698  66.3845291   0.5859048  36.3861237  65.3400803   1.2273694
  67.0120010  10.5645466  50.5638962  66.5749512  10.7577248  51.3932915
  67.8710022  10.9792862  50.6435280  21.8366108  47.7598343  51.3879738
  22.4455872  48.3105812  51.8799667  22.3494873  46.9866333  51.1527061
  71.5045090  42.3677483  83.7467728  71.7113800  43.2490730  84.0577393
  72.3452759  42.0116234  83.4595108  49.6731796  20.2967205  88.3433838
  49.1337471  20.9620590  87.9161072  49.1038208  19.9221706  89.0155258
  61.9144325   1.8002335  56.3024025  62.1163940   2.6977623  56.0380478
  62.7118835   1.3079597  56.1075439  35.9152641  69.2056427  23.1022549
  35.6867523  69.0065308  22.1943092  35.1568718  69.6811295  23.4413567
   2.1411278  22.9055347  16.8509846   2.3833447  22.0420990  17.1857128
   2.0336666  23.4446831  17.6345673  82.1282043  17.3143730  10.9518738
  82.8535767  17.7096272  11.4354486  81.4397964  17.1968441  11.6064758
  73.0409470  38.5566063  25.5310631  72.5196686  37.8353691  25.1784706
  72.3946075  39.1755676  25.8707256  42.7209702  31.4799728  20.1302853
  42.8191109  31.4691277  19.1781921  42.0403366  32.1329155  20.2934856
  52.0314217  59.8651581  44.4902611  52.4920578  59.0407333  44.6463623
  51.9716377  59.9293633  43.5370903  55.7422981  16.4594193  52.5180664
  55.6787682  17.4060173  52.3909836  56.2346535  16.3596535  53.3328438
  56.1263313  17.2855148  71.0809021  55.5973625  17.8189774  71.6740646
  56.2289734  17.8274155  70.2985764  80.4264221  20.2128906  81.2321396
  80.9481583  20.9675045  81.5052338  80.3125687  20.3291683  80.2888718
  49.5914650  41.4685478   3.8013690  48.8000450  40.9307938   3.8279152
  50.1221619  41.0795250   3.1062045  22.3030357  45.2101402  50.3203278
  21.4929066  45.4900932  49.8942451  22.7653160  44.7077866  49.6493797
   9.8679676  68.4860306   8.0361347  10.2810755  67.7756424   8.5269690
   8.9998865  68.5756531   8.4293718  25.9776306  47.2970123  38.1538620
  25.6722775  47.6276398  37.3090668  26.8066521  47.7515144  38.3034668
  75.5001907  64.3926468  55.4495392  76.2366943  63.9984818  55.9168930
  75.9030685  64.8576355  54.7162552  49.0873756  58.9735870  88.2036133
  49.5856285  59.6571617  88.6516190  48.3213081  58.8320732  88.7598038
  13.7544012  69.6584091  58.1795120  13.4282913  70.5505829  58.2974167
  13.3338928  69.3540115  57.3753052  83.8388519  66.6384430  12.6389580
  82.9122162  66.4140778  12.7240105  83.8389664  67.5087433  12.2404566
  84.0421219  67.4793701  59.4113197  83.6662216  66.5990677  59.4111977
  83.5066376  67.9685440  58.7866592  80.3659210  59.2277679  44.4669189
  80.1437378  58.8386192  45.3127518  81.3200455  59.1679535  44.4189796
  53.6389656  59.9404602  87.6161270  53.3043442  59.9390259  86.7193222
  52.9480133  59.5227356  88.1302490  48.8903999  12.8244257   9.5507402
  49.0013847  13.3937988   8.7893410  49.2479324  13.3290567  10.2813225
  23.2498646  52.8448639  40.5159111  22.8870468  52.0521469  40.1206970
  23.5677776  53.3586922  39.7735176  70.5005569  53.0849495  79.3406906
  70.2687073  53.9212112  78.9367828  70.1646194  52.4248161  78.7343903
  71.5511780  58.8126755  58.5717735  70.7980881  58.2938766  58.2890434
  71.6504593  58.6042252  59.5007095  64.8225403  21.6903667  21.6988564
  64.9496613  20.7548542  21.8566132  65.0241165  21.8062420  20.7703247
  29.8973866  61.2765961  49.5700035  29.0681534  61.0772209  49.1354294
  29.8169117  60.8752289  50.4352531  59.6341591  49.7838058  78.3503113
  59.0688858  50.5212250  78.1202850  59.5913162  49.7380180  79.3054581
  83.7166824   7.6974001  58.2449760  83.6886139   8.5816860  57.8796234
  84.5270844   7.3217249  57.9009438   6.2132444  68.1563568  64.4567490
   6.4273472  67.8988419  65.3534546   6.6377430  67.4953232  63.9098854
  58.5675163  61.1817207  53.1728020  58.1272659  61.7126961  52.5091171
  58.0196686  60.4013672  53.2573357  33.6889610  44.7547340  21.5190678
  34.5992355  44.9940987  21.3448963  33.3292427  45.5069695  21.9891548
  55.0878944  54.3207207  80.3347702  55.4786720  54.3761902  79.4627380
  55.5687828  54.9650955  80.8541565  66.6864700  37.2969818  73.2210236
  66.2079773  38.1047783  73.4074173  67.2213364  37.5066566  72.4553986
  56.7077675   3.0818813  62.6793823  57.4023132   3.7300723  62.5623894
  56.5631256   3.0538776  63.6251755  44.9400635  65.0077362  82.0819550
  45.5968704  64.4065704  82.4332886  45.2032585  65.8678970  82.4091949
  25.6667805  44.8006287  70.7666016  26.3928394  44.3769684  70.3088074
  24.9258022  44.7210083  70.1659012  68.3935852  29.3317299  57.5921326
  67.9482574  30.0534248  57.1482086  67.6847153  28.7790070  57.9211197
  73.3777313  23.5818558  48.7382927  72.5116501  23.9771023  48.6387138
  73.9003677  23.9702702  48.0367088  31.9947014  50.6975975   1.3200688
  31.8924789  49.8044014   0.9914677  32.5755005  50.6097603   2.0758407
  52.8783035  50.3493576  29.4777927  53.5794716  50.7785301  28.9874802
  52.5275230  51.0361023  30.0448589  20.0915260   5.0975585  64.5397949
  20.3049316   5.8596277  64.0013275  20.4839993   5.2887144  65.3916473
  12.0618515  12.1813955  86.2589493  12.1727362  11.3617716  85.7771301
  12.7717352  12.7416077  85.9451752  82.2174225  48.9392128  50.1969872
  82.5569611  48.1373215  50.5943794  81.8706818  49.4431496  50.9332275
  19.6394310  17.3638535  64.3191681  20.5175381  17.5742359  64.0015106
  19.0511150  17.8107567  63.7105637  84.6685715  15.7006187  87.6953430
  84.0626755  15.9901915  87.0132370  85.0083084  14.8650551  87.3749542
  86.3492050  50.7082405  28.6559181  87.2569885  50.5400963  28.4031506
  86.0038834  51.2611198  27.9549828  54.9465485  70.1636429  88.6816711
  55.7708092  69.9675903  89.1270828  54.4216347  69.3704605  88.7892151
   1.5517761  51.4176865  51.7968216   1.0933108  51.8452682  51.0734863
   2.3737674  51.1128540  51.4125786   8.7417812  59.0761452  57.5603485
   9.4640522  59.2019730  58.1757507   8.9804516  58.2905388  57.0683250
  86.5628662  35.8839722  36.8279991  86.8316498  36.4534073  36.1070747
  85.9073410  35.3026886  36.4424667  82.4290390  12.0914602   9.9273348
  81.9668732  12.0949793  10.7655630  81.7826614  12.4076786   9.2961168
   6.9682808  41.2392693  35.9217949   6.8549981  40.3309975  35.6417198
   6.4096251  41.3230820  36.6945229  52.5260162  17.8631210  49.1145592
  52.4007339  17.0806923  49.6515312  53.2307472  18.3423672  49.5503464
   1.6135932  54.6344299  55.8832703   2.4283910  54.5299950  55.3919144
   0.9322531  54.3270149  55.2853546  49.5862770   4.3501520  62.6908951
  49.1052246   5.1765375  62.7345467  50.4949722   4.5922618  62.8694611
  79.5293427  56.6919975  23.1253395  79.3560333  55.7528725  23.0602608
  80.4389877  56.7878036  22.8432045   3.9840021  34.0686569  73.3056107
   4.5153785  33.6144943  72.6516953   3.5858102  33.3666229  73.8202133
  59.8504486  12.1818752  53.1369095  60.5240707  12.1092157  52.4607582
  60.2509499  12.7237720  53.8167496  61.7034264  61.4651909  87.6895218
  61.5939369  62.0438309  86.9349213  61.6328506  62.0447884  88.4480209
  28.9330807  64.5388107  61.3857613  29.8762150  64.3781738  61.3553543
  28.7292233  64.5923615  62.3194695  64.6346588  33.6237106  12.1220570
  65.1289749  33.6326180  12.9416943  65.2556076  33.2961121  11.4714174
  58.7410889  35.8974991  32.6895523  58.4352341  36.8043442  32.7072868
  57.9983635  35.4009056  32.3460617  56.5004005  31.0685406  44.5917549
  57.2578850  30.7236156  45.0644875  56.8736305  31.4974918  43.8217316
  39.0458260  37.5902405   8.5560856  39.4533691  37.5273056   7.6922679
  39.4461479  38.3632927   8.9540367  17.6078644  13.4117937  19.6773052
  18.0939159  13.8865547  20.3515358  17.1120911  14.0893517  19.2175694
  11.0676794  29.2310753  75.8673401  11.7857981  28.6683731  76.1569977
  10.2808123  28.8163757  76.2210312  86.9170456  39.6339684  23.0150471
  86.8911514  39.1979752  22.1633034  86.3933563  39.0730972  23.5872383
  11.3717813  42.1492691  13.9687233  10.8946753  42.2958527  13.1519527
  10.6914597  41.9437065  14.6099243   8.0006876  12.8567047  86.2126923
   7.4427013  13.2565660  86.8797684   7.3873277  12.4729347  85.5859985
  40.4837265  63.9089622  77.1879272  39.5351486  64.0116348  77.2646484
  40.6275024  62.9641533  77.2417221   5.4904923   6.2388892  81.0570831
   6.4025378   6.1783218  81.3412247   5.2995386   5.3800282  80.6800842
  52.0163956  40.8661041  41.3624878  52.6902885  41.1215096  40.7325096
  51.4714546  41.6469688  41.4600563  62.7240067  30.6301098  65.0306778
  62.1475677  30.5756245  64.2684555  63.1989403  29.7990437  65.0316925
  17.5480480   9.9468555  25.4441433  17.0488167   9.3239803  24.9159126
  17.0509720  10.7627888  25.3858185  41.6202507  65.1444702  36.8780899
  40.6691132  65.0912704  36.7845802  41.9377747  64.2899323  36.5862541
  47.8108711  50.8097229  30.1670876  47.1664276  50.9833488  29.4809570
  48.1492081  51.6737442  30.4020863   5.4925432  48.9536514  23.1542683
   5.2767172  48.9908981  22.2224598   6.3415685  48.5127678  23.1860313
  68.7869568  47.6177864  22.0597591  68.4874878  48.4764977  21.7611485
  68.7389374  47.6660728  23.0145340  38.4166679   7.6064258  18.9133015
  38.1664314   7.5647531  19.8362732  38.1557350   8.4839306  18.6337833
  85.6037674   4.3029099  42.5034561  85.7666855   5.0690141  43.0537071
  85.9332581   4.5534801  41.6403923  20.9861946  50.9557419  18.2857132
  20.4774017  50.7557526  19.0714378  20.3397713  50.9740372  17.5799980
  19.8929882  22.5986137  57.4682961  19.3027687  23.3032074  57.7355461
  20.1399879  22.1694355  58.2874603  39.3134689  65.4628983  62.5182877
  39.5074539  64.5279617  62.5853958  38.5644951  65.5100632  61.9241066
  33.6493301  29.3926201  10.0288572  32.8946800  28.8113403   9.9347973
  33.2971802  30.2691936   9.8744507  53.4427948  33.2328644  40.1577072
  52.5717278  33.0205956  39.8224220  54.0448036  32.8574562  39.5151482
   4.8573236  49.2010040  61.0805817   4.0084090  49.6281548  61.1951027
   4.7737379  48.7187080  60.2579994  84.6855011  60.0166931  14.1698771
  84.5371552  59.2619438  13.6001587  83.8297577  60.1938019  14.5604820
  78.1774902   1.7814435  75.4283218  78.1011658   0.8785879  75.7369537
  77.8882980   1.7481058  74.5164566  84.9664230  42.5241814  46.4495087
  85.2099075  42.8670311  45.5896263  85.3373947  41.6420174  46.4694443
  69.1916809  46.0776634   8.9846706  69.3854828  46.9889488   8.7650404
  68.2358704  46.0270271   8.9750204  64.6685562  46.8431320  87.9412079
  64.7156677  47.6770401  87.4736404  64.1915817  47.0463104  88.7458496
  73.4715271  66.1507645  43.4953690  73.5100784  65.1944351  43.5092354
  74.1915665  66.4111938  42.9209595  81.1268539  36.3964424  14.8937302
  81.0889587  36.0876694  15.7989674  80.2103271  36.4802513  14.6306896
  13.0294523  68.5142822  60.5875359  13.3218079  69.0534897  59.8526802
  13.5742254  68.7955322  61.3226242  65.0090790  36.4406357  47.7003059
  65.0018692  36.9171791  48.5304184  65.9351196  36.3837624  47.4648247
  79.7702866  28.3687782  76.3846664  80.0732193  28.7272453  77.2189178
  79.5735931  27.4516239  76.5753708  45.5460739  52.8816223  66.8297501
  46.2897720  53.0920944  66.2650833  45.9368210  52.4499588  67.5895004
  19.6590271  10.7795305  59.5132065  19.7781563  11.2748232  60.3235893
  20.2032299  10.0002832  59.6265640  56.8791733  59.5654259  46.0067978
  57.6109505  59.2453880  45.4792480  56.1302223  59.5515823  45.4108849
   4.9751372   0.9556986  33.5998001   5.1414881   0.3252252  32.8990440
   4.1713824   1.4025145  33.3341599  24.7738056  55.4021187  19.1256828
  25.1482582  56.1797752  18.7118340  24.5875263  54.8094673  18.3974686
  29.7493935  42.6741409  81.2823410  29.2368793  42.5867386  80.4786453
  30.5874825  43.0355377  80.9938507  51.7702904  17.4867268  54.1131325
  50.8331337  17.3032913  54.1788368  52.1218719  17.2474976  54.9706802
  78.5084991   0.7843565  20.8974495  77.6980362   1.0143774  20.4430580
  78.5013046  -0.1722429  20.9305801  25.2899685  62.6840935  67.1690979
  24.4758797  62.1817894  67.2034912  25.8376541  62.2100258  66.5433655
  60.6318054  58.1799011  18.2543392  60.9334984  59.0874596  18.2937164
  60.5618515  57.9108047  19.1702671  81.0376358  70.8368530  58.5510025
  80.9370041  71.7530060  58.2926064  80.1458130  70.4891586  58.5528069
  16.0935955  53.3885422  18.8042183  16.1979866  54.2501831  19.2078400
  15.4288244  52.9530716  19.3377705   3.0047007  42.2532425  33.4871864
   2.1122608  42.0145683  33.7378159   3.0779846  43.1798477  33.7158051
  33.7149734   0.6600271   4.8950229  33.3178177   1.5305820   4.8698683
  34.5154190   0.7468914   4.3773618  72.9896927  41.0125237  45.1134262
  73.6683121  40.4475288  45.4828644  72.1874542  40.4937935  45.1731682
  79.4947662  19.4040108  61.6195869  79.5322418  18.5767136  61.1395798
  80.4051666  19.6961918  61.6647034  58.2263832  22.8540249  80.8419800
  58.3084450  21.9062767  80.7358170  58.6797295  23.0431538  81.6635284
  72.3114548  49.2403145  47.9627151  72.4250641  49.8850861  47.2644348
  73.1981125  48.9331169  48.1516380  79.2553024  36.2417259  88.5026550
  79.3146591  37.1926346  88.5947266  78.4299240  36.0108757  88.9289017
  81.3222580  47.2732162  25.7319584  82.1369171  47.7754021  25.7511139
  81.3857880  46.7439537  24.9369240  15.4538298  52.9082298  83.4192047
  14.8044052  53.5304565  83.7467880  15.9298716  52.6255417  84.2000427
  54.6513367  16.7017784  15.1814814  54.9679413  15.8451347  14.8948536
  55.3931007  17.0876408  15.6474495  13.3958025   6.7956214  83.6764526
  12.5036211   6.6441693  83.3645096  13.8676901   5.9939227  83.4509888
  85.9381409  69.9720993  48.7178497  85.5386581  70.3900604  47.9549866
  85.2085800  69.8248825  49.3197632  67.9317551  14.5819569  50.8638229
  67.8500977  13.9744139  50.1286697  67.0290985  14.7668247  51.1231689
  63.6806221  52.6868935   7.2314630  64.0012894  52.8375206   6.3422403
  63.9904404  53.4435425   7.7291803  63.4045563  48.3668251   7.5177531
  63.3830109  48.0525932   8.4216480  62.5564308  48.7923393   7.3918271
   3.2431242  15.9581280  25.8299446   2.2989519  15.9354200  25.9856834
   3.4752748  16.8840809  25.9002895  15.3453703  71.6991348  84.3989716
  16.0355511  71.6367722  83.7386780  14.9267025  70.8384018  84.3898621
   8.5033064  13.8113022  68.5956421   9.4537849  13.8197880  68.7085571
   8.1735001  13.3641443  69.3750763  79.1236267  36.6370583  62.0498390
  79.1672440  37.5776749  62.2217865  78.1941223  36.4221725  62.1278229
  55.9378738  68.8937988  47.8939247  55.5525856  69.4760818  48.5486984
  55.2666206  68.8185730  47.2156982   9.0483084  33.3104019  55.4468079
   9.7153950  33.3399277  54.7609825   9.5159712  33.0012741  56.2226715
  53.6344795  29.7258110  38.9409103  52.8165855  29.6105976  38.4571648
  54.1255722  28.9208622  38.7762337   5.7290039  47.5074196   8.6134167
   5.9275064  46.8227806   7.9745903   5.3832960  48.2304382   8.0900049
  71.0173416   3.7321506  28.6239471  70.3990784   3.7546272  27.8935528
  70.7208557   3.0012779  29.1663074  51.8376350  11.2297211  27.4503841
  50.8937492  11.3527222  27.5513172  51.9492874  10.9739742  26.5347652
  62.2878990  53.6840820  15.1210508  62.1832581  54.6197548  14.9484234
  63.1893578  53.4921989  14.8626337  56.8119011  53.7392960  11.2802181
  56.2293968  54.1337700  11.9293041  57.6798592  54.0775490  11.5003700
  83.9490509   5.2845864  73.5792999  83.8472443   6.1523948  73.1884308
  83.0787506   5.0693755  73.9147034   0.9136549  47.1339378  19.2248135
   0.2619422  46.6235504  19.7054443   0.5668502  48.0261040  19.2249660
  73.9707108  29.7335815  26.2846184  73.3174286  30.4314804  26.3335762
  73.4623108  28.9413776  26.1108932  74.9126434  62.0706558  40.5964928
  74.6154785  62.0235138  41.5051727  74.2718964  62.6350784  40.1639366
  44.4709282  64.6237488  45.2466316  44.9267006  63.9100761  44.8003349
  44.7702637  65.4155731  44.7998123  19.0143375  43.1297188  31.8644829
  19.0257072  43.4122009  30.9499855  18.2464390  43.5613708  32.2389679
  58.8337784  21.7638016  24.1384830  59.4347534  22.3027115  23.6240559
  59.1333771  20.8662663  23.9938984  58.7642059  70.2489548  45.5464249
  58.8579597  69.6540756  46.2904434  58.2350235  70.9720383  45.8831062
  61.2665253  67.7851639  34.0031815  61.7526283  68.3413544  33.3944244
  60.9148598  68.3926392  34.6539841  59.0077286   3.5352299  43.4378166
  58.8341446   3.6084762  42.4993439  58.6876640   4.3589573  43.8055992
  73.7864456  18.6709080  87.1004791  72.9240799  18.5494747  86.7032166
  74.4027328  18.5392475  86.3799973  73.3085938  22.2457256  37.1803818
  73.0203094  21.6210594  37.8459015  73.5163574  23.0404301  37.6718178
  23.5872993  63.1886444  28.5241337  23.6280499  63.9016724  29.1614418
  23.4283009  63.6245232  27.6868992   8.5673523  53.7668610  52.4229355
   9.1624355  54.1624222  51.7860336   8.3779345  52.8988075  52.0667953
  10.2297354  42.9424973  11.6674128  10.9819746  43.5253448  11.7706509
   9.8398714  43.2002831  10.8320770  45.3640289  19.4953480  80.9302750
  45.6050491  20.1090107  81.6242218  44.5691109  19.8666992  80.5476074
  71.4113312  58.5497055  65.8267593  71.0361938  57.8897858  66.4098587
  70.8828583  58.4940643  65.0306168  71.6004486  28.1979389   7.3341241
  71.3831253  28.7104645   6.5554576  70.9202118  28.4252663   7.9680285
  45.6594315  67.3149109  83.2957535  45.7663231  67.9963913  83.9593735
  45.0335884  67.6836700  82.6724014  52.0084305  66.7557373  80.9050903
  52.4405289  66.4834900  81.7146606  51.2176819  67.2095871  81.1965790
   9.5279856  64.3526993  49.2819061   8.6882610  64.6887665  48.9686165
  10.1019363  64.3914185  48.5168495  71.8346405  62.4455070  36.3494682
  71.5865326  63.2655678  36.7762909  71.0482635  62.1746216  35.8756866
  52.6966209   7.9099936  77.7735138  52.5957870   8.8282270  78.0243301
  51.8004189   7.5906544  77.6682510  47.1727142  50.8952942  12.2345324
  46.8780823  50.3496780  11.5053358  47.2155762  51.7793732  11.8701096
  14.8964996  66.6761093  69.5547180  14.3188028  67.4067383  69.3340912
  15.7540941  66.9396667  69.2210999  39.2408257  27.0445328   9.0442486
  38.8864784  27.6967831   8.4398985  40.0182991  26.7048302   8.6011181
  64.2740021  37.2247276  66.3678513  63.3439636  37.0439491  66.5041275
  64.5661240  36.5380936  65.7683258  41.3017387  34.0733566  39.5937080
  40.5038300  34.1958580  40.1080704  41.4323120  33.1252632  39.5763435
  59.9091873  20.0843811  45.1641045  59.8935928  20.8540344  44.5952263
  59.8008690  20.4371281  46.0473213  77.4742584  39.5297012  44.9365730
  78.3885727  39.2583008  44.8552742  77.4554825  40.0757599  45.7225113
  75.9950638  14.5482988  86.4823227  76.1361008  14.3886032  85.5491409
  76.6155777  15.2429447  86.7029114  54.1673889  50.0612564  55.6570854
  54.4523621  49.1796608  55.8975258  54.4859009  50.6180382  56.3675652
  53.2966919  69.1004791  27.3992500  52.6080513  69.7626953  27.4581966
  53.6896133  69.2395859  26.5375671  47.9116364  15.5127106   1.5498563
  48.7042999  15.9843044   1.2938979  47.8114891  15.7013264   2.4829302
  75.4115143   2.4567156   7.0405574  75.2214508   2.2422090   7.9538450
  74.6400833   2.1582146   6.5588760  18.0660896  61.3394890   4.0527492
  18.7090511  60.7607880   4.4625463  17.8732338  60.9256401   3.2114596
   4.4899979  21.0881691  84.9730225   3.6443851  20.8282318  85.3385391
   4.6787887  21.9323273  85.3828888  57.2600174  22.1451626  30.1512527
  56.7021751  21.8493919  30.8706703  56.6663361  22.6145573  29.5652122
  45.6641541  19.1301384  87.7380600  46.1712837  18.3226719  87.6540985
  45.3832130  19.1424866  88.6530151  25.1652164  65.5451813  61.2709465
  26.0165176  65.5716629  60.8341217  24.6956482  66.3049545  60.9267349
  17.6899281  44.7683868   8.5437841  18.0464668  45.1126366   7.7248793
  18.0996380  45.3005409   9.2258291   2.7492268  48.4575043  28.4894886
   2.2622249  49.2161522  28.1677570   3.4330969  48.3166313  27.8347301
  87.0938568  68.3772430   6.0910735  86.5028000  69.1247940   6.0013700
  86.5465546  67.6815414   6.4553390  52.3506775  24.4140682  30.1998787
  52.1843758  24.9971523  29.4592094  51.7122383  23.7083225  30.0971699
  54.5870743  47.3447113  55.8850174  54.8498497  46.7796249  55.1584778
  53.8172379  46.9142761  56.2569160  25.6743660  15.2636299  76.4107437
  25.7289715  14.5453415  77.0410767  25.6229858  14.8309784  75.5584564
  12.7342558  44.0839157  47.3967361  11.9430676  44.6143875  47.3026428
  13.2359409  44.2587585  46.6005135  60.1653328  30.2329540  70.9729996
  61.0581741  30.5178452  70.7783051  59.6316605  31.0183907  70.8525085
  41.6763878  57.6221085  82.2415771  41.6408577  56.9057655  81.6076889
  42.5659485  57.5868340  82.5932541  53.9862404  65.1694412  14.5864201
  54.6821899  64.5199432  14.6865978  53.3688583  64.7667007  13.9757891
  18.8156853  34.9369774  70.8513031  19.1149292  35.0170021  71.7569962
  19.4782791  35.3996811  70.3383636  83.0090637  19.2114334  37.6269035
  83.7612991  19.6566734  37.2368622  82.3715591  19.1503830  36.9155045
  84.4029236  52.2361221  33.0875549  83.8867798  52.7185097  32.4417038
  84.0763168  52.5435486  33.9331627  16.7822323  48.4565887  30.0551605
  16.6611404  48.0891876  30.9307098  15.9284124  48.8263130  29.8303719
  29.7064991  19.4935017  81.3032074  29.7527084  19.7903557  80.3943710
  30.0364113  18.5952835  81.2788544  70.3862610  66.1236038  54.9648857
  69.4559479  66.2636261  54.7884140  70.4276657  65.9455566  55.9044685
  30.7985287  29.3840275  66.3371124  31.7159710  29.3305893  66.6048355
  30.3656998  28.6827469  66.8240356  55.4340782  28.0995541  37.9281158
  54.8771782  27.5688133  37.3585472  56.2766380  27.6453304  37.9300728
  27.6602859  12.6069984  69.8471146  28.1565094  11.8650312  70.1927719
  27.5972729  12.4360676  68.9074097  66.8850555  26.3018608  63.1317596
  65.9821548  26.1950302  62.8324509  67.2459946  26.9839497  62.5654449
  60.0400467  15.8534985  19.2812767  59.7982597  16.4273319  18.5543060
  60.0204201  16.4214764  20.0515022  48.8751907   0.8768113  46.3607826
  49.1084328   1.8049258  46.3815918  48.0427628   0.8495670  45.8890228
  67.7496796  25.9831104  68.3853989  68.2279053  25.3989220  67.7969666
  66.9189224  26.1455860  67.9385452  83.4017487  20.2515392   0.8706190
  82.6248016  19.9197521   1.3206247  83.1534805  20.2703209  -0.0536335
  21.8586044  61.8700142  73.0247345  22.2733917  62.3409004  72.3019333
  21.5614262  62.5583496  73.6198120  19.7859821  57.3863335  51.5910873
  19.2926655  57.9840889  52.1528320  19.2638683  56.5841751  51.5780373
   3.6079705  10.1760788  34.1393509   2.9298301   9.6079569  34.5048561
   4.1014371  10.4805651  34.9009361  40.0960197  60.7859154  70.6968002
  40.4638748  59.9112892  70.8230743  40.6412468  61.3556824  71.2393188
  85.3418427  14.7859421   6.4024539  85.3438263  15.7310991   6.2511077
  84.8420410  14.6739101   7.2110844  86.9693680  50.8484688  69.3444443
  86.7186661  51.4513435  68.6445007  86.3637161  50.1126480  69.2551498
  57.1850471  11.4488096  24.8765697  57.3357735  11.3891020  25.8199406
  56.3487167  11.9074163  24.7961941  53.7050056  45.2250786  25.4518394
  54.3185959  44.8748093  24.8060436  52.9434395  45.4933395  24.9377556
   3.6420000  36.8854256  35.8969803   3.2174411  36.7608719  36.7457848
   2.9518056  36.7135010  35.2564278  52.6923409  41.9787445  17.1269512
  51.8249435  42.0581741  17.5238628  52.8510399  42.8329391  16.7252140
  57.7702141  60.7846985  32.5349197  57.4827538  61.6280632  32.8846817
  57.4423027  60.1407547  33.1626472   8.3424740  44.4418221  45.6645813
   8.5286446  44.7326393  44.7718353   8.9512863  44.9394302  46.2104416
  82.9953613  66.5071182   6.4733319  82.3891373  66.5476532   7.2129807
  82.7839737  67.2787323   5.9478278  54.4036636  33.7052765  68.4790192
  53.6084633  34.2359200  68.5270538  54.4933815  33.4917564  67.5502625
  72.9619064  55.3236389  43.9704437  73.4182663  55.1785240  43.1416473
  72.0455551  55.1257401  43.7771378  57.0308838   5.6080670   3.9422657
  56.4245567   5.8015547   4.6572208  56.8975716   4.6778278   3.7602928
  73.8111801   0.7648100  88.5044479  74.1853790   0.8901108  87.6323776
  74.3040619   0.0319633  88.8735428  78.3560028  39.0697441  76.3271332
  79.2570190  39.3750076  76.4330521  77.9551392  39.7070084  75.7360001
  55.4549370  32.2684669  29.7789383  56.3640251  32.4365921  29.5308933
  54.9473190  32.9026909  29.2726631  85.6190872  60.6118317  47.2262878
  85.9248276  60.2694969  46.3863106  85.4498215  59.8322830  47.7553253
   9.4611673  35.9778214  29.4951935   9.9211655  35.2575607  29.9263096
   8.6149569  36.0221558  29.9403839  20.7405701   6.5321875  66.7720413
  19.7842064   6.5716267  66.7653427  21.0145531   7.4088020  67.0416870
  64.3070068  11.9715643  34.1171608  64.0792618  12.7032309  33.5435486
  63.7846146  12.1143866  34.9064255  70.6898117  17.4918499  63.9414482
  71.0359116  16.9176083  64.6245956  71.4434128  18.0107193  63.6602135
  75.5822372  46.2054176  79.6615677  76.2718811  46.1217194  80.3200684
  75.0517349  46.9430428  79.9627609  74.8467178  42.1815872  36.7738647
  75.3268204  42.6756668  36.1093254  75.5053482  41.9653549  37.4339256
  50.3639374  43.3740959  40.7859802  50.0262222  44.0796890  41.3376350
  49.5833435  42.9012871  40.4972649  40.4623146  54.0904350  65.9411926
  41.2965965  53.6393967  66.0707016  40.0141983  53.5768700  65.2691269
  20.2296200  59.1243782  70.5140381  19.4103127  59.2405128  70.0329132
  20.1232929  58.2895584  70.9701080  16.6599636  66.4877472  83.3431168
  15.8493061  66.7958527  83.7482529  16.4317017  66.3523865  82.4234390
  82.3301620  11.0216427   7.1983471  82.6970978  11.1223736   6.3200297
  82.9840775  11.4131317   7.7774558  64.7490768  55.2348175  28.3071575
  64.4236984  56.0769997  28.6251030  64.7761459  54.6790199  29.0859966
  20.7000675  53.5651512  41.4833870  21.4734516  53.5126457  40.9218254
  19.9725170  53.3174515  40.9128227  75.4647522   1.5385175  36.2718658
  76.0870514   1.0732386  36.8308754  75.4402847   2.4265990  36.6281586
  55.7191658   0.6634637  30.2138958  55.6578903   0.2064646  31.0527229
  54.8128433   0.8736829  29.9889069  23.9341431  33.9813042   3.6781447
  24.4482365  33.4725456   4.3051238  24.4736843  34.7502136   3.4940135
  79.1635437  34.8884583  20.5584049  79.3364716  35.2303429  21.4355831
  79.3387527  33.9500275  20.6282558  71.1975937   6.0124316  16.0832710
  71.6558075   6.8245521  15.8670874  70.2775345   6.1996927  15.8971214
  80.3923645  57.8687935  69.1042862  79.4745789  58.1388321  69.1355896
  80.7495651  58.1356583  69.9512939   1.8279107  67.8225021  39.6638680
   1.0379205  67.4947662  39.2340584   2.3335752  68.2273560  38.9591522
  73.1803741  44.9731216  12.0421276  73.1784668  44.3884392  11.2842531
  72.2544250  45.1399765  12.2182379  52.3984795  40.4969063  69.9208298
  52.2595673  39.6842270  70.4071274  53.3487968  40.5589027  69.8244629
   2.9922197  26.4501820  78.9997787   3.3421783  27.3383846  78.9300919
   2.0454068  26.5707912  79.0721054  67.1687927  39.8531876   7.1293468
  68.0385818  40.2449379   7.2082930  66.7309418  40.3755493   6.4572945
  19.1098728  50.9756241  15.8878717  18.3901997  51.5605125  16.1249599
  18.6789455  50.1799355  15.5757570  47.6387978  43.4444771  60.3686562
  47.6856995  42.7416344  59.7205467  46.8192329  43.8979263  60.1713448
   5.6255441   3.2468350  13.2382164   5.6354833   3.4320998  12.2991686
   6.3647313   2.6538634  13.3731937  55.4443817  55.8151665  82.7039413
  55.2835350  56.3276215  83.4962540  55.0655632  54.9566765  82.8929443
   6.1254306  64.7173996  57.8094864   5.8122749  64.9729156  56.9418030
   6.3189569  65.5460129  58.2478752  52.5548744  21.4817333  37.7112999
  52.0536919  21.7005577  38.4968948  52.0789833  21.9064159  36.9975739
  34.8104439  66.2521973  50.7084846  34.7040825  65.9572601  51.6128769
  33.9468460  66.1309052  50.3138695  50.2960014   0.9213020  -0.0775730
  50.9633675   0.2897772  -0.3459569  50.5223999   1.1393461   0.8265467
  13.1359673   8.5950546  72.9506454  13.6191835   7.7691288  72.9747391
  12.2150698   8.3339777  72.9548645  36.3523521  42.2273941  78.7719345
  36.1987648  41.2832260  78.8064194  35.8688049  42.5762253  79.5207520
  57.2821503  39.0659103  24.6329231  57.5393562  38.4772453  23.9233112
  58.1101913  39.3546066  25.0166397  64.4855576   4.0803256  39.6721191
  63.5968170   4.3304648  39.9247017  64.7223434   4.7009902  38.9829597
  56.4034538   2.1171727  16.5380974  56.1125870   2.6361585  17.2879524
  55.6192436   2.0151105  15.9988060  77.0722809   5.2152343  53.0190964
  76.7258453   5.3187585  52.1328125  77.9839783   4.9533520  52.8908157
   6.4567919  35.2064285  71.7034454   6.1501689  34.6996231  72.4553452
   5.7542272  35.1266365  71.0582504  73.2252655  53.6135941  86.1588211
  72.9471359  53.2017517  86.9768982  72.4691315  54.1311798  85.8820648
   8.0600700   9.3172636  27.3897934   8.8126154   8.7331724  27.2962780
   7.4963913   8.8812151  28.0288239  84.4588547  25.9638367   7.9879923
  83.5102768  26.0821323   8.0372953  84.7952423  26.8256207   7.7422137
  46.7686539  47.1050835  60.2327919  46.3475685  46.4714394  59.6519203
  46.0421486  47.5448456  60.6744194  54.9150848  29.7918053  27.9822426
  55.1458282  30.1114826  28.8544788  53.9720955  29.6336460  28.0268230
  11.7650690  19.3742619  87.6050339  11.5078506  18.4700165  87.7850723
  12.3006697  19.6252804  88.3575974  11.0276108  18.7915897  26.7135849
  11.0308313  19.5167828  27.3383369  11.9488821  18.5471439  26.6256161
  59.0241928  16.2347240  52.6975708  59.8504562  15.9529028  52.3050232
  58.4926186  15.4395132  52.7336121  78.9057922  54.6968727  55.9407501
  78.1353836  54.6677933  56.5080719  79.3765717  55.4834404  56.2162628
  10.3569784  42.7708397  64.8464508  11.1470604  42.2403755  64.7434387
  10.0624142  42.9381561  63.9512062  80.1538849  25.7351837  69.8156128
  80.0413361  24.9378986  69.2980270  81.0451584  26.0241032  69.6196976
  20.0683193  22.7761440  83.3948364  19.4251041  23.3800640  83.7660294
  20.7651901  22.7361526  84.0498199  23.4040375  11.3888712  68.6794357
  24.2197971  10.8882389  68.6678696  23.1140175  11.3531799  69.5909424
  82.9746704   2.8552368  64.1445923  82.4631195   2.1573400  64.5538483
  82.5388031   3.0120170  63.3069382  22.8366432  70.6832123  23.6242237
  23.4260120  69.9699097  23.8693142  22.5533466  71.0572205  24.4585476
  40.5370865  31.1316891  27.2585144  40.1134109  30.3116970  27.5121746
  41.2055931  30.8700142  26.6253834  31.0326538  18.9652786  10.4997616
  31.6601582  18.7109814   9.8231506  30.2358913  19.1851768  10.0170145
   5.4187198  32.4382515  72.1075363   6.1590595  32.1404533  71.5789108
   5.5584512  32.0347710  72.9642181  84.4443665  66.0091705  84.8471832
  84.6856079  65.1613541  85.2203445  84.9965439  66.0946198  84.0699921
  74.7714844  27.9398441   4.8609347  74.7057114  27.7319908   5.7929773
  75.2826004  28.7486191   4.8313904  71.3250732  42.4437523  54.7456551
  71.1100616  43.2466660  55.2203445  70.6031113  42.3303452  54.1274834
  26.1948318  59.9752579   5.6607685  26.4938202  60.8230400   5.3319798
  25.2397499  60.0383263   5.6521640  15.6336851   4.4586868  88.3692017
  15.5493841   3.5056200  88.3411255  15.0742111   4.7272534  89.0979614
  54.6894035  58.2186089  56.0647926  54.0865211  57.5014000  55.8688889
  54.1239166  58.9343834  56.3548355  50.7641792   2.3452828   2.3513942
  49.8267555   2.2016923   2.4812162  51.1480789   2.2203221   3.2192872
  40.8408470  22.4421368  25.1965008  40.8641167  23.3615818  24.9313412
  40.4899216  21.9818153  24.4341450  70.4525070  51.5239830  49.7926826
  71.3562775  51.5881195  50.1014061  69.9217224  51.6266174  50.5825996
  84.9971542  28.7815170  87.5022202  85.5038376  28.6752129  88.3073273
  85.3543320  28.1235409  86.9057999  31.5501881  66.0498581  46.9318886
  31.7544594  65.4325790  46.2294159  30.9481831  66.6773529  46.5317993
   5.7061048  65.5334549  31.0194016   5.9406323  66.4522858  31.1496983
   4.8236732  65.4576950  31.3824539   3.5733147  31.7284298  28.6080208
   3.3627019  31.2812386  27.7883282   3.0293803  31.2935581  29.2647190
  46.5395393  56.2417603  32.0183334  46.2532120  55.5936775  31.3747196
  47.3377953  56.6145134  31.6440735   4.2408504   1.9450299  84.0396957
   4.3967018   2.8336015  83.7197189   3.5517168   1.6028445  83.4702759
  54.0203514  43.5128517  35.0165825  53.6603508  42.6262054  34.9944572
  54.5458336  43.5779610  34.2191734  37.8441277  69.6287384  71.4043655
  37.1025620  69.9299927  71.9292984  37.4923897  68.9048996  70.8861237
  27.2835007  46.1833954  14.2814484  26.7870770  46.6603088  13.6163568
  26.7539330  45.4074478  14.4650135  11.7432003  31.7245026  75.1904526
  11.6079378  31.6081848  74.2500229  11.6937475  30.8391247  75.5508575
  22.1674156  55.2294121  60.8109932  21.4466591  54.7102776  60.4542809
  22.2201691  54.9664230  61.7298431  51.1209641  51.0464096  68.0064697
  51.5101814  50.2308311  67.6909180  50.3074570  50.7748222  68.4315338
  73.7828217  62.4712029   9.1277428  73.8623886  63.2453423   9.6850681
  74.2821579  62.6901360   8.3409977  50.3894005  46.9290543  68.7029648
  50.6629143  46.5721550  69.5479813  50.7317390  46.3090973  68.0590057
  53.6594887  71.2120743  76.4993744  52.8592339  71.1987534  77.0243988
  54.1458397  70.4384689  76.7843857  10.2865133  25.6284237  10.8167124
   9.9404259  25.4944515   9.9343815  11.2070808  25.3737240  10.7541342
   4.7010822  66.9850693  86.8760757   4.6018124  67.7912750  86.3697052
   5.5956278  66.6968460  86.6945648  83.6747513  12.2630873  71.2205887
  84.0365219  11.4848185  70.7967377  84.4413910  12.7454777  71.5300903
   3.8880384  14.0151968  88.1608505   3.5027816  13.1415319  88.2280731
   3.3372848  14.5634708  88.7196884  60.8961983  60.4137230  77.7139435
  59.9670982  60.3860321  77.4853973  60.9531746  59.9387016  78.5429993
  16.0636349   7.4268899  16.3013020  16.0806026   6.5278864  16.6295338
  16.6540680   7.9054914  16.8831635  65.9481125  40.7975197  58.1098633
  66.5770035  41.4820213  57.8814125  66.2810822  40.0119019  57.6760750
  53.0619469   8.1142845  87.3313904  53.6625671   7.5879927  87.8591309
  52.8438911   8.8607187  87.8895340  57.7693634  26.7970486  77.6601334
  57.3875198  27.6514053  77.8613815  57.2804260  26.1815281  78.2063141
  46.3079453  67.8615417  72.1028366  45.5168114  68.3846054  72.2322464
  46.0324173  67.1492691  71.5257950  40.0161362  55.4391289  48.5079422
  40.8756714  55.6074295  48.8940849  39.8552513  54.5108070  48.6769562
  80.6991959  23.5055866  78.6961746  80.4998093  24.2244968  79.2958755
  79.9707947  23.5027046  78.0751648  64.1691742  54.2764359   2.0370731
  63.6685829  53.6012611   2.4950819  65.0485153  54.2173920   2.4105759
   9.6445055  39.7554512  61.1997986   9.8883400  38.9792328  60.6955528
   9.9821777  39.5855980  62.0792084  78.7454224  39.3849182  62.3111305
  78.7849884  40.3372841  62.2235947  78.3325958  39.0868454  61.5006027
  19.7666340  19.2996006  18.0189857  20.1107903  19.4449368  17.1376991
  18.8348446  19.1251240  17.8864746  20.1647263  49.6770515  66.4979095
  20.5777550  48.8140602  66.5276260  20.1738014  49.9783363  67.4064102
  80.0875320  68.5963135  35.8067436  79.2999039  69.0476303  36.1103477
  80.7326889  69.2935257  35.6888924   3.9661477  66.3375015  38.0818977
   3.2893455  66.3080978  38.7581444   4.4674292  67.1287689  38.2789803
   3.3873098  33.9838409  57.3508644   3.3800521  33.0289154  57.4164505
   2.4772987  34.2410202  57.4990883  69.5095139  63.1379662   2.3230517
  69.9997330  63.7432098   2.8794663  69.6761856  63.4438248   1.4314781
  80.2182693  13.0917225  41.1022148  80.3078156  12.2926159  41.6214867
  79.7823105  13.7104959  41.6881256  23.0324192  35.3603325  21.9755020
  22.5533466  36.1626892  22.1827259  22.9076557  34.8019180  22.7428627
  35.0876389  39.3850174  74.3581161  34.8156662  39.8749237  73.5820694
  34.5185547  38.6154137  74.3671417  58.5100403  38.4957428   9.6689520
  57.8486557  37.8038864   9.6571989  58.6253128  38.7011604  10.5967178
  15.2813740  45.2304268   9.7375650  14.6765738  44.5038338   9.5875416
  16.0516262  45.0132484   9.2124205   6.6480756  57.1296959  84.0307159
   7.1379371  56.3624649  83.7346954   5.9882302  57.2692795  83.3514938
  47.8407860  52.1365891  20.7452908  47.8455849  53.0635300  20.9840260
  48.1130333  51.6824722  21.5427170   5.2133484  61.1633377  14.9970760
   4.5432901  61.4145126  15.6328163   4.8706951  61.4654884  14.1559305
  12.1231928  44.1719170  83.6476898  13.0387564  44.4201050  83.7756653
  12.1577320  43.4356689  83.0369797  50.5990562  27.9816456  21.4466019
  51.4775429  28.2111835  21.7496033  50.6939621  27.1020622  21.0811443
  66.5115356  64.0466232  74.7140961  65.6222610  64.4006424  74.7235794
  66.4205856  63.1611443  75.0660858  38.2816734  41.6582375  37.5193329
  38.7256050  42.2658882  38.1108704  38.8588715  40.8955536  37.4820557
  10.5193195  57.3875580  73.1195145   9.9928570  57.3572998  72.3206711
  11.2281580  56.7636337  72.9629898  42.4916687  38.3484459  68.1465149
  42.4973183  37.7695656  67.3842163  41.5772438  38.6165771  68.2368698
  33.6726151  63.1230545  61.5305061  33.8469849  63.9919434  61.1687546
  34.2745438  63.0466309  62.2708282  19.4158478  47.9277115   6.2576838
  19.3284969  48.8462601   6.5123825  20.2667904  47.8798599   5.8219790
  71.1847763  16.4793644  41.5821915  71.2718048  16.0707722  40.7209625
  70.3923798  17.0121841  41.5155334  61.3199615  37.3168983  62.9148979
  62.1999016  37.6804695  62.8161545  60.8826790  37.5200844  62.0880165
  69.1050949  17.9746609  66.8462601  68.9911652  18.8745613  66.5405960
  68.3682632  17.4971447  66.4650879   7.8471665  36.4064522  75.9772110
   7.2266545  35.7534523  75.6534958   8.6892080  36.1405334  75.6077728
  72.1286163  18.1850300  17.8135300  73.0306931  18.4763069  17.6807289
  71.9114685  18.4744625  18.6997070  21.3484306  41.5516510   2.6041794
  21.6812553  42.0252113   1.8418131  21.4853268  42.1516190   3.3373461
  73.7382202  59.9775581   5.6548276  73.8131104  59.4093323   4.8881860
  74.5150757  60.5354500   5.6162553  63.9126549  68.1824265   5.1009150
  63.3428917  68.0901260   4.3373184  64.7268982  67.7485123   4.8460464
  25.2262344  60.8834000  21.4424114  26.0270023  61.2424316  21.0601788
  25.2727299  59.9452133  21.2583714  64.1842270  62.3379211  29.1707821
  65.0222473  62.6687698  28.8475227  63.6274796  63.1142006  29.2311878
  61.2417984  17.3662090   5.1876392  62.1132812  17.7614880   5.1652822
  61.4026833  16.4423618   5.3796210  48.8193970  62.1223488  28.8885174
  48.4741402  62.9435463  29.2387543  48.0595589  61.5417595  28.8461990
  84.0683594  11.2740803  23.4945240  83.8091431  10.4483576  23.0855942
  84.9976654  11.3644133  23.2836819  79.1789398  51.5083580  57.5537300
  80.0012131  51.1247749  57.2488213  78.6426086  51.5837059  56.7644882
  76.8479156  16.7154770  68.7685471  77.6832886  16.8074684  69.2267151
  76.3541870  16.0864697  69.2946777  72.1386795  27.7307091  74.9728546
  72.2430038  26.7836494  75.0646362  71.6250610  27.8386269  74.1723709
  82.0371017  56.7304726  19.5317020  81.2778549  56.9641953  18.9977016
  81.8352051  57.0782928  20.4003181  42.4094124  48.5629158  70.5402679
  41.5638733  48.6689224  70.1043167  42.6207924  47.6357956  70.4307404
  43.1989441  43.5732079  54.4476357  43.4757118  42.7489281  54.8478775
  43.3599701  43.4511032  53.5120125   1.4990487  63.9879456  38.8259277
   0.9133864  64.1395798  39.5677109   1.2089516  64.6116714  38.1603165
  -0.2225325  59.6169891  16.8468933   0.7165482  59.5422134  17.0165043
  -0.2864110  59.7294807  15.8984747  69.9274673  60.4803810  37.7868347
  70.6872864  59.9477997  38.0219002  70.2807541  61.1632042  37.2166023
  38.0387344   7.8267331  70.6315536  38.5054092   8.6248522  70.8794556
  37.1351776   7.9824123  70.9064789  74.5629654  58.0912437  58.1078453
  74.4145432  58.8060455  57.4887619  74.7732468  58.5287094  58.9328537
  48.3426056  11.0757561  27.1915035  48.0107307  11.8981867  27.5516396
  47.9127464  10.9964237  26.3399429  85.9066544  58.1753731  53.1010933
  86.5806427  57.5838509  53.4358521  86.3034821  58.5779533  52.3286400
  22.9778500  56.7046432  75.7280884  23.6189613  56.4882812  75.0510406
  23.0035114  57.6597595  75.7857819  70.0352859  37.0399742  20.2862015
  69.2843399  36.5271034  19.9874153  70.4066925  37.4097939  19.4852486
  57.3355179   4.5438814  88.6317062  56.5921059   4.1712327  89.1057358
  57.2541771   4.1931653  87.7447891  22.8748436   9.0928612  65.3159027
  22.0074558   9.4653835  65.1574783  23.3716812   9.8053293  65.7181091
  52.0102272  55.7113800  70.9784927  51.9259415  54.7579193  70.9720535
  51.9578819  55.9502068  71.9039383  43.7763519  55.2768021  85.8294449
  42.8275414  55.3638268  85.7376938  44.0758629  56.1551628  86.0639801
  86.1928177  35.2644081  21.9351807  86.5587387  35.3242950  21.0527153
  85.5506973  34.5566292  21.8806820  65.5910645  37.4272385  88.2179489
  65.3718338  38.3279419  88.4564819  66.3716202  37.5078583  87.6697998
  46.2700615  13.6098251  41.2243500  46.7165146  13.3692989  40.4125252
  46.9258919  14.0970650  41.7230606  12.2190228  32.0926323  18.0236015
  11.7858181  32.3912849  18.8232098  12.1710854  32.8426361  17.4307880
  51.7312584   9.5646048  56.5778236  51.7894325  10.4238415  56.1600227
  52.2847214   8.9986410  56.0396843  85.9253540  67.6329651  15.6097202
  86.1180038  68.3484650  15.0037661  85.9608994  68.0371780  16.4766560
  66.6497116  33.2683716   9.9886904  66.1222610  33.8007011   9.3931608
  66.9712296  32.5487061   9.4456062  38.6507759  12.0827370  80.3309555
  37.7054749  12.1658707  80.4563751  38.8136482  12.4726839  79.4720917
  61.8026772  55.6116104  85.1333542  62.1102142  56.3352547  85.6792374
  62.5243034  55.4457207  84.5267410  80.9457474   2.6571002  77.0496750
  80.0657196   2.4794197  76.7177048  80.9195175   3.5754602  77.3182983
  54.2830200  19.2006416  37.7897339  53.5348816  19.7966232  37.7533264
  54.4614792  19.0970821  38.7244301  41.6910248   4.0273147  33.8638840
  40.9385834   4.0375137  33.2723160  42.4276161   4.3050065  33.3193169
  42.7864647  45.2081337  63.0559921  43.1621857  45.0347748  63.9191322
  43.4599075  45.7113457  62.5983009  80.4563217  71.5313110  43.0565758
  81.1167831  71.8895111  42.4635162  80.7168503  70.6188507  43.1821709
  70.9042664  58.4037590  71.5499878  70.4533386  57.6286201  71.2152328
  71.0529175  58.9472313  70.7761841  49.6524620  45.8822937  58.0155754
  48.9973831  46.5751457  58.0996017  49.3112984  45.3124275  57.3263016
  72.0481415  40.6963425  34.3256493  72.5067978  40.1015892  33.7322426
  72.2885132  41.5712967  34.0208473  38.5154190  62.4377975  14.2728748
  38.1656570  62.2334442  13.4056158  37.9499512  61.9582405  14.8782730
   8.7056360   3.3359838   9.7407780   9.5707808   3.0074525   9.4961901
   8.7153664   4.2560010   9.4767609  72.9335022  41.0575371  61.5030251
  73.5824432  40.3547974  61.4675674  72.1757965  40.7077255  61.0342522
  20.8761501   9.7573147   4.3132324  20.3560333  10.5225811   4.0681238
  21.5436668  10.1014929   4.9066935  75.6909256  60.4747467  33.6958313
  76.5884247  60.6636314  33.9697800  75.2311707  60.2660942  34.5090446
  17.9093342  62.7895813  77.3770065  18.4946365  63.5380402  77.4930573
  18.4217625  62.1614723  76.8679657  50.0130844  42.6461830  30.4195080
  50.0404167  43.0041275  29.5321751  49.2690315  43.0849419  30.8319530
  52.8867493  51.0070724  82.5838470  53.2233963  51.1377296  81.6973724
  53.4332390  50.3103180  82.9473114  41.3017769  41.9274635  81.8854065
  40.8639755  42.5618553  81.3178558  40.5996056  41.5644455  82.4252243
  47.6790695  56.8677597  50.2493401  48.2780075  56.1239700  50.1839333
  46.8240204  56.5082474  50.0129700  21.5711193  57.9935188  87.3964081
  21.3328266  57.1587868  86.9930801  21.7690334  57.7720070  88.3063431
   8.3008518  30.5969868  76.0009766   8.7656946  31.4300747  75.9227524
   8.6075535  30.2284470  76.8294296  -0.0352269  47.3290863  64.1055145
   0.3887921  46.9561653  63.3326187  -0.1343782  48.2585335  63.8992882
  40.6450806   8.8356304  75.8239136  40.1934204   9.1525679  76.6060791
  39.9433098   8.5280514  75.2501984  39.7315788   6.5471864  16.8357277
  40.6118469   6.7100658  17.1745949  39.1501999   6.9779620  17.4623547
  55.4889946  25.0302849  40.4015503  56.1202583  25.4480476  40.9873924
  55.8314819  25.1957645  39.5231705  11.5041294  30.2807159  60.7596359
  11.8368845  30.3713951  59.8667259  12.2777376  30.0727367  61.2835693
  14.8814077  51.6265144  32.4587212  14.0090113  52.0203972  32.4622192
  15.4132147  52.2269783  31.9363632  74.0639343  26.0188580  68.3652344
  74.0453415  26.9757862  68.3520508  73.9706268  25.7902069  69.2900314
  38.6990242  24.4096260  69.1869507  39.0382843  25.2528877  68.8868790
  37.7480659  24.4971542  69.1217957   6.5392308  42.9794235  33.9304008
   6.5011387  42.1770363  33.4098701   6.8489337  42.6930313  34.7896423
  63.8224106  25.6196899  51.9659576  64.2444916  25.9657593  51.1796265
  63.1536331  25.0203037  51.6347466   3.6002555  69.2559814  78.2090759
   4.2055078  69.4681473  77.4985199   2.8223636  68.9153366  77.7674026
  12.6106520  53.8905983  29.8557148  11.8259182  54.4372978  29.8164577
  12.3353624  53.1106987  30.3375931  41.6666451  30.2973557  24.9979763
  41.2228241  30.1458225  24.1635342  41.6628342  29.4431419  25.4298744
  41.0509758  48.6599617  29.0281467  40.7408218  48.6570053  29.9337006
  41.0153503  47.7418442  28.7597752  72.5368881   7.0456772   5.4271030
  73.0110321   6.5309319   6.0801406  71.6135941   6.8671589   5.6056848
  79.6012344  63.4893875  49.7994614  79.9015808  62.8676109  50.4623489
  80.3949127  63.9485092  49.5246544  24.6551476  51.7799492  74.5287933
  23.7863274  51.7527657  74.1279907  24.6180496  52.5232162  75.1307983
  37.5127640  71.1229019  19.9120579  36.9255104  71.4680786  20.5845261
  37.7207222  71.8797836  19.3642292  47.0964165  54.4209785  45.8884430
  46.6228256  55.1772194  46.2349129  47.2999763  53.8919296  46.6597404
  58.8165932  19.7887821  13.8687325  58.6896782  20.7337532  13.7841492
  58.0151100  19.4760857  14.2883434  64.2579193  18.4710999  60.3112640
  63.4115753  18.9182415  60.3100853  64.9025955  19.1786270  60.3163643
  84.5839157   0.6376875  82.6571274  83.7501755   0.2667194  82.9460602
  84.5533371   1.5496509  82.9462967  40.3413963  30.0989838  30.1092358
  40.1535225  29.6760902  29.2713242  39.5965538  29.8703232  30.6652546
  45.1131172  27.8149815  59.1940155  44.8486099  27.8604221  60.1128197
  45.0095100  26.8925552  58.9602890  75.7305069  70.8265839   0.2909412
  76.2974930  71.0649643   1.0243788  75.6402054  69.8759537   0.3571411
   8.6104803   0.3568580   0.3473024   8.0367985  -0.0977970   0.9640759
   8.1671696   1.1876756   0.1756925  30.9808311  31.6822948  14.5396805
  31.9336338  31.7738895  14.5425711  30.8234863  30.8287773  14.1359720
  33.4583855  12.6669312  76.1497803  33.0960312  11.8366776  75.8405762
  34.1342545  12.4139032  76.7785950  37.0972366  19.8228931  80.8622665
  36.6831512  20.3379002  81.5547562  37.5104408  20.4733849  80.2945099
  70.5544815  27.4138412  51.1358871  70.4145355  26.4738617  51.0214882
  71.5044937  27.5077991  51.2057533  20.3670521  46.3927460  62.0139389
  20.8872662  47.0580635  62.4644547  20.8572865  45.5801773  62.1389694
  41.7427177   0.1397655   7.1730886  41.9344597   0.6347241   6.3765445
  42.0706444   0.6918821   7.8829217  72.5948334  58.5481262  52.8211441
  72.4907303  57.5969162  52.8455086  71.7449112  58.8745995  52.5257149
   6.0605192   5.4402676  53.0711708   6.6269627   4.6726222  53.1492310
   5.8187890   5.4664044  52.1453667  81.3388062   2.1078007  67.8745651
  81.5776825   2.8684361  67.3448486  81.5508270   2.3647494  68.7719269
  79.5747070  36.3314171  51.5334206  79.0005341  35.9321861  52.1870003
  79.2377930  36.0168495  50.6945114  50.4247169   2.3543949  76.7394867
  49.6207161   2.1357415  76.2683182  50.8140640   1.5069224  76.9549713
  27.2295914  39.0519791  25.2520523  27.3472042  38.1581116  25.5736084
  26.9188309  39.5415382  26.0136242  55.4878502  16.0716343   8.3774509
  55.9371681  16.8684959   8.6591539  54.7411041  15.9950323   8.9713650
  57.5204773  10.1004848  59.5073586  57.4787369  11.0558300  59.5498619
  57.2534294   9.8886337  58.6129112  39.0274010  68.0056763  13.3809576
  39.3242073  67.3816147  14.0432940  39.6269302  67.8779221  12.6457882
  60.0992088  22.8163300  69.4131699  59.2813034  23.2949924  69.2784805
  60.5854225  23.3459873  70.0450668  59.5641403  40.7721176  36.1675606
  60.3746796  40.3076973  35.9588280  58.9198685  40.0782547  36.3079224
  70.9328232   3.3747051  38.9052124  70.5376511   4.1868844  38.5882988
  71.5991974   3.1617353  38.2518959  74.1400146   9.1662827  63.6922874
  73.7811813   8.5871401  64.3646469  74.0798874   8.6593523  62.8825722
  81.2813110  38.1012688  73.8441544  80.7044601  38.5630302  73.2356720
  80.7006760  37.8006287  74.5432281  41.5439186   5.1153870  11.1350842
  40.8640556   5.0215464  10.4678450  41.1470757   5.6725144  11.8046789
  80.0573578   4.3295798  81.8972015  80.5429001   3.5311100  81.6900101
  79.2847672   4.0236173  82.3722916  80.8707352  32.3868065  16.8177223
  81.3876038  33.1624107  17.0357170  80.4245911  32.6175461  16.0028934
  60.1574745  24.3368206  55.8105125  60.8146439  24.8908806  55.3893433
  59.5287933  24.1406822  55.1158752  25.2456512   3.1478202  20.4890671
  25.5876484   2.6712551  21.2454777  25.0874767   4.0336027  20.8155670
  49.6996689  13.8898745  16.0434570  49.3696404  14.0356522  16.9300594
  50.5629616  14.3033094  16.0382462  71.3249130  38.5137596  18.1390877
  71.3681030  38.0500984  17.3027954  72.2321091  38.5448799  18.4428272
  32.8584595  41.0400887  56.4373932  31.9177074  40.9423828  56.2901688
  32.9466553  41.1044540  57.3883438  23.7211475  60.2895355  15.6878395
  23.2758522  60.4335022  14.8528442  24.2568340  59.5097389  15.5422773
  68.4810944   9.3135033  34.3550720  68.9200668   9.7711601  33.6380730
  68.3652420   8.4194994  34.0332565  45.8672752  16.3728256  35.6679878
  46.0766029  15.4633780  35.4551086  46.3599014  16.8878689  35.0290184
  35.9171486  45.7037315   7.2542567  36.5152092  46.4059868   6.9985328
  35.1108551  45.8885498   6.7726283  71.1949081  57.0507202  41.9922714
  70.4689407  57.0248260  41.3689461  70.7750626  57.0018539  42.8510895
  43.6163902   3.0760374  75.5217133  44.3335571   3.2054579  74.9011078
  43.7160416   3.7872097  76.1545944  19.1410828  66.6836166  57.1209412
  18.7374287  67.4002533  56.6313248  19.0715961  65.9268951  56.5388908
  79.9291534  51.1869392  47.9084778  80.0825043  50.5197678  47.2394524
  79.9550934  52.0158463  47.4304924  51.3162498  50.2490425  78.1029739
  51.5272293  50.5225296  77.2102737  50.9995041  49.3505974  78.0096893
   1.9476658  36.8716049  57.5938377   1.3837001  36.1463623  57.3251343
   2.7342510  36.7749405  57.0570221  86.4500656   2.9092081   1.4738913
  87.1762238   3.4372864   1.8056490  85.6743469   3.4511507   1.6180978
  43.4715691  55.1256943  28.0263424  42.8197212  54.5437965  28.4171352
  43.2161636  56.0011330  28.3172131  41.4617462   4.3340163  73.9198608
  42.2690773   3.9254696  73.6075516  41.2865639   5.0317202  73.2883911
   3.8522363  28.5335712  60.0166550   4.0960875  28.0542507  60.8085022
   2.9466057  28.8033180  60.1693001  17.6175919  58.4827156  73.9778290
  18.4576435  58.7193642  73.5847092  17.4344769  57.6054192  73.6416092
   8.5808725  65.8614731  36.3751907   8.6596336  66.7495804  36.7234650
   7.7709122  65.8751221  35.8652802  85.2780457  24.9128437  73.8746872
  84.3343887  25.0650349  73.9254456  85.5877151  25.5433941  73.2244949
  86.1575470  49.3403091  60.6568985  85.2759857  49.5964050  60.9280052
  86.0188065  48.7591248  59.9090996  36.7967796  69.8231659  13.4464989
  37.5592728  69.2754822  13.2597389  36.0582390  69.3398819  13.0760632
  31.8984756  19.0709877  78.9064255  31.6557503  18.2715683  78.4392624
  31.8960991  19.7517319  78.2335129  66.6863022   7.9168720  22.0481091
  66.0076599   8.0082769  22.7169247  66.9595947   8.8147202  21.8599224
  75.2098007  26.5204620  49.9654274  75.3094788  27.2212296  50.6098061
  74.4654312  26.7926941  49.4287300   0.7169837  57.9910431  69.6001816
   0.9886904  57.2980881  70.2020340  -0.2361333  57.9127235  69.5593643
  72.9821396  65.0613403  80.6605377  73.8061066  64.9148560  80.1959381
  72.3060760  64.7827835  80.0428162  61.1441650  27.1031055  54.6829872
  60.5364571  27.2325459  53.9548645  60.9010468  27.7747650  55.3201675
  63.6652374   9.4544964  55.9396896  63.1744804   9.0400820  56.6493721
  64.5818634   9.3737392  56.2033463  54.0050316  38.3915138   5.6310339
  53.5988464  38.4285583   4.7650819  53.3374863  38.7370300   6.2236843
  78.2568512  17.0043659  30.2120934  79.1114197  17.2494831  30.5668583
  77.6849365  16.9544067  30.9780254  78.4185104  47.5837288  70.9442444
  78.4334717  48.2465019  70.2537842  79.1154556  46.9727974  70.7049484
   0.4289007  56.6277657  44.2474480   0.9163600  57.4475708  44.3282776
  -0.4406763  56.8311958  44.5919495  67.5767899   1.2739297  57.8577995
  67.6083832   1.1102223  56.9152336  66.6443481   1.2542201  58.0732002
  43.3636017  34.4887123  68.9917679  43.9352341  34.6544991  68.2421112
  43.9339523  34.5868263  69.7541962  49.7022667   7.5521202  13.8696880
  50.3975716   8.0811501  13.4786491  49.9763641   7.4304152  14.7786932
  29.4884357  21.0768051  11.7547140  28.7075081  20.5745907  11.9874420
  30.0671539  20.4394836  11.3362188  55.9554062  17.8322678  57.8027458
  55.5247116  18.6818943  57.7085686  55.7294922  17.5460129  58.6877632
   4.7932558  55.1983490  62.4736900   5.0244036  56.1271935  62.4662857
   3.8389418  55.1884270  62.4000816  62.6175575  23.3237991  73.8715363
  62.1931305  22.6576176  73.3308945  61.8966751  23.8623466  74.1979141
  58.7604179  55.1632919  20.4987087  58.6254997  55.8783073  21.1206245
  59.6986618  54.9794655  20.5449619  18.6671791  49.4696083  56.3149948
  18.7485485  49.2039642  57.2309875  17.8714981  49.0342178  56.0091209
  15.1203814  24.0294800  35.4173470  15.8700905  24.3775826  35.9000397
  14.8909769  24.7228756  34.7986336  10.0384998  38.0576973  13.2686911
  10.2909498  37.2074013  12.9088392   9.9504223  37.9031372  14.2092152
  23.6127110  60.2432213  38.3578911  22.7248955  59.9714737  38.1251488
  23.7965717  59.7842293  39.1774979  35.0856857  50.8369598  26.3771801
  35.6713409  51.5122375  26.7195816  35.6721687  50.1653633  26.0289917
  17.3856869  45.7666435  79.7305908  16.4973927  45.8505630  80.0771790
  17.2928085  45.1929970  78.9699707   5.8406134  39.3846092   6.8104663
   5.9915290  39.7141037   7.6964059   4.9197264  39.5791245   6.6362152
  62.6229897  50.8810806  61.4337311  62.4178543  51.7994576  61.6090508
  61.8022499  50.5099373  61.1098938  43.7693901  66.3354950   7.5210605
  44.1102028  66.5202484   6.6458774  44.1426353  65.4839401   7.7486005
  42.4288254   1.9579073  78.9852982  41.8810387   2.3160505  79.6837921
  41.8673019   1.3211392  78.5432053  55.5267410  32.2277832  81.9583969
  55.2807236  31.3831730  81.5811157  56.3843994  32.4189720  81.5787964
   2.2452106   3.7502193  80.5043411   2.9529407   4.3087559  80.1828003
   2.6206737   2.8697886  80.5143967  34.6951675  59.2651443  68.1977386
  35.2018852  59.0259209  68.9737778  34.8740005  60.1971588  68.0728455
  36.6737747  70.2479553  30.0953846  36.5587692  69.4740601  29.5439396
  37.5741119  70.1834259  30.4139175  15.0518751  55.9874001  82.2376480
  14.8684168  56.8233490  81.8089676  15.7985229  56.1696014  82.8082199
  40.5384216  34.9908867  32.3041306  41.4149628  34.6685371  32.5138855
  39.9881134  34.2076988  32.3071976  64.0067520  52.0023575  82.4530106
  63.0964966  52.0530014  82.1612854  63.9478531  51.8366852  83.3939209
  41.0843163   8.2645874   7.3475170  40.8439636   7.4181662   7.7243919
  41.9512787   8.4499531   7.7084112  46.8540115  53.3047218  56.1982117
  47.0609436  54.2315483  56.3182106  46.8713226  53.1762886  55.2498245
  79.9109344  71.2932587  23.2950001  79.5971832  71.3596115  22.3931198
  80.5738983  71.9797211  23.3690681  75.3490448  50.6668129  31.0467987
  74.8342667  50.0547752  31.5727711  74.7544098  50.9417953  30.3489265
  62.9632721  34.0753899  37.2275658  62.4971008  33.6903648  37.9696388
  63.6720200  34.5805550  37.6259613   9.4259272  51.6179924   5.0232296
   9.8144655  51.8902893   5.8545690   9.4831085  52.3944664   4.4664068
  53.0491371  62.2417984  21.7129841  52.6786652  62.2624893  22.5953426
  53.9534531  61.9547234  21.8395786  57.2017059  28.2966595  60.6826057
  56.6188583  28.3940125  61.4356308  58.0639038  28.1363831  61.0662193
  62.6898994  68.3186646  74.3485031  62.2326775  67.5339661  74.6508789
  63.6181297  68.0921326  74.4060211  26.6284847  61.2924194  16.3505116
  25.7903748  60.9139824  16.0848274  26.6989594  62.0997620  15.8411350
   3.7394109   7.7090039  68.4108429   4.3336177   7.8936028  69.1382141
   3.9706519   8.3544912  67.7429352  27.2867641  43.7256508  44.7723808
  28.0901985  44.0953522  44.4062576  26.9561367  43.1451569  44.0868568
  16.4624062  33.4091644  16.1624203  17.0547523  33.9764175  16.6559601
  16.1076221  32.8066902  16.8161659  66.8268814  70.9828873  78.2085342
  67.0237808  70.1122208  78.5540771  66.0254898  70.8627701  77.6990433
  39.0801697  56.3406982  11.8639402  38.3017044  55.8325119  12.0919189
  39.4197044  56.6486855  12.7042332  62.5797501  23.9674587  27.9531479
  62.2911224  23.6717377  28.8165569  63.0144958  23.2047424  27.5717163
  53.0827370  65.0540161  63.4683914  52.1582108  65.0780029  63.7151833
  53.1119385  64.4774704  62.7048645  10.9240599  18.7778091   4.2987237
  10.9797926  18.1350784   3.5915997  11.6084652  19.4158554   4.0969381
   1.9279832  45.5795174  79.6783676   2.1078312  45.5754395  80.6185074
   2.6256638  45.0453377  79.2987289  33.4370804  71.0652771  38.2321396
  34.1059875  71.1792145  37.5569992  33.0311966  71.9281693  38.3152046
  14.9046164  12.3907890  17.4862404  14.2105093  12.6854448  18.0758381
  15.0846624  11.4911070  17.7589798  78.3485184   4.5616441  88.9092407
  79.1870346   4.6726537  88.4611435  78.3895493   3.6797717  89.2791748
  67.4495621  64.4033661  57.6013298  67.0250473  64.8158264  58.3535919
  66.8366013  63.7224846  57.3239861  40.2639542  42.9312401   6.6326346
  39.4718246  43.2340927   7.0765305  40.5258713  42.1486053   7.1175189
  79.1573257  25.0788822  83.6963959  79.5525131  25.5621986  84.4219666
  78.2635117  25.4170799  83.6419601  62.6833801  20.5563908  59.8320160
  62.4931412  20.1918011  58.9676590  61.8497734  20.5102158  60.3002014
  40.1070747  49.1358681  44.0677071  40.1241188  49.2858467  43.1224823
  40.9861717  48.8195305  44.2759132  37.7166100  56.2931862  54.7679329
  38.5645866  56.3621254  55.2065811  37.8705063  55.6873703  54.0429916
  64.2018356  48.6759949  12.4439564  64.3715286  49.2189407  13.2137928
  64.4965286  47.8014374  12.6979933  82.9851761  63.6034966  52.3495827
  83.7083054  63.7920685  52.9477119  82.5421143  64.4444504  52.2368050
   4.0026045  31.2066593  33.0636864   4.4541941  31.6346550  33.7910919
   3.9820354  31.8681030  32.3720970   9.9634743  14.9967356  16.2401905
  10.3763123  15.6502142  16.8047810   9.1119490  14.8334646  16.6457481
  83.9181671   0.2747906  72.0366592  84.7518768  -0.0001300  72.4182053
  83.9469070   1.2312196  72.0621414  63.8560181   0.8226125  44.6236000
  64.0365906   1.4377683  43.9128189  64.0811996   1.3038182  45.4198189
  78.1060638   7.9679785  37.9134216  78.7675171   7.3034763  37.7206879
  77.8121109   7.7629561  38.8009987  85.1064224   2.7677765  48.4153061
  84.7414551   2.0068429  47.9636307  84.4092026   3.0528939  49.0059242
  58.6995392  46.1727791  72.8285980  58.5399094  46.2214966  73.7711334
  59.2123833  45.3727837  72.7135620  65.4775925  31.5817623  75.3130569
  66.2491150  31.0267487  75.4268646  65.8186646  32.3907433  74.9316788
  35.1911964  45.8987541  13.8977613  35.1316986  45.6051598  14.8068781
  34.3209610  45.7331276  13.5351419   4.1831512  17.7338600  37.8954163
   4.5047412  16.8664131  38.1410789   4.5215545  17.8731213  37.0109291
  59.5092316  37.7260780  49.5753326  60.3955040  37.5831909  49.9075012
  58.9591408  37.7393303  50.3585663  79.9502106  14.1898470  12.7863016
  79.1267929  13.7158861  12.9028273  80.5523529  13.5388546  12.4259310
  37.5137405  18.7258530  77.5565720  37.7253113  18.3710403  78.4200439
  37.1388817  17.9859200  77.0788574   7.1658173  64.6408997  44.7522316
   6.9406214  63.7865791  45.1205444   8.0745993  64.5466537  44.4668121
  84.2529373  27.3225384  16.8705711  83.3759079  27.1867104  16.5119705
  84.3698807  26.6065960  17.4950581  74.0563812  56.1367531   3.1450624
  73.5161667  56.1876984   3.9336104  73.8718109  55.2697334   2.7838962
   8.3201513  33.9696159  34.3452644   8.3815508  34.9019432  34.5531769
   9.2295732  33.6805382  34.2703133  24.8807583   5.7665148  21.9796486
  24.0001736   5.4666848  22.2052631  24.7438545   6.6127181  21.5537033
  23.2133598   1.0015815  33.8655434  22.7506104   0.6499709  33.1049728
  23.1313229   1.9512212  33.7778702  17.0444393   2.2117436  26.2521400
  16.1028137   2.0663548  26.1602936  17.4465351   1.4848505  25.7765598
  46.9484253   1.4703684  32.5083542  46.5553589   2.3030617  32.2469177
  46.4090881   0.8058583  32.0796661  76.5183487   5.4182854  42.4842148
  76.8553848   5.1044068  43.3233299  75.6284561   5.0687671  42.4376907
  72.2894897  56.1299095  25.9355946  72.5199890  55.2111626  26.0734501
  71.3337555  56.1471977  25.9857845  76.2543488  37.8876228   4.4546123
  76.3610458  38.7954254   4.7387695  75.3550110  37.8423996   4.1299849
  67.1546631  32.8415070  42.4577484  66.5480499  33.3792305  42.9667740
  66.6322784  32.0892181  42.1795235  64.1701050  21.0704231  47.9158401
  64.7579269  21.8225842  47.8454628  63.7880058  21.1460476  48.7902069
  58.5447807  58.8539085  75.0601349  58.5823593  59.5187607  75.7477341
  58.6973228  59.3390961  74.2492371  49.5983047  70.0643616  65.6915131
  50.4406738  70.4991379  65.8242493  49.5087738  69.4805603  66.4447708
  71.9000549  33.2485657  61.3031883  72.1740646  33.7125092  62.0943336
  72.4307022  33.6318932  60.6048317  53.4712868  53.9852486  84.4051590
  53.6489639  53.8302383  85.3328629  53.2664642  53.1192513  84.0525665
  47.8430557  22.3044281  88.5627594  46.8977356  22.2043514  88.6749573
  48.1027832  22.9151859  89.2525024  50.5511894  15.1333838  76.6169205
  51.3997231  15.5581751  76.7425232  50.3613319  14.7234173  77.4607925
  47.4190979  46.5565987  51.3866425  46.7264442  46.8252640  50.7830887
  47.3635025  45.6011887  51.4050102  32.6608200  36.0345459   7.4085288
  33.3382683  35.9170723   8.0744848  31.8528233  36.1548424   7.9074292
  34.7672806  27.1610794  11.5406189  35.6023178  26.9384613  11.1290560
  34.7308884  28.1169872  11.5067701  59.5079536   1.8371421   1.5246096
  60.3093262   1.3507725   1.7182007  59.8058510   2.7299342   1.3502197
  28.3995819  64.7872772  64.0911636  28.6175232  65.6221313  64.5056000
  28.6168137  64.1285172  64.7507629  61.1875839  57.8318787  74.7704086
  60.3076706  58.2036972  74.8315353  61.6287994  58.1285744  75.5663605
  27.7448082  52.7816010  34.3746490  27.3850651  53.4094086  33.7480125
  26.9878273  52.4895935  34.8825302  78.0718918  61.5362053  13.4963388
  78.5787354  62.3257523  13.3067160  78.4624252  60.8616867  12.9406939
  66.8573608   0.4739647  14.0581636  66.2045364  -0.2006209  13.8711309
  66.9796448   0.4325141  15.0066156  75.6494141  11.1343851  71.6840668
  75.6062546  10.5618849  70.9181595  75.4487991  10.5606651  72.4235535
  57.9909973  58.0898247  26.9170761  57.9415054  58.0811806  27.8729553
  57.7516365  58.9838791  26.6729279  53.2937431  65.3856888   7.3071170
  53.8368607  64.8217087   6.7564931  53.1772499  64.8891678   8.1171360
  67.1966019  14.8830414  68.2694397  67.1651535  15.5278349  68.9761810
  66.6780472  14.1467304  68.5937424  56.6552658  46.2478943  11.9719954
  56.3391037  46.9154434  11.3631840  57.5349541  46.5394936  12.2114725
   2.1596792   3.3757417  59.7574081   2.6093881   2.5311339  59.7825394
   1.2334260   3.1513507  59.6683273  63.8118553  14.1264906  69.2505798
  63.1393051  13.8442965  68.6306763  64.4877243  13.4509878  69.1946411
  82.7103882  40.8670654  86.1267624  82.9573135  41.6883392  86.5519333
  82.7332306  40.2173386  86.8292999  78.2016678  17.9346046  47.9296837
  78.4063263  18.3558483  48.7644882  77.2542038  18.0343761  47.8369904
   3.8867016  45.2800598  43.5634422   4.3182874  46.0775795  43.2569656
   3.7038472  44.7847290  42.7650414  50.5092659  64.4448166  43.3572044
  50.0067329  64.2381363  42.5691833  51.4146385  64.2385254  43.1248665
  13.8213234  59.1758919  41.7581482  14.4211426  59.7253113  41.2535782
  13.7059813  59.6439743  42.5850868  85.5836945  49.8389549  52.5872726
  86.2644730  50.4981232  52.4521294  85.4370880  49.4644775  51.7186508
  15.4934511  64.3359528  43.3771553  15.4958315  63.7808876  42.5973244
  16.3656540  64.2222519  43.7547340  25.7552986  71.2873459  61.3292084
  26.2437210  70.7486038  60.7067719  26.3252907  72.0382843  61.4948349
  21.2978497  26.1014214   2.0538280  21.9093475  25.3658314   2.0885880
  21.1441212  26.3286304   2.9708750  33.8478165  44.5403519  55.0131645
  33.0816422  44.9541626  55.4106216  34.0686760  45.1059647  54.2732086
  47.9416351  48.9399567  64.5585175  48.5230103  49.5983047  64.9390564
  48.0375557  48.1772995  65.1289444  28.8306236  49.9341965  57.5103989
  27.9870243  49.5451508  57.7410851  28.6501770  50.4479828  56.7231903
  79.3006363  27.3838215  19.5993118  79.2458954  28.2220917  19.1404686
  78.5424957  27.3806629  20.1836414   1.6172425  24.0536728  71.8142776
   1.4760375  24.8602619  71.3185883   1.4502625  23.3528767  71.1840134
  14.5814028   4.0137038  56.2865524  15.5279217   3.9995294  56.4284439
  14.2265329   4.4177523  57.0784149   0.6860625  31.0739880  45.9820633
   0.2450202  30.2649403  45.7229233   1.5320187  31.0392208  45.5355453
  61.9567223  69.2048798  65.8181000  61.5134697  68.8045578  66.5661011
  61.2883072  69.7553253  65.4101028  47.1901207  28.1578331  85.9849625
  47.9255829  28.3263760  86.5739594  47.5613594  28.2455845  85.1070633
  36.0180244  17.3791676  72.3569717  36.6017265  16.8748169  71.7902679
  35.4150963  16.7296047  72.7186050  70.4553909  33.1897888  68.0401993
  71.1845856  33.4105148  68.6196671  69.6781158  33.2660828  68.5936127
  59.8444328  35.5720291  45.1281738  59.9659996  36.4746399  45.4226990
  60.4661865  35.0641899  45.6494751  67.4940720  58.7680168  80.6494217
  68.2168961  59.1799622  80.1760788  66.9475098  58.3832397  79.9642563
  25.5406818   0.4150850   7.3863764  25.7993011   0.0451253   8.2304602
  26.2788048   0.2276788   6.8064747  85.5109024  40.6296501  39.1363411
  84.6626282  40.6921043  39.5753860  86.1288300  41.0238342  39.7519836
  76.4352646  42.2802353  49.5002403  76.3275909  43.1611137  49.1415100
  75.7912292  41.7500725  49.0307999  35.5472946  65.2463379  55.8551178
  35.1433372  66.0862427  56.0733299  35.0249519  64.5990677  56.3288612
  76.8089066  19.3353367  61.7388573  76.4592819  19.3255997  62.6298676
  77.7232208  19.5987186  61.8432045   6.1841664  71.0234833   7.5285320
   5.5797462  71.7263336   7.7670789   6.0950522  70.3815765   8.2329798
  48.4850349   1.2868515  81.9305115  48.2713356   2.2087874  81.7869949
  48.0434570   0.8248866  81.2178955  49.5051117  56.1803055  77.3519058
  49.4644585  55.4274673  77.9416656  48.6745148  56.6362114  77.4878845
  29.0458775  61.6345787  11.9718180  28.7538471  62.4721718  12.3315277
  29.8993797  61.4839554  12.3781185  68.9189072  33.9005699  51.2494125
  69.0819473  33.0170250  50.9192657  69.5964661  34.4382515  50.8394814
  69.1228485  12.9919758  58.6737938  68.5167770  12.6692982  59.3407211
  69.5971603  12.2126856  58.3840294  59.1532288  17.5594578  21.2761669
  58.9524117  18.4920559  21.1976528  59.9302597  17.5279293  21.8342533
  10.0668402  33.7698402  81.3199387   9.9790707  33.4039993  80.4397736
   9.5944910  34.6015015  81.2818375  36.7182503  43.2594147  16.9037971
  36.6209717  42.7643852  17.7172546  37.5860825  43.6580849  16.9683552
  54.3600426  27.6054726  50.8533287  54.1259155  27.7132874  51.7751732
  54.0246239  26.7396717  50.6207047  33.6023331  60.7195969  35.3696289
  34.4679985  60.3268013  35.4817352  33.0215111  59.9765396  35.2061005
   1.0598047   5.4770460  50.7218971   0.3289534   4.9609008  51.0620193
   1.8404073   5.0414457  51.0641594  74.0888596   9.9935837  44.2808304
  73.9469223  10.5167532  45.0697403  74.7484818   9.3487902  44.5365028
  86.4068909  67.9358749  41.5573044  86.5815964  68.0737152  40.6263313
  86.4442062  68.8123093  41.9403267  82.5402832   9.0043087  84.7271194
  83.4406586   8.8355637  85.0047531  82.3292618   9.8582010  85.1046982
  27.3979053  44.6345634  40.4341850  27.9477215  44.4286041  41.1901703
  27.8545380  45.3515701  39.9941597  19.2295132  60.7326469  17.7607040
  18.7126064  59.9909592  18.0752525  19.2481594  60.6254463  16.8097095
  84.1085968  38.9283180  33.7168007  83.5695572  39.5783272  33.2660828
  84.1056747  39.2079544  34.6322403  17.2779102   2.1973522   4.9278550
  17.0519352   1.9470440   4.0320244  17.8516331   2.9568710   4.8268318
  45.5840874  11.8037319  37.7144051  45.7648315  11.1200953  38.3595428
  45.1082230  11.3542261  37.0160294  39.7626076  63.8987083  60.0438538
  38.9646187  63.5705109  60.4582634  39.5847244  64.8251724  59.8818283
  65.7361679  60.3088646   2.4157531  66.0960464  59.5615273   2.8934603
  66.2169418  61.0639114   2.7548642  69.9684982  47.5510712   1.8186800
  69.0676727  47.6265831   1.5039792  69.8892441  47.1237144   2.6715074
  68.8592377  41.8856812  82.8770981  68.8866043  42.6494675  82.3008118
  69.7255707  41.8610573  83.2834244  50.6368523  13.7372494  79.4696503
  51.5906487  13.8151913  79.4489594  50.4340668  13.5188551  80.3792801
  63.7925415   6.9829936  79.0937271  64.6197968   7.3084526  79.4486237
  63.2370529   7.7599196  79.0300903  27.0770779  41.6626549  55.0915260
  26.6931038  42.4638939  55.4476395  26.9549828  41.0111084  55.7820435
  47.4827843  49.9632530  18.4068661  47.5642776  50.6404648  19.0784130
  47.0630951  50.4064140  17.6695061  13.2931328  65.3646469  49.7703209
  12.9842710  66.2705078  49.7546768  12.9646196  65.0138474  50.5981178
   6.6914501  17.3048935  17.9641590   7.5897751  17.5676823  17.7636948
   6.7084060  17.0850716  18.8956223   5.8690071  12.4549618  63.4414558
   5.6532574  11.8248444  62.7539711   6.1822143  11.9176741  64.1690903
  33.1748276  59.2994843   6.1194625  33.6953926  59.4875488   5.3385162
  32.7878036  58.4409142   5.9482913   3.2126031  49.8270454  40.2933578
   3.0442293  49.8567924  39.3515511   2.7241580  49.0630836  40.5999794
  35.0622749   0.5543113  21.8859558  35.4630737   0.4979680  22.7533779
  34.3072014   1.1298261  22.0079250  58.0513802  11.1380730  65.1176147
  57.2373581  10.8939495  64.6771545  58.5472527  10.3212986  65.1743774
  41.8872948  52.8125458  54.5913124  40.9876595  52.4871254  54.6227303
  41.9563141  53.2440338  53.7396736  13.9281855  39.9383430  11.8149920
  14.1737328  39.0414505  11.5880070  13.7829638  39.9148331  12.7608194
  32.7174301  41.6583176  81.7494049  32.1234398  40.9969978  81.3943558
  32.4032707  41.8084717  82.6410294   6.8714037   8.1111803  74.9397812
   7.6125131   7.5092454  75.0080643   6.9877338   8.7181959  75.6706924
   5.6434207  60.2910118  17.5445881   5.5841532  60.3218193  16.5897217
   6.4761667  59.8523750  17.7188454   1.9170597   1.8360178  35.7655258
   1.2528424   1.1997864  36.0305862   2.2804558   2.1602788  36.5895615
  57.8001518  48.7759132  75.0640106  57.9546051  49.2328033  74.2371979
  58.6291122  48.3363037  75.2532272   7.7139115  47.7226791  16.2355309
   8.3072662  47.1845512  15.7115278   7.8487754  47.4222412  17.1342983
   9.1695013  36.4226608  80.8145676   8.9044828  37.1368637  80.2349854
   9.9404621  36.7586784  81.2716675  12.8889627  37.4222145  18.7380276
  12.0850000  37.2359505  19.2229824  13.0084028  36.6605339  18.1707439
  21.2918530  66.0329056  76.8331451  22.2325153  66.1835556  76.9263687
  21.0366173  66.5692825  76.0825500  38.1133690  51.9348259  23.9100761
  38.0546494  52.7880974  23.4802933  37.5054092  51.9954453  24.6469231
  49.7653160  48.7943192   8.9725304  50.0734138  48.7876625   9.8787661
  50.5656319  48.8048019   8.4475374  79.0601959  41.3274956  56.6661339
  78.1551056  41.1398697  56.9148102  79.5863342  40.7661667  57.2356224
  48.4438019  50.1537628  73.6062622  49.0906334  49.7913322  73.0008774
  48.1184692  49.3954315  74.0913620  26.9503765  51.3756027  50.5246468
  26.4842033  50.7034340  50.0275536  26.6324501  52.2035179  50.1644897
   4.2525702  12.2099009  38.1345673   4.4330373  13.1424379  38.2530479
   3.3265758  12.1149187  38.3576050  57.7147522   6.4863420  31.7214031
  57.2313919   6.4152093  32.5445290  58.3416138   7.1938405  31.8721294
  75.9260864   0.5473355  47.2960663  75.1148758   0.2785100  47.7272415
  76.3323441  -0.2732433  47.0170746  37.0327187  26.4222660  10.4532814
  37.7806320  26.5281830   9.8653679  37.3553314  25.8517017  11.1508560
  71.1299515   9.3516636  21.6198826  72.0119934   9.7229147  21.5995655
  70.9384232   9.1391916  20.7064266  40.1175537  43.3016167  38.9925079
  40.9621162  42.8853188  39.1646881  39.8591499  43.6763611  39.8345451
  41.8114700  48.4716301   3.3954427  42.0204926  48.5216827   2.4626853
  42.4475975  49.0509872   3.8148708  55.0330429  39.6187515  22.4760761
  55.6351929  40.1824913  21.9904366  55.3965988  39.5860214  23.3609409
  43.6850357  49.0874290  83.7918472  42.8972549  48.5437050  83.7932739
  43.3575668  49.9837303  83.8669434  33.5893402  70.8920441  86.1935730
  34.0244331  70.5431061  86.9714966  33.9396706  71.7779312  86.1002884
   3.0155399  53.4734001   4.9513845   3.8529105  53.1382751   5.2719059
   2.9221990  54.3276138   5.3730955  18.2099209   3.2746713  28.6513996
  17.8958759   2.9298203  27.8155251  18.3537521   2.4979961  29.1920643
  49.1908112  56.4915810   1.2981948  48.2967911  56.2910309   1.0211705
  49.0955200  57.2320557   1.8972344  50.9672012  41.4684982  75.5789261
  51.7637253  41.6109200  75.0675583  50.5051003  40.7714272  75.1133194
  78.6129303  27.3488007  61.4887238  78.5322037  27.7376251  60.6177864
  79.5524979  27.2037716  61.6001244  65.0478287  17.5428734  87.5238571
  65.5905609  17.9868298  88.1754608  64.3540497  17.1253643  88.0343399
  54.0525131  17.6492043  25.8384666  53.7621346  16.9105663  25.3033733
  53.7121773  18.4210758  25.3861217  61.1126862  68.7112122  42.4210396
  61.6280518  69.0087433  43.1707764  61.2023048  69.4122314  41.7754555
  57.1099739  26.5834999  35.6476898  57.6551285  27.1591129  36.1840744
  57.2292747  25.7147083  36.0313568  55.4494362  21.0919380  32.0926819
  54.7230339  20.7946796  31.5447712  55.6669769  20.3332806  32.6343002
   8.0504599  37.7985115   6.1743960   7.1606193  38.1252937   6.3071761
   8.5935030  38.5863266   6.1481848  24.7774906  60.8845062  43.3258934
  24.2721863  61.6055832  43.7013245  25.6042309  60.8947945  43.8082085
  61.0050163  27.5538998  51.6221619  61.7625008  27.3828354  52.1817932
  61.3646660  27.5866337  50.7357025  10.7875042  37.8067703  45.2852173
  11.5600739  37.4754715  44.8273888  10.5673275  37.1182480  45.9126663
  23.3184605  66.9845276  59.8504333  23.6391735  67.5110779  60.5826378
  23.5494690  67.4911270  59.0718307  71.4650345  33.5675659  47.0280075
  71.7853775  32.8425827  46.4913406  72.0940552  34.2731857  46.8774605
  55.2364655  49.5284081  82.8862762  55.0886650  48.6288452  82.5944366
  55.7085419  49.4371758  83.7139587  57.6765175  20.2308254   3.4855216
  57.0168533  20.3931179   2.8111796  58.4317284  19.8916111   3.0050862
  73.9445419   4.8793273  41.8839607  73.4168091   5.2868462  41.1971855
  73.3512421   4.2567925  42.3042870   2.2689323  66.0978851  29.2823048
   2.7617252  66.9178085  29.2489338   2.3758380  65.7185135  28.4100189
  79.9466705  60.1045876  38.5976219  80.0270004  59.2541695  38.1656837
  79.8027344  59.8921928  39.5197945  72.0909348  60.5285759  86.9032211
  71.7933502  60.9752083  86.1106339  71.2886124  60.3532677  87.3949203
  12.1843786  60.7853241  39.1518974  11.2665844  60.5631866  38.9952431
  12.2343922  61.7269173  38.9871864  39.8052254  49.7764206  71.4995575
  39.5339165  49.2769814  70.7293777  39.6309280  50.6884804  71.2671890
  85.4611969  29.4433098  11.0984917  84.7705765  28.8831024  11.4526691
  85.0419388  30.2959194  10.9822502  34.0148621  63.6357498  49.3806610
  33.2538795  64.2146149  49.4259949  34.6409035  64.1058273  48.8299103
  78.1677780  30.3194485  75.4453583  77.8308182  30.9438381  76.0878754
  78.7956619  29.7877483  75.9345245  79.4188995  52.5356636  54.2729568
  80.1137543  52.5152931  53.6149368  79.5571442  53.3586082  54.7418747
  16.2355137  70.2736206   5.9588151  15.9041052  69.3817062   6.0631847
  15.7991314  70.6007614   5.1721892  50.5612068  47.7193832  49.2766724
  50.3394356  48.6242180  49.0568390  51.2669144  47.4919014  48.6713142
  18.8020153   4.0592313  21.8868103  18.9370956   4.9386563  22.2397919
  18.8781376   4.1673608  20.9387875  51.1876640  13.2940760  45.8529129
  51.4463196  12.3913784  45.6672630  51.9729500  13.8104029  45.6713409
   0.3118219  48.1580734  66.8341064   0.1593324  47.9676018  65.9085236
   1.0649143  48.7489014  66.8361435   6.7939763  16.3398190  27.8936291
   7.3390064  16.5744171  28.6447201   7.2972097  16.6296158  27.1327038
  79.3042831  59.7808571  32.8800812  78.7046127  59.7111855  33.6228981
  80.0136414  59.1724052  33.0870285  43.1922493  37.1936378  63.2760277
  43.1897736  37.7735786  64.0375366  43.3376617  37.7769852  62.5311852
  64.5841599  17.8345757  36.3052025  64.8478622  18.6975384  36.6245537
  63.7456055  17.6661224  36.7349510  30.5588341  36.2046394   9.0195045
  29.6451817  35.9211845   8.9859695  30.5137119  37.1307793   9.2571316
  58.1702576  31.8325119  33.3663635  57.3022194  32.2359238  33.3652878
  58.4865799  31.9424572  32.4696579  35.0293045  65.2182846  76.6303024
  35.8490715  64.7648544  76.8268051  35.1769829  66.1176453  76.9228287
  10.4311562  33.5536461  25.6208706  10.6124887  34.4813194  25.4699593
  10.9161415  33.3414421  26.4183617  58.1228027  65.2221603  75.1312943
  57.8084946  64.5493240  75.7352295  58.2135353  64.7684097  74.2933807
  30.8357906  42.1943626  28.6336212  31.5647392  42.1997910  29.2539730
  31.2367611  41.9663811  27.7948856  73.6343155  10.2636433  21.5931969
  74.3533707  10.4931345  21.0045338  73.9393082   9.4794130  22.0494766
  53.4208031  48.4356995  38.0781670  52.8375702  48.9618416  37.5311356
  54.1275406  49.0344124  38.3196144  19.8981686  66.7529755  42.2306061
  20.5205898  66.0822754  42.5116501  20.4463234  67.4843903  41.9463730
  75.5101700  68.4774017  57.4435005  75.3113480  68.3461380  56.5164223
  75.1229630  69.3272171  57.6535110   8.7835035  39.7228508  66.1346741
   9.4825478  40.3223076  66.3958664   8.0127974  40.0315895  66.6110382
  44.5624390  56.0733414  16.3031425  44.0872917  56.8310089  15.9619551
  43.8911514  55.4002609  16.4152451   7.6706553  49.6937904  20.0039177
   7.6230211  48.7809792  19.7197762   8.5623055  49.7947083  20.3370953
   7.6036196  25.7970810  33.7087784   7.8338494  24.8732834  33.8078804
   7.4812694  26.1108799  34.6047668  33.4183922  57.4244232  70.5523453
  34.3285980  57.3175278  70.2760620  32.9372597  57.5752678  69.7387238
  59.1377869  15.0886335  26.4441166  59.9106636  15.6517601  26.4018669
  58.3990707  15.6969738  26.4653435  25.7609768  71.6373215  27.5999641
  26.1186523  71.5449753  28.4830112  26.0022087  70.8235092  27.1575260
  19.9768333  59.9033699  73.0685654  20.6433010  60.5799904  73.1878967
  20.1965084  59.4959221  72.2307358   1.8054954   2.4635670  26.7009659
   1.8525079   1.7785585  26.0340443   2.7188516   2.6890640  26.8774967
  31.0741940  51.6717758  65.4206772  30.7268677  51.1465950  64.6997147
  30.3300190  52.1973076  65.7143631   5.9324069  14.7573195  35.4263878
   6.0702710  15.7045298  35.4305229   6.7664499  14.3951950  35.1272697
  55.0134621  52.3209229  70.3906021  54.1764107  52.4708176  69.9511642
  54.9131241  51.4675140  70.8123398  31.3226700  52.6497002  52.0394287
  31.2120419  51.9393158  51.4074936  32.0740204  52.3838463  52.5695457
  41.6058311  13.8488026  47.0135307  42.3280907  13.8011780  46.3871880
  40.9598770  14.4153357  46.5916100   0.9610134  39.4509811  44.7226067
   0.4226514  39.5760345  45.5041199   1.8254687  39.2189407  45.0618820
  16.8386879  60.0536613  37.6453094  17.6817970  60.3003044  37.2650909
  17.0511665  59.3594017  38.2690773  48.3045120  61.7514229  66.0431976
  49.0212173  61.2258644  65.6877365  48.7334671  62.3796654  66.6241837
  26.0626411  41.0430489  26.8676224  26.9410000  41.3798294  26.6907120
  25.5698528  41.8061180  27.1694813  38.1722717  52.1545525  57.1031113
  38.6481094  51.6768341  57.7825203  37.9693756  53.0004349  57.5025444
  25.4972782   6.2039585  13.3539133  24.6669483   5.9226899  13.7381954
  26.0698452   5.4413223  13.4362841  20.3772469   5.8324633  17.3399525
  20.6510544   5.0611515  16.8436260  20.4062386   6.5483994  16.7052650
  63.1559029  60.4351807  84.5035248  63.0459747  59.5700188  84.8980408
  63.7349167  60.2857742  83.7560959  79.9185257  23.8477592  61.9325905
  80.6035995  24.2223148  62.4863167  80.3820114  23.5386562  61.1542168
  71.0435638  39.9083099  60.0960999  70.5797653  39.1075554  60.3408890
  71.0259781  39.9122314  59.1390686   4.5328836  50.6611824  63.5492134
   4.6598010  50.1718788  62.7363777   4.8871727  50.0897865  64.2305450
  13.2115078  42.4590073  22.4530296  13.4720411  43.1851540  23.0196552
  13.1040134  41.7172623  23.0484180  64.4232178  69.8367920  57.8204613
  64.6054993  68.8987579  57.8760872  63.6184502  69.9547424  58.3251076
  85.2822266  66.3506317  63.9669609  84.3474197  66.5395355  63.8851700
  85.6885986  67.2066269  64.1024399  40.4414902  18.7738171   8.2521524
  40.4513512  18.0589046   8.8885765  40.3210335  19.5629921   8.7802868
  74.9924545  52.4342575  35.1813927  74.3182678  53.1134033  35.1598015
  75.5073776  52.5826302  34.3882523  29.9917736  19.8391151  86.1553421
  29.4712219  20.5365429  86.5539093  29.4994583  19.5899162  85.3731918
  40.9737129  62.8729744  26.1643257  41.8206711  63.0659103  25.7622395
  40.9111214  63.4859924  26.8968048  40.3608437  49.4389648  62.1053543
  39.5921936  48.9388809  61.8308983  40.2759018  49.5060043  63.0564194
   8.7485523  53.9546280  66.9750061   9.4938946  54.1090584  66.3946228
   8.4741955  54.8293266  67.2504272  72.6576920  10.5447598  74.6564636
  73.5637741  10.4340544  74.3683777  72.1329498  10.3210745  73.8878021
  52.5696831  15.0566244  16.1092396  53.1284027  15.7627535  15.7845116
  52.7270699  15.0415621  17.0532913   9.8794174   4.4306378  85.1518707
   9.9505014   3.7370245  85.8076782   8.9399786   4.5071568  84.9850388
  15.4409151  17.5888329   0.5086524  15.2277794  17.8776531   1.3960011
  16.0814476  18.2278156   0.1961588  81.6364288  37.0086174  81.4941330
  82.1157455  37.8312492  81.5929260  80.7878265  37.1750946  81.9044876
  13.7419128  66.9125977  78.7229080  12.9673557  66.5900803  79.1836395
  14.2858639  67.2981873  79.4096909   6.7941551  58.2657051  20.3209496
   7.4232740  57.5929031  20.5812912   7.0162206  58.4619141  19.4107723
  80.2325439   6.7354045  41.4879990  80.7272110   6.4859762  40.7074127
  80.8256607   6.5513258  42.2163925  49.7012711  27.2373714  88.9896011
  49.7349548  27.9386654  88.3389969  50.5972404  26.9026661  89.0275803
  21.3304615  51.9625549  73.5638733  20.9340267  52.8303261  73.4861221
  20.6507797  51.4241829  73.9693604  65.3697052  47.4912109  80.5520782
  65.0939407  48.1067467  81.2312698  65.8010025  48.0372581  79.8947754
  11.3993292  30.5660954  72.7087860  10.4972878  30.3358192  72.9313278
  11.4628420  30.4033756  71.7676544  70.4518738  49.7898636  53.3201485
  71.2304688  49.3608055  53.6750183  69.8997192  49.0699310  53.0150948
  49.2168045  32.7586479  22.0565052  49.6029968  33.6201630  22.2142391
  49.9503746  32.1490059  22.1367340   8.8664255   5.6243205   8.0299253
   9.4689360   6.3632936   8.1143703   9.1372185   5.1854420   7.2235208
  81.8551025  16.8089867  52.9600677  82.0467377  16.3817806  52.1251984
  82.7145844  16.9713707  53.3488617  29.9896698  60.3323898  34.1622658
  29.8582840  60.4464264  35.1035233  29.7080498  59.4342690  33.9881973
  76.0000687  17.3594379  42.0020714  76.8864288  17.6144085  42.2581596
  75.4743881  17.4960537  42.7902527  85.0073700  51.4870186  87.1585236
  84.4627457  51.6518478  87.9282303  84.3967133  51.1575394  86.4991455
  80.9433136  44.4895859   4.4083133  81.2686996  44.4240570   5.3061209
  80.9692612  43.5915604   4.0780044  64.5359573  62.7979774  35.2657738
  65.0652390  62.2884407  35.8793488  63.7681007  63.0611839  35.7730675
  64.1421432   2.3639338  11.7668715  64.0003128   3.2227032  11.3685875
  65.0288544   2.4092953  12.1245337   8.7444849  55.0997925  38.4923248
   8.2607260  55.5090523  37.7748871   9.5949049  54.8789978  38.1124992
  80.4605560  27.3667126  73.6837463  80.3162766  27.7302742  74.5573883
  79.6701736  27.5965309  73.1951675  69.9570694  31.8148479  41.7828636
  69.6076431  30.9316940  41.9018936  69.7902527  32.2529259  42.6174240
  73.2182236  14.4127064  23.1381836  73.5493622  14.9470978  23.8599911
  73.7854309  14.6310482  22.3987007  16.9800606  28.2393131  17.3044033
  16.6434555  27.8097668  18.0908012  16.3903866  27.9559307  16.6056824
   2.2883976  18.1049824  79.6989594   2.8136985  18.0620613  80.4979935
   2.3358855  19.0224190  79.4300995  12.9265709  39.1373558  68.7550278
  12.2886086  38.8122406  69.3902740  12.5996075  40.0025673  68.5085831
  65.1890945  14.3957157  50.6710854  64.5675583  14.1899767  51.3693619
  65.2599335  13.5851068  50.1669731  32.6800842  28.9252186  72.6840897
  32.4960365  29.7466030  73.1398163  32.5055847  29.1180992  71.7629089
  80.8253098  34.3537750  76.3584671  80.0193634  34.8429832  76.1930466
  80.8360519  34.2234764  77.3067017  77.1320419  70.0231018  15.7481222
  76.8830261  70.9161606  15.9861670  77.0584030  69.5283279  16.5642166
  86.8140717  14.4924231  82.7572403  86.9915924  14.9491854  83.5794830
  85.9929962  14.8723488  82.4446335  58.8646812  39.1409950  73.7324829
  58.8394318  40.0049477  73.3211746  59.7688484  39.0443954  74.0314636
  37.8493729  14.2552595   4.5659595  37.4461517  13.4478941   4.2468863
  38.7158623  14.2671452   4.1594052  41.2847786   1.2045794  71.5462952
  40.3821678   1.1021969  71.2445679  41.4264030   2.1511261  71.5612869
  80.5011444  21.1535950  57.6951218  79.9727402  20.7044907  58.3549156
  80.6208572  20.5046139  57.0017776  11.9060221  60.3106003  84.6021805
  11.6011887  61.1120720  84.1767960  12.8588457  60.3991089  84.6250839
  66.9909744  49.2706604  30.7456131  66.8155365  49.0367241  29.8341713
  67.9378128  49.1678619  30.8412819  28.4704494  62.2138939  69.3160248
  29.3636799  61.8763771  69.3827591  27.9241371  61.4318314  69.2375488
  21.6884060  66.1431808  72.3613892  21.4472542  66.9028397  71.8312988
  21.9647160  66.5139313  73.1995010  45.9541473  10.2155867  82.7215347
  45.6417580  10.8800631  83.3356323  46.8830757  10.1151218  82.9294510
  66.5834961  46.6863708  25.0054417  66.9304962  45.8239021  25.2334099
  67.3489838  47.2610359  25.0087032  73.4382172  70.1963730  25.9776382
  73.8822861  70.4016953  25.1549110  72.8872223  69.4415665  25.7705288
  39.1752129  58.9164352  83.0620117  39.9386368  58.4400291  82.7357483
  39.2947578  58.9390144  84.0114441  58.2159615   0.5333078  62.6097870
  57.6491776   1.2666234  62.8490295  57.7980690   0.1491223  61.8390732
  71.8641891  27.2501240  58.5819092  72.4826660  27.7644424  59.1007462
  71.7776413  26.4256744  59.0604744  58.6783752  28.7046738  17.5911045
  58.3879356  29.5842419  17.3497829  59.4656677  28.8480873  18.1163006
  71.7045975  61.8975525  72.2353821  72.4374313  61.6033554  71.6944275
  71.7841568  62.8513527  72.2482529  63.1983948  65.5381775  85.5222168
  62.2896881  65.3387070  85.2970581  63.5641518  64.7005157  85.8064117
  55.0327034  56.7201157  85.0746918  55.4477196  57.4285507  85.5667419
  54.7663040  56.0885277  85.7427902  13.1693707  31.2817669  68.0469437
  12.8676529  32.0893517  67.6310043  14.1243725  31.3401871  68.0188065
  44.3823166  51.4351845  81.3455811  45.2294159  51.3163643  80.9160080
  44.6018677  51.6769333  82.2453537  51.1358337  53.7365227  66.2208939
  51.3606682  52.9308014  66.6861877  50.9866066  54.3796577  66.9139557
  20.7904778  35.1483192  86.0069885  21.1716957  35.4448090  86.8334274
  21.1536942  35.7413788  85.3492737  13.6824093  41.0235977  25.0131340
  14.5206146  41.4753876  24.9155140  13.9088593  40.0936356  25.0021095
  54.1955528  60.1667747  52.5457230  53.4656334  60.4131165  51.9776001
  54.9462929  60.0998230  51.9556885  55.4123917  50.5034142   4.0600462
  55.7220840  50.2937355   3.1789351  55.3587532  49.6565247   4.5029216
  71.4016647  70.2362671  34.2259903  72.1315918  70.8462677  34.3324242
  71.5771713  69.5399857  34.8589325  22.0622177  38.6597939   8.0646429
  21.4159527  38.8586159   8.7421694  22.7826881  38.2416992   8.5361843
   4.9622855  32.0890808  63.3370705   5.7949786  32.4906693  63.5852242
   4.5323625  31.8949699  64.1699677  67.5569458  57.3893089  55.4217720
  66.8461685  57.4877968  54.7882614  67.2148972  57.7764359  56.2276077
   1.3797789  41.6477203  13.8499489   2.1705027  41.8470459  13.3486938
   0.6617827  41.8018379  13.2359772   8.1864033  50.5237770  56.7152100
   8.5692453  49.6939545  56.4305038   8.3478003  50.5509377  57.6583176
  80.5425644  27.7720909   6.0884027  79.7015533  28.1549759   6.3380775
  80.8609009  28.3335114   5.3815084  66.2359238  20.2214527  67.0690079
  66.5129089  20.1453190  67.9820862  67.0535889  20.2472668  66.5720291
   4.6417594  67.8676987  59.6578178   4.0375481  68.3079605  59.0600471
   4.9645133  68.5649796  60.2286606  35.8844719  62.4368858  54.2300377
  35.3113403  61.8265457  54.6939774  35.4792175  62.5384254  53.3688240
  13.8184576  23.7862129  86.8734131  13.7504625  24.5605984  87.4319229
  13.1229229  23.2059307  87.1828232  43.9649773  68.5720673  78.1578979
  44.5156403  67.8155594  78.3596344  43.1229591  68.1944199  77.9036942
  44.3477783  33.7853355  75.2930450  43.9560661  34.1378708  74.4939804
  44.3803902  32.8399239  75.1468735  38.8168945  24.5866070  22.0099144
  38.1157951  24.5848541  22.6615944  39.2040939  25.4594231  22.0770226
  52.9125671  17.3127918  88.7134933  53.7870636  17.3199482  88.3243484
  53.0697784  17.2351627  89.6545029  68.9533157  49.3805580  88.8645096
  69.6898117  48.8769608  89.2111969  69.3560715  50.1565361  88.4747925
  75.4691696  28.6429386  34.9837646  74.9575500  27.9221764  34.6163750
  76.3468094  28.2789059  35.0997772  43.2091904  51.8836403  49.1113815
  42.7998352  52.2799492  48.3422279  42.4743347  51.6297874  49.6697540
  43.9507828  54.5181084  68.9878845  44.2881470  54.1607170  68.1664963
  44.4001465  55.3575211  69.0863266  35.4898415  22.7163830  74.7022018
  36.1787338  22.1201782  74.9958038  35.9467316  23.3652878  74.1670303
  40.3921242  29.5215244  12.1105576  39.5448647  29.4211636  11.6766148
  40.1729012  29.7339382  13.0177813  31.6006908  37.9802895   0.9805414
  31.1422882  38.4721947   0.2992719  32.4060249  38.4748955   1.1323040
  34.5670853  32.0664749  83.0769424  34.5430717  31.1997318  83.4824219
  35.4995499  32.2623558  82.9854736  39.6889000  13.6424618  18.0108986
  39.0621529  13.2256308  17.4195709  39.9131966  12.9591360  18.6425552
  55.6216545  64.6553345  81.3683243  55.8789711  65.3260269  82.0009308
  54.7173309  64.8732910  81.1426697  23.9184074  59.2672424  79.5396576
  23.5947876  59.3726692  78.6450195  24.4896812  60.0226631  79.6782913
  22.0380840   0.9742701   4.1675572  21.8393440   0.8350862   3.2416184
  22.9211464   1.3436288   4.1700974  75.5925369  69.7759094  38.7054482
  74.6647949  70.0110703  38.7204742  76.0106735  70.4136581  39.2839622
  79.7168503  66.1349106  71.6028671  78.8086014  66.1032104  71.3023453
  80.2186432  66.3749161  70.8238754  12.6197739  52.8078194  81.1060486
  12.4221067  53.4930458  80.4675903  12.2890711  53.1512184  81.9360733
  82.4243851  20.3132668  13.9652119  82.0143127  21.1078777  13.6236477
  83.3376312  20.5593204  14.1124182  72.7054825  50.7997437  71.7114487
  73.2858429  51.4953003  72.0206757  73.2323761  50.0030098  71.7732925
  77.1035995  12.7824850  88.8844604  76.3800964  12.2806482  89.2598648
  76.9246979  13.6876993  89.1390381  68.4223862  31.2328701  59.8072357
  68.5723419  31.0889854  58.8728676  67.4728470  31.3244820  59.8861046
  77.4253235  60.0389862  47.6231117  76.9042435  60.0085678  48.4254761
  78.1272049  60.6603546  47.8167610  59.8630409  32.8524246  69.1878891
  60.3924942  33.0805016  69.9520187  59.1580200  33.4998436  69.1831131
  10.2045050  37.8245430  16.3181362  10.3348570  37.5664444  17.2306194
   9.8854275  38.7256546  16.3673534  69.6718140  69.8655014  53.5216408
  68.7212067  69.7698975  53.4629974  70.0057068  68.9694138  53.4794998
  59.9315300   7.7755384  62.5395927  60.7371559   8.0783939  62.1206894
  59.3134270   7.6637239  61.8173218   2.8935957  41.5960960  70.6249161
   3.5002947  42.0556793  71.2053757   3.4378438  41.3006401  69.8950348
  43.2136917   9.1345758  57.1830711  42.3634453   8.9730988  57.5920181
  43.8403206   9.0826397  57.9047852  83.6232529  53.3536682  58.1808357
  82.9095612  53.8992615  57.8503723  83.3569565  53.1244202  59.0712090
  50.7984047  17.4127750  21.1834469  51.6002922  17.6168327  20.7022285
  51.0607643  17.4288139  22.1038494  16.5906754  60.9727058  66.2795639
  16.2637253  60.1077614  66.5269547  16.9507427  60.8504105  65.4011383
  60.9921417  54.6549263  50.6248932  61.1650009  53.8891029  50.0772934
  61.7577553  55.2158699  50.5007477  60.0478363  52.1379013  15.9666624
  60.5756340  52.4682999  15.2396793  59.5990334  52.9114990  16.3077660
  45.9729080  30.1025772  22.9943180  45.6699715  29.8731709  23.8728600
  46.8765488  29.7884445  22.9629250  37.5769386   5.1911211  71.1328812
  36.7752495   5.1655712  70.6105118  37.7322655   6.1228409  71.2878189
  77.6823654  10.4393358  55.5835838  77.9498825  10.2050247  56.4722710
  78.3744507  10.0865936  55.0242691  28.9654827  65.2459641  76.0956421
  29.3579197  64.8902817  75.2983246  29.7125530  65.4950180  76.6397858
  28.7689095  46.4260864  29.3869267  29.7074890  46.4049492  29.2002354
  28.5347366  45.5108986  29.5412865   6.2355089  49.8960953  15.5791464
   6.6907887  49.1449394  15.9595633   6.8992186  50.5848274  15.5421066
  20.4273338  64.4272003  87.6707916  19.5470867  64.4226685  87.2947845
  20.7591267  63.5430603  87.5144272  82.8444138  54.1089592  34.7133446
  83.2423019  54.9386787  34.9769325  82.1548004  54.3587341  34.0983047
  46.0593147   1.8002424  24.4612885  45.1535149   2.0584869  24.6317768
  45.9999886   1.1892459  23.7268543  86.0158844  46.8679008  83.0380402
  86.6195831  47.6057205  82.9520187  85.2869339  47.0859070  82.4572296
  14.0227242  55.0707359  27.7837238  13.4718952  54.6026993  28.4112263
  13.4313173  55.6970863  27.3664036  54.6621246  60.2490463  23.5809689
  54.7047195  61.1334267  23.9446888  53.7354088  60.0144081  23.6296940
  19.6394997  49.6849365  10.4233494  20.5217056  49.3430099  10.2783251
  19.1324749  48.9254990  10.7104235  62.8153152  47.9229927  33.6961823
  62.5074158  48.1165009  34.5816116  62.8637505  46.9675980  33.6628990
  10.8858442  48.7591515  23.8816471  11.3705778  49.3331261  23.2885036
  11.1608610  47.8753624  23.6376934  53.7965813  14.0811777  88.6937866
  54.0719452  14.3489647  87.8170319  54.5396385  13.5849457  89.0370789
  56.1210709  26.8357334  48.8705406  55.8311615  27.5723972  49.4086037
  55.3618317  26.6217670  48.3283157  82.8122177  13.7413321  23.1495686
  83.3285217  12.9893990  23.4398499  82.1076355  13.3601751  22.6256275
  12.1070147  55.4345474  77.0501938  11.2403936  55.7644539  76.8127899
  11.9320517  54.6235237  77.5275421  32.8392715   7.0819349  84.7978363
  32.6966515   7.9151731  85.2468414  32.3281403   6.4481206  85.3010788
  17.2641220  64.2869644  13.1172619  16.6737938  64.8863373  13.5738811
  17.2236004  64.5622864  12.2014065  37.7155380  49.2680855  67.4885559
  38.2125587  49.8694916  68.0430908  36.9022102  49.1154480  67.9696350
  15.7702713  68.6372833  52.4967918  16.1529427  68.4675446  51.6359863
  15.1863699  67.8944473  52.6500320  10.3788395  60.3527184  26.1099339
  10.3230915  59.4538422  25.7856750   9.8166227  60.8553047  25.5203991
  52.4133072  30.5158405  64.2618179  52.2067070  30.3346539  65.1787262
  53.3651276  30.4292583  64.2091370  53.9205437  44.0504532  51.7653465
  54.0810661  44.6959457  51.0770111  53.5498734  44.5576248  52.4875717
  63.5985794  31.1963234   9.5908775  62.6972580  30.9483547   9.3850574
  63.6575737  32.1173096   9.3368320  11.4994078  24.3209839  24.5543633
  12.4554491  24.3508263  24.5179367  11.2289762  24.1924610  23.6451988
   8.6673641   9.3047152   4.8836155   8.8576632   9.0708227   3.9751484
   8.1268892  10.0921631   4.8200259   3.4549956  38.0983047  52.6798363
   4.2468958  38.3536530  52.2066307   3.3042798  38.8134308  53.2979889
  82.6622543  56.7085724  32.7470360  82.8597031  57.4075317  33.3704948
  81.9151993  57.0375328  32.2471046  80.8275757  38.5396423  12.4598370
  81.3336182  38.6985664  11.6630306  80.5425949  37.6289253  12.3849277
  71.3298569  48.8049202  15.3704109  70.8199615  49.2066116  16.0738907
  71.8946686  48.1727333  15.8148870  55.2971039   8.9926300  85.5080414
  54.6169548   8.3548136  85.7244186  55.6910477   9.2178984  86.3508301
   2.7778375  27.6507378  16.0832634   3.5731456  27.6624851  16.6157837
   2.0763164  27.4561520  16.7047424  42.9650459  70.6442184  59.0548210
  43.6142006  71.3009033  58.8026390  43.0393944  69.9644089  58.3850784
  63.4473076  56.8543854  60.9969482  63.5081406  57.5444298  61.6575317
  64.3442383  56.5338249  60.9021530   6.1099095  64.7577133  77.9451294
   6.7899823  65.1252747  77.3806458   6.2708039  63.8142433  77.9307785
  55.3730698  57.7671394  67.7192612  56.1997261  57.2989464  67.6023941
  55.1324196  57.6042633  68.6312866  42.2336540  56.1769600  49.7922554
  42.0828133  57.1185570  49.7093735  42.3277168  56.0314102  50.7336388
  34.9222450  29.4245262  77.4832535  34.2334290  30.0118446  77.1720886
  35.0041275  29.6242638  78.4157867  85.0381927  43.7553787  80.4121780
  85.8129654  44.1690178  80.7927780  84.5618362  43.4020653  81.1634979
  58.2460251  61.5333939  47.8261757  58.2945442  62.4102020  47.4452820
  57.5554390  61.0944061  47.3295746  62.2800026  27.3539391  29.1211281
  62.0027657  28.2657871  29.2100563  61.4843674  26.8453407  29.2777214
  40.0990410  37.4248886  24.5854511  40.6916580  37.4822197  25.3349514
  40.0411568  36.4882126  24.3969841   0.2140774  52.3681221  22.9547100
  -0.5764982  52.0420609  22.5247040   0.9232242  51.8453255  22.5805073
  34.8468170  40.0022163  63.9250069  34.0290871  39.6116333  64.2332153
  34.6875839  40.1931496  63.0006561  84.4891281  28.1787872  51.9267731
  84.6100082  28.7511196  51.1691093  84.9773941  27.3851509  51.7077560
  49.6615715  28.4580383  41.5956001  50.5621490  28.2291279  41.8253593
  49.7238541  28.8155823  40.7098694  81.3704758  45.8500328  23.3239574
  80.6413116  45.2786179  23.0830631  82.1322556  45.4598274  22.8953991
  64.6660233  48.3976402  39.8119431  64.5278702  48.4218407  40.7588120
  63.8876266  48.8172340  39.4455185  68.4044724  52.1978645  51.3653145
  68.4451599  53.1432304  51.5097427  68.5123978  51.8175278  52.2370529
  75.3214951  16.8937531   8.7619123  75.2580109  16.2302971   8.0748682
  74.4772415  16.8547115   9.2113056  76.6139984  20.6539593  24.6562080
  76.7212219  19.7053108  24.7255058  77.4791031  20.9748135  24.4015179
  31.6556778  40.1361389  76.6636581  32.1508980  39.3268394  76.7902222
  30.7428150  39.8528023  76.6123199  80.2426987  63.8107033  58.9383125
  80.3303375  63.1430931  59.6186409  81.0735092  63.7797585  58.4639397
   9.7548971  11.6214972  67.1536255   9.3576679  12.1072874  67.8764343
  10.0908365  10.8218412  67.5585098  72.2613449  30.0140610  31.5488949
  72.2558975  30.3690586  32.4378128  72.9479599  29.3472538  31.5614872
  31.8397446  59.2112503   0.9045821  31.7612076  58.3720894   0.4508545
  32.7822189  59.3727455   0.9480503  31.3020840  37.8642159  20.1669426
  31.4984608  37.8293343  19.2307529  32.1449928  37.7122345  20.5943012
  40.1057892   1.6010948  25.7090816  39.9001999   0.9079821  26.3364239
  40.2504158   1.1407372  24.8824081  27.6929207  19.2027740   4.0214748
  27.3435287  18.4058743   3.6225932  27.1482105  19.9061260   3.6681781
   0.8000978  43.7887421  15.6426954   0.5275069  44.5653534  15.1540270
   0.8973429  43.1084213  14.9764071  64.3291245  61.6279678   0.5214246
  63.3812447  61.5440903   0.6249685  64.6878510  61.3461571   1.3629292
  67.1847534  48.1263161  74.2066422  67.8520584  48.0800972  73.5219498
  67.4819794  47.5067368  74.8729782  62.4402847  36.9678688  73.9145660
  61.9901772  37.7092667  74.3194809  62.8905296  36.5356293  74.6402969
  39.4935341  53.9033546   8.9081221  39.6356316  53.3171730   9.6513786
  39.8790817  54.7354889   9.1822367  68.8080368  59.0629158  67.2295074
  69.0162506  58.5501785  68.0105133  68.9184418  59.9732018  67.5041351
  54.0098076  22.8646526  20.7987022  54.3717461  23.5623417  20.2523823
  54.3082542  23.0742302  21.6837101  58.3282585  55.3853493  39.4925766
  59.2669525  55.2048759  39.5427628  57.9794273  55.0735092  40.3276253
  57.2931595  57.3651733  12.5648451  57.7950439  56.8451691  13.1924887
  56.8596649  58.0314026  13.0981855  38.3868179  44.4593773   8.3191214
  37.5044060  44.7805405   8.1335583  38.9431534  45.2354202   8.2521830
  56.1258278  36.2517433  11.4014654  56.7236900  35.7851257  11.9854689
  56.5298615  36.1785622  10.5368071  52.6432457  70.5867157  32.2221642
  52.1578827  70.0875778  31.5652676  53.1193085  69.9242020  32.7228317
  79.4135284  45.9284439  36.7752876  79.3938522  45.4999352  35.9195862
  78.8177338  45.4102898  37.3163834  51.9600182  62.6713715  40.7343979
  52.4547958  63.0671501  41.4518852  51.9683266  63.3339615  40.0436440
  10.6339092  11.9408989   8.2604179  10.7506876  11.7160492   9.1834764
  11.2061720  12.6958933   8.1235590   1.7526369  36.0359230  80.4028931
   1.2071943  36.0023041  81.1887665   2.4497716  36.6543541  80.6214752
  51.6364670  58.1544991  33.9808235  51.8474350  58.0361557  34.9069519
  51.7349052  57.2821198  33.5993805  30.3529682  34.3921394  19.0358562
  30.5240898  35.3334770  19.0647640  30.8327770  34.0383720  19.7847672
  40.7522392  52.4786110  87.1861115  40.5378151  52.5606499  88.1153717
  40.3914223  51.6294823  86.9311066  35.6589966  67.7584381   8.1609621
  36.1277618  66.9440384   7.9786181  35.8727608  67.9589691   9.0721846
   5.5171432  21.9779263  31.1943226   4.6476188  22.3073940  31.4214993
   5.8646731  22.6235504  30.5789967  72.3301315  50.6189423  61.5706482
  72.3802948  49.6741028  61.4257469  71.7647171  50.7140198  62.3371315
  65.3902893  11.9485331  48.7752457  66.0357819  11.4403725  49.2665176
  65.8873672  12.3331089  48.0532646  11.5087833   8.8587055  76.2149124
  11.1532040   9.7244215  76.0140839  11.2785091   8.3231783  75.4556885
  54.0587196   7.8354449  82.2866745  54.3377457   8.7339001  82.4631805
  54.7755280   7.2930350  82.6156311  78.3066711   9.1921692  88.0959244
  78.9809341   8.6892328  88.5527115  77.4803543   8.8501148  88.4371414
   9.6745520  15.1994028  82.9308090   9.2946138  14.3256874  83.0230103
   9.2199287  15.7286491  83.5861282   6.3000164  53.8615799  68.7300720
   6.2847543  54.6213341  68.1480255   6.3620186  53.1097221  68.1409225
  54.7001495  52.1655540  86.2715988  55.2361336  52.2690392  85.4853134
  55.3058701  51.8285332  86.9317093  27.0743141  60.6550789  44.8810577
  27.2416763  61.5901604  44.9987068  27.8489170  60.2255936  45.2440529
  82.0635757  52.1992607  19.6460323  82.7637253  52.0838242  19.0036144
  82.0601883  51.3829536  20.1458969  33.9040947   2.6323171   8.3057203
  34.3320770   1.7930381   8.1363850  32.9690552   2.4456542   8.2215233
  49.3269577  29.4952774  87.5122375  49.2230949  30.2536240  88.0870056
  49.6789780  29.8574448  86.6991272  59.6424141  39.8201485  20.3224983
  59.7399826  39.3201103  19.5121422  58.9128876  40.4154243  20.1502533
  75.8768082  54.7295799  24.4444141  75.4723511  54.0908012  23.8573856
  75.8333740  54.3213501  25.3091068  64.8186188  62.5666161  14.3841047
  65.7182236  62.5400238  14.7100325  64.5130997  63.4486732  14.5959234
  27.9634743  54.4513092  82.8094025  27.0067177  54.4441490  82.8376694
  28.1843395  53.9247742  82.0411530  81.3704987  58.4045982   4.1178236
  80.8844376  58.1647072   3.3288822  82.1043549  58.9287300   3.7969239
  86.4201736  44.6283455  54.8608093  86.0556564  45.5086975  54.7695198
  87.1051025  44.5823555  54.1937332  61.9568863  35.3531799   6.3009329
  62.5215530  35.7632828   6.9560661  61.4000397  36.0649338   5.9853950
  32.4562912  52.3914223  40.7437935  32.4139442  53.3376656  40.6057053
  33.2916336  52.2516022  41.1897621  61.2365913  46.7281761  14.9793663
  60.6437569  47.1417809  15.6068296  62.1120758  46.9680748  15.2830229
  32.6698952   5.1411672  81.4634705  33.4276161   4.6740708  81.8154831
  32.9099998   6.0658889  81.5223999  58.1092148  70.0786209  59.0609856
  57.8268700  69.8390808  59.9436722  57.8455696  70.9938049  58.9652786
  70.6190262  50.3849182  75.6060867  70.3434677  50.6993256  76.4671631
  70.4961319  49.4365120  75.6468048  10.4281254  48.1627884  65.5950317
  10.7526388  48.7369728  64.9013214  11.0931406  47.4784355  65.6701660
  21.7603722  20.0707302  82.2756653  21.4700603  20.7593498  82.8737946
  22.2146397  19.4420776  82.8366241  58.4012070  13.8255005  28.8640671
  58.7174950  14.4345741  28.1968174  57.5476227  14.1740665  29.1212196
  78.6688004  54.2313805  40.7056465  79.0876389  55.0914230  40.6719589
  78.6793747  53.9959984  41.6333923  75.9419937  11.8442163  35.8242226
  76.2030182  11.5372324  36.6924706  76.4541626  12.6413107  35.6880226
  39.2457542  38.3770180  11.4222307  38.9354134  38.3667526  12.3276672
  39.9721642  37.7537766  11.4109383   3.8570511  41.4089394  77.6141968
   3.2953978  40.8178024  78.1155396   4.2367334  40.8565178  76.9308929
  26.3278732  10.8214941  17.7599049  26.4400444  11.7324839  18.0314674
  25.7208328  10.8648186  17.0210819  75.5121536  11.5691271  54.5240326
  76.1313095  11.2503414  55.1807365  75.6238632  12.5197611  54.5310783
   6.5890145  42.5668716  42.8539009   6.1007237  42.8020859  43.6428719
   5.9156938  42.4294128  42.1875839  61.1456909  45.9586449  58.5652847
  61.9102440  46.5324440  58.5158386  61.4467926  45.1264610  58.2005348
  28.5169239  64.3555374  87.6394196  29.3324814  64.2578278  88.1308975
  27.9701157  63.6278877  87.9356613  74.6152725  44.0164757  14.3390007
  73.8752670  43.8471489  14.9220533  74.2158890  44.3514633  13.5361862
  83.7854233  71.0305252  57.4009018  84.1239166  71.0036774  58.2958488
  83.0130768  71.5934830  57.4537392  15.1242342  25.4433994  19.2500210
  14.2625046  25.7713394  18.9929066  15.5316877  26.1765556  19.7112103
  52.6661987  11.7010221  59.9131050  53.3723831  12.1656218  60.3621902
  52.0438766  11.4828548  60.6068993  51.2014122  61.2652550  55.4327621
  50.8427010  61.1168556  56.3077126  52.0100021  61.7543182  55.5851898
  54.3493919  45.4296989   1.6575361  53.9231148  45.0848122   2.4421225
  55.2854385  45.3760834   1.8503275  47.6419182  27.5400391  27.6354446
  48.0814323  26.7460098  27.3311844  46.9586792  27.2240276  28.2266788
   4.7378631  13.7039156  19.9413013   4.9784222  12.7800293  20.0105591
   5.3879180  14.1613045  20.4746456  14.8456211  50.2341995   7.4672618
  15.7851419  50.2680664   7.6472206  14.6965418  50.9405174   6.8386769
  46.9804344  44.1237488   0.7964571  46.1762581  44.1809349   0.2804537
  47.3345337  45.0130005   0.7874559  73.9798584  60.5500488  35.7425423
  73.2520447  61.1413612  35.9345474  74.0634003  60.0099869  36.5284042
  65.6814880  15.2969398   2.2067897  65.3831787  14.4694128   2.5842061
  66.5310287  15.0900917   1.8172723  47.3297386  68.1864319  24.5811481
  47.7067299  67.3580399  24.2847099  46.4224739  67.9724503  24.7986736
  46.2013741  43.7963943  11.8280611  46.1738892  44.5891228  11.2922783
  45.7407379  44.0349312  12.6325159  36.6079521  48.0476265  12.7372894
  36.1989517  47.4088364  13.3211546  36.5312157  47.6591377  11.8658419
  48.6062584  48.4123535  58.6756630  47.9311905  47.9374771  59.1604385
  48.3079300  49.3218727  58.6782494  20.6320801  36.0069695  11.8044519
  21.1250267  36.7002029  12.2433882  20.5212955  35.3314247  12.4734774
  57.8908310  11.0650558  27.6619949  57.9310188  10.7574339  28.5675259
  58.5016861  11.8013821  27.6318474  32.1305084   6.2185082  73.6696243
  32.7834320   6.7466044  73.2102356  31.4147472   6.8274908  73.8514404
  74.5276794  37.7666664  27.3600197  73.7991791  37.7472229  27.9806252
  74.1822205  38.2345200  26.5997524   2.6442859   1.5409782  17.0084267
   3.3409781   1.3855985  17.6461639   1.8368447   1.3426366  17.4826946
  26.3436985  31.4449024  44.0919724  25.6947441  30.7619686  44.2613602
  26.2689457  32.0372124  44.8401794  48.4748306   2.6509142  68.9724655
  48.4537468   1.7032404  68.8394165  48.0766945   3.0128360  68.1808014
  25.5924587  20.1265926  35.6755447  26.0842953  19.5914345  36.2983894
  26.2148418  20.7958679  35.3910370  27.7640705  50.1203842  33.5691109
  27.3383961  50.7512093  34.1497078  28.2000751  50.6589508  32.9087486
  41.9312553  28.8843575  20.6539860  42.6190147  28.4500122  20.1494446
  42.0728264  29.8180237  20.4975967  54.3680801   3.7230878   0.4512955
  54.4996071   3.0091481   1.0751725  53.5257759   4.1048636   0.6982831
  31.8337193   8.5557375  78.7784348  31.7103214   7.6181927  78.6300659
  32.7832451   8.6764784  78.7709579  61.8772583  17.8664742  22.4589920
  62.5494576  18.0343533  21.7985382  62.1546936  17.0538292  22.8819218
  81.4424210  28.5631390  71.4715576  80.8828430  29.3378277  71.4170609
  81.2602768  28.1965046  72.3367996  81.6521530  66.7555313  29.2657242
  81.3883591  65.8856430  28.9658108  81.6718216  66.6840897  30.2200527
  66.4753799  70.5700073  70.1894608  66.9029007  71.2136078  70.7544785
  65.5414429  70.6745605  70.3712769  12.5217905  47.4448738  40.4412575
  12.1416426  47.9755287  41.1413460  11.7872314  46.9326820  40.1031494
  45.4240074  38.4930420  71.3511276  45.8011093  37.6765556  71.6788025
  44.5140991  38.2733040  71.1510925  75.5348053  66.7867508  73.5693817
  75.2110596  66.9886322  72.6915054  76.2834549  66.2089081  73.4215622
  83.0076981  23.4231014   7.5816493  82.0846252  23.4311867   7.3284612
  83.1265182  24.2317944   8.0797758  18.4266300  63.9824982   4.1571693
  18.2040520  63.0531731   4.1019583  19.3825798  63.9974747   4.2037048
  56.6173134  19.7375603  69.6863174  56.0879402  20.4794712  69.3938065
  57.5213852  20.0407772  69.6029968  41.9572945  58.5135384  36.1828232
  42.5506020  58.3687172  35.4457703  41.4269676  59.2655334  35.9192162
  42.4108582  65.7792969  86.7203979  42.8409538  65.5477600  85.8972092
  42.5770569  66.7164536  86.8221436  15.4775343  42.0877190  61.2181778
  16.2658272  41.5988197  60.9819527  15.4569378  42.8207169  60.6029396
  71.8591080  57.5211639  10.3713360  71.6062622  58.4443130  10.3615322
  72.7535629  57.5214272  10.7121925  69.8978348  64.5335464   9.6059303
  70.5667496  64.6962662  10.2709923  69.0890732  64.8691940   9.9925385
  49.1803932  55.6712036  28.6493950  49.9277649  55.1174393  28.8752441
  48.8171043  55.2724190  27.8586845  46.5371857  13.7881193  35.1645927
  46.0748177  13.3170328  35.8577919  47.3533478  13.3018370  35.0477791
  69.0430374  26.6645679   5.0851073  68.9117661  26.4304905   4.1662998
  69.9486847  26.9716206   5.1270123  17.9394531  12.9985304  63.1471405
  18.6257477  12.6291380  62.5914612  17.8182411  12.3503027  63.8409309
  80.7600632  40.7175751  44.2402534  80.6283112  39.8185310  44.5412369
  81.2919922  41.1237335  44.9245911  10.9133034  10.8761072  24.5952854
  10.2101212  11.5253706  24.5803127  10.6616707  10.2664671  25.2890091
  61.7306557  34.8587799  13.6663380  61.9685669  34.8170662  14.5925617
  62.1252365  35.6730728  13.3541384  57.7627716  16.7302151  30.1067600
  57.2935219  17.4482231  29.6819077  57.2264137  16.5112457  30.8687325
  60.0050774   6.7273521  67.1441956  60.1690865   7.4789014  67.7138443
  59.3844833   6.1870475  67.6332397  33.4807358  62.7663078  22.1847630
  33.3817444  63.4234390  21.4958401  33.1738586  61.9523849  21.7852783
  26.7024765  67.1924667  20.9797821  26.9362469  66.6191025  21.7097397
  26.8547878  68.0772018  21.3118668  68.8521423  56.1367569  51.1760559
  68.6886902  56.6845474  51.9438057  68.1285400  56.3352890  50.5817337
  24.9724941   8.9321251  75.3934555  25.5185432   9.7026758  75.5493774
  25.4852028   8.3931665  74.7910538  66.4590683  44.8230362  59.0511360
  66.8190994  45.7019348  59.1700783  67.2005005  44.2375984  59.2053452
  68.1858749  16.2233429  17.3777637  67.9662094  15.8134813  18.2144184
  67.3417740  16.3519592  16.9451256  72.2783432   6.2479482  36.9853897
  71.3795395   6.2357702  36.6564102  72.5936203   7.1299787  36.7882690
  43.1474571  44.2564774  39.4537582  42.7932663  44.3221931  40.3405838
  43.3846016  45.1547661  39.2233887   1.8655773  11.6379623  13.5319500
   2.3828888  11.8519926  14.3083591   0.9951752  11.4326077  13.8732138
   6.2302651  64.4563828  65.2794952   6.3818512  64.3447571  66.2180023
   6.9256654  65.0486374  64.9933395   8.9832067  23.4892693  73.7142029
   9.2346544  22.7221432  74.2285233   9.2208157  24.2352428  74.2649231
  76.3590851  24.1724377  71.7561874  77.1524429  24.6294556  72.0353775
  76.5596313  23.8620777  70.8731842   9.7849607  67.0736008  85.5219955
   8.9258928  66.6684875  85.4031982   9.8366537  67.7328491  84.8299332
  26.7556496  30.0758057  17.2152538  26.1618900  30.7307854  17.5822468
  27.5228100  30.1007900  17.7871552  20.0864182  20.3290653  85.5338516
  20.6749039  21.0824604  85.5819550  19.4687119  20.5517254  84.8373718
  56.6713295  46.1028252  29.2005863  56.8307381  46.7362099  29.9003334
  56.0849533  45.4556007  29.5923786  52.9546280   2.0298579  79.3650360
  52.2174072   2.6093616  79.5571671  52.6060104   1.1478420  79.4944382
  74.1096954  33.7366333   4.2450676  74.0098267  33.1375656   3.5052183
  73.2178879  34.0212250   4.4448805  65.1809769  46.4282837  37.8772697
  65.6534424  46.9534874  37.2313805  64.9317017  47.0532570  38.5580788
  11.1274948  21.0661716  28.3549538  11.9793520  21.3373127  28.0128212
  11.0073595  21.5941010  29.1443138  72.7980118  68.4178696  69.4401627
  72.9510727  69.0238037  70.1651764  71.9301071  68.0527344  69.6123352
  76.2413483   7.2030816  24.1512794  76.0906601   6.7773566  23.3073101
  75.7763062   8.0371094  24.0852489   3.6322768  43.2675972  20.4969254
   3.1606662  43.4821892  19.6920872   3.2229195  42.4595032  20.8061867
  69.8440094  14.7575998  43.4578285  70.0855026  15.4888897  42.8893852
  70.2783813  13.9984131  43.0690002  20.4801178   5.5044532  53.6757126
  20.2908077   5.2303071  52.7783623  21.3472576   5.9066553  53.6253853
  63.9934158  49.6496353  31.2101555  64.1090164  50.0246086  32.0832329
  64.8808212  49.4362068  30.9217281  80.3174744  49.0901947  66.8034744
  80.4209824  48.2181206  67.1842651  79.6623917  48.9747772  66.1151581
  67.7642517  50.7849922  67.3028946  68.6947632  50.9936867  67.2202988
  67.4423904  50.7648315  66.4016495  15.6853085  44.3297348   2.3626881
  14.9990559  44.4047394   3.0257604  15.2401686  44.5134697   1.5354491
  14.1216784  66.9600601  16.5293751  13.1986113  66.7439957  16.3971100
  14.4165573  66.3483810  17.2040043  63.5841255  61.5781097  78.3129425
  62.8839760  61.0923576  78.7489090  63.3121605  62.4940338  78.3708191
  37.0961876  35.6913261  22.2726612  36.4446373  36.3239899  22.5750751
  36.6317368  34.8543930  22.2648029  15.4582739  41.3502998  14.4339933
  15.4994936  42.1129417  15.0109787  14.5622406  41.0270004  14.5279894
  75.1271210   0.6708742  81.2157288  75.5829239   1.4978093  81.0587006
  74.3443069   0.7209446  80.6671600  74.0010834  66.0114822  52.4380798
  74.7034836  65.4163284  52.1760559  73.7976837  66.5061340  51.6442413
  37.1586266   1.6409470  26.0640106  38.0619583   1.9049404  25.8892822
  36.9850540   0.9461135  25.4289417  67.7119370  60.8353081  30.3961563
  68.3661270  61.4620247  30.0871239  67.1861801  60.6362839  29.6214314
   3.4726312  66.1062012  89.0941696   3.0192602  65.3137512  88.8065872
   3.8116245  66.4943008  88.2875137  82.5468140  62.7609520  48.0610313
  83.1565628  62.8823700  47.3332291  83.0475159  62.2717934  48.7139130
  70.7373657  22.6635857  27.1491222  71.5942841  22.9189091  26.8074684
  70.6305084  23.1870594  27.9433441  47.5168419   4.3078775  71.0090256
  47.8790550   3.6054788  70.4689636  46.9065742   4.7646828  70.4301224
   7.6506319  14.4081659  63.7060318   7.6993718  14.4605923  64.6605530
   7.1360459  13.6192837  63.5354500  59.4389992  67.8654861  62.7711525
  59.1092644  68.1627426  61.9231300  60.3476410  68.1656570  62.7934151
  85.5779724  54.6833954  29.0562801  85.1453400  54.4786682  29.8852234
  85.5342178  55.6374664  28.9925060  61.1344643  66.3169250  88.5490341
  61.0662689  65.5137711  88.0327759  61.6024513  66.9282455  87.9802551
  60.4985809  53.5508385   3.3735406  60.4087181  53.9418526   2.5044811
  60.1784477  52.6550255   3.2673948  74.2100525  46.0515862  56.6735115
  74.7993011  45.8042068  57.3861275  74.7440872  45.9732208  55.8830070
  29.9245167  70.8643799  54.8001709  29.7188168  70.4588013  55.6424408
  30.6509838  70.3451614  54.4553719  55.1681328  21.5046597  44.0439568
  55.0098610  22.4481449  44.0758095  55.9182968  21.3679714  44.6225777
  72.3977737  54.3507042  67.3490067  72.3205109  53.9657135  68.2219620
  72.8563766  55.1786156  67.4921036  66.6483002  16.7471466  70.1142502
  66.8889236  17.6652088  70.2387238  65.6939392  16.7574520  70.0412903
  11.1002684  41.5119019  67.5097809  11.4932470  42.2835693  67.1019440
  10.2538137  41.8179855  67.8354492  27.5558929  22.6325264   5.5909843
  26.6636429  22.8037968   5.8922963  27.5505619  22.8886909   4.6687136
  84.7757950  11.9833612  18.4694767  84.8518982  11.1605310  18.9525814
  84.1859055  12.5189095  19.0000000  62.8145332   1.5251116  59.8557053
  61.8953094   1.4411145  60.1090965  63.2635841   1.7757225  60.6630363
  22.5781479   7.3011622  53.7540703  21.8877621   7.9641843  53.7529068
  23.3158092   7.7227116  53.3131790  72.8760147  49.1002922  54.5143738
  73.7093353  49.2080574  54.0559120  72.9183044  49.7252045  55.2382050
  25.0566273  66.4876022  13.6715012  25.1739330  65.9322205  14.4422312
  24.4351368  67.1591568  13.9525499  51.3489342  61.7509689  48.3067055
  52.1753731  62.0085678  47.8982010  50.7479439  61.6247292  47.5724640
   0.3668843   3.2898614  30.9389267  -0.0556980   2.8249121  30.2167931
  -0.2907989   3.9184289  31.2365646  61.8042755  24.8937702  44.1441231
  61.7121773  24.7814617  43.1980057  62.2754478  24.1123695  44.4333305
   5.0752687   4.1099882  79.0241852   5.2333517   3.3853345  79.6292648
   5.4685168   3.8237679  78.1997681  12.9957819  59.5414467  31.7398510
  13.1268263  59.4277267  32.6811943  13.4329462  60.3680573  31.5353088
  37.5627975  39.5785446  82.1741638  37.9696770  40.0477066  81.4457626
  37.6621361  38.6536102  81.9486465  51.7610550   8.0868769  50.5570030
  51.6852684   7.5720496  49.7536125  51.8880310   7.4361343  51.2473984
  10.2252464  48.6076050  71.2413483   9.9796209  49.4406853  71.6436920
  11.0982437  48.7637520  70.8811798   9.7694559  62.1993599  74.8758392
  10.5929871  62.5920334  75.1653824  10.0351486  61.4323616  74.3685303
   0.6934481  63.7942467  51.7392883   0.3184093  62.9144058  51.7011604
   1.5420448  63.7119560  51.3041534  68.5282288  71.3006973  72.2453308
  68.1316528  70.4332886  72.1643143  69.2100372  71.1913681  72.9082184
  21.1206551  70.0714035  54.4538269  22.0263004  70.3712387  54.5321732
  21.1460400  69.1567154  54.7347717  84.0426254  63.0775795   2.5884850
  83.7635269  63.9371452   2.2730803  84.8999634  63.2344398   2.9841974
   5.0398812  62.3823395  47.8047447   4.9065795  62.0859566  48.7050896
   5.2412276  63.3145180  47.8867836  83.1713791  54.1489677  78.7259903
  82.6954193  54.8108902  78.2244339  82.4887009  53.6592751  79.1846619
  41.4129524  20.2137394  68.6861115  40.7063904  20.7765484  68.3694992
  42.2117081  20.7123222  68.5139618   3.6549048  19.3832798  71.3058167
   2.7144067  19.2477684  71.1903534   3.7725730  20.3295479  71.2223663
  55.5488396  59.7067528  50.2890244  56.3405113  60.0746422  49.8964043
  54.8894234  59.7647057  49.5976143  40.2790222  45.9841385  63.6450310
  40.1706047  45.6110458  64.5198364  41.0509567  45.5429649  63.2904701
  13.2519503  13.6204824  23.7895336  14.0365028  14.1275730  23.9982662
  12.6372404  13.8299799  24.4927235  85.0448532  26.1999474  24.9198055
  84.6386337  27.0666428  24.9124699  84.9707260  25.9083710  25.8284969
  83.8613358   5.9418459  38.7240372  84.5167160   6.4104791  38.2072334
  84.1880264   5.0431495  38.7670174  34.4993706  43.5502777  62.8487740
  34.4552917  42.7012939  62.4088707  35.3017731  43.5090790  63.3690491
  72.1274643  60.3723068  10.1947746  71.1984253  60.5787582  10.0923510
  72.5816040  61.1681633   9.9180012  11.1247225   6.8592958  21.7415218
  11.2540293   7.5580158  21.1001930  11.1222086   7.3078032  22.5871372
  45.8298073  64.9279099  74.7048645  46.4701347  65.6302109  74.5909042
  44.9808846  65.3671417  74.6534882  77.3096313  27.6558094  16.9403915
  77.4775925  27.1826420  17.7553349  76.9757462  26.9887466  16.3405781
   5.3035150  26.1643429  66.5444260   6.1116605  25.9304867  66.0878754
   5.3893089  25.7577343  67.4067154  33.7886772  33.9601936  65.3813858
  33.1107712  34.6259575  65.2654800  34.2376480  33.9259491  64.5367050
  69.9139862  54.2781296  44.6355286  69.7200317  53.6380997  43.9507141
  70.1617279  53.7495728  45.3941345  44.7020950  64.6784592  61.9653130
  44.3733711  64.0171814  62.5743141  44.2225838  65.4745636  62.1944733
  61.4662590  53.6791420  40.6907043  61.0776939  53.4180450  41.5256157
  61.1581116  53.0216026  40.0670700  75.4324951  18.7299156  47.6386986
  74.9839935  18.1612835  48.2645836  75.5089417  19.5702381  48.0906334
  -0.1530308  33.6948051  33.3674469  -0.3107663  32.9631920  32.7707100
   0.7264974  33.5381966  33.7111588  41.3812103  19.9362755  14.0767555
  41.0902290  20.8467579  14.0259151  40.7504616  19.4530888  13.5429773
  56.3713303  37.5341492  77.5086365  57.2335892  37.9083557  77.3277817
  55.7650642  38.2672539  77.4026566  35.2198181  65.2063217  28.3263836
  34.4294167  65.2513657  27.7883625  35.9141579  64.9671783  27.7124348
  86.8287811  36.4542046  72.2837601  85.9371796  36.1567345  72.4648361
  86.8448944  37.3616867  72.5878220  11.6531429  30.1388760  69.9718857
  11.0050898  29.6642265  69.4513397  12.2539434  30.5101509  69.3258057
   0.9379059  53.6512032  10.8677654   1.7449070  54.1560097  10.9685240
   0.2401804  54.2686462  11.0872469  62.0558472  56.3461761  57.3879585
  61.2569923  55.9019814  57.1037865  61.8082771  56.7878685  58.2002716
  56.9344177  59.6432571  21.8743515  57.3766899  58.8050537  22.0086651
  56.4787025  59.8085709  22.6997147  44.7385521  46.6037254  84.8167419
  44.7573204  46.8128624  85.7506256  44.6942863  47.4550896  84.3814850
  49.4869308  52.3978424   8.2537613  48.8219833  52.9528046   7.8462152
  49.1796608  51.5042877   8.1008692  74.8662415  37.2428436  12.7286453
  74.4143066  37.9392738  13.2050648  75.7749252  37.5391388  12.6762819
  14.8343153  11.2071218   2.7451286  14.9460144  12.0040684   3.2634244
  14.7576494  10.5079556   3.3943746   0.4855344   1.7252403  39.7754364
   0.3721838   0.9865941  39.1772881   1.1289330   2.2868950  39.3432159
  53.7940445   6.3010159  68.1489716  54.1365242   5.9975152  68.9897003
  52.9271049   6.6502805  68.3555145  56.5364990  53.9409676  19.7896652
  56.8876038  53.0507774  19.7669411  57.2278709  54.4607315  20.1996365
  12.6855726  71.5174789  86.3506165  12.8076506  71.0196533  87.1590042
  13.3743086  71.1992264  85.7670135  79.1007309   3.7772717  52.2376900
  78.8227692   3.3776038  51.4135323  80.0420227   3.9149458  52.1316338
  17.5679092  45.8986320   3.4581082  16.9464359  46.5025597   3.8646438
  17.0236683  45.1898003   3.1151907  82.5936356  68.0387192  15.9870081
  82.7006989  68.9844360  16.0889091  83.4383392  67.7366409  15.6531544
   9.6294556  39.6994476  43.6896935  10.5064173  39.7669144  43.3120461
   9.7071514  39.0156975  44.3550377  63.6034660  25.4305859  21.3648548
  63.0540161  24.6489677  21.3064709  64.4761887  25.1292706  21.1122875
  16.0707016  25.4705143  80.2886124  15.3746490  25.1716213  79.7034531
  16.8009510  24.8764668  80.1151962  62.7427025  26.2747917  86.4568024
  62.3472939  26.7115021  87.2112350  63.3879356  25.6782875  86.8363800
  77.4320526   1.2051557  66.8731842  77.6041794   0.7515516  67.6983185
  77.7629471   0.6109377  66.1996460  31.0273685  30.7141590  21.4742126
  31.0504990  31.5594025  21.0255909  30.1471691  30.6649323  21.8471146
  15.7558203  21.1946239  35.3109169  15.7052002  20.5885258  36.0500450
  15.6367664  22.0600319  35.7022324   8.3388262  54.7321968  83.6018600
   8.9560490  55.1260910  82.9853210   7.5888333  54.4813156  83.0625992
   7.1858325  47.1888237  64.4991837   8.1319551  47.2531090  64.3689880
   6.8628087  46.7656136  63.7037086  66.5465317  25.1469898  58.9461517
  67.1598816  25.8796062  59.0036049  65.6815643  25.5557384  58.9776802
  62.5221062  27.7420616  88.8206253  63.4263153  27.8517189  88.5263290
  62.1913109  28.6351986  88.9160767  81.1715698  26.2616882  85.1366043
  81.9267502  26.0759029  84.5785522  81.5361786  26.3265247  86.0192566
  76.9960098   4.0380759  68.8191605  77.4764862   3.7242584  68.0530777
  76.1438065   4.3050179  68.4745865  69.7282715   9.7750940  31.9892654
  69.5146332  10.5047398  31.4077072  70.1049194   9.1109953  31.4119129
  68.6813431   5.5933599  19.0276585  68.6720657   6.5502286  19.0510597
  67.9300766   5.3598161  18.4824181  36.2631989   4.6334982  10.9841976
  36.3199387   4.2544723  10.1070700  36.4925461   3.9133642  11.5715961
  49.7733116   6.5783606  65.4837341  48.9117966   6.1669664  65.4145889
  49.6402092   7.4689355  65.1590881  13.9015007  62.3499031  64.4745865
  13.4793253  63.0092812  65.0252380  14.7357941  62.7462044  64.2233276
  57.9816437  55.4840088  52.5045013  57.2509193  55.9904633  52.8591537
  58.2067528  55.9284630  51.6871796  72.8355026  58.9382935  49.8389664
  72.3223114  58.7581520  49.0513000  72.1908875  58.9541512  50.5463905
  63.4717178  47.6152840  19.9670334  64.3915100  47.6184692  20.2320004
  63.0729141  48.3198395  20.4777088  31.1607456  42.3329735  61.9887886
  30.5352077  42.5018883  62.6933441  30.9852753  43.0177650  61.3434219
  16.5356178  25.8483658  71.0479889  17.0911179  25.5222626  71.7560196
  16.3842087  25.0846176  70.4912186  54.8794899   1.3847058  10.9816198
  54.5926437   0.5622490  11.3785038  54.1456070   1.6524987  10.4285040
  34.5354233  39.5607147  47.3748436  35.3766747  39.2776146  47.7331467
  34.0169449  39.8015137  48.1425858  64.5636902  54.9337540  49.9133339
  64.0181885  54.8609161  49.1301651  64.0239716  55.4197845  50.5368004
  30.5706825  63.6004906  51.1241035  30.3368359  62.9637108  50.4487801
  30.3452339  64.4486313  50.7419167  74.2081985   4.0468497  88.4041519
  74.4510803   3.6948962  87.5477829  73.4436035   3.5338748  88.6658325
  24.0868492  11.4424534  79.0580292  23.6775398  12.0491714  79.6749496
  23.4433517  11.3440104  78.3562775  24.1660614  64.4419479  58.1697502
  23.9344406  65.1440506  58.7777328  23.4039249  64.3604889  57.5963860
   3.9301739   4.0728827   5.8265648   4.8481278   3.8802774   5.6355252
   3.5461414   4.2783446   4.9741936  74.2381744  53.8388596  72.4081955
  74.3597717  53.9946671  71.4716187  73.4665833  54.3562241  72.6388702
   8.1652479  36.1559372   9.8365145   7.3762393  36.6540451  10.0500231
   8.0554056  35.3241692  10.2973061  80.8373871  51.9860344  88.0154190
  81.6819839  52.0641518  88.4590302  80.5586166  51.0866852  88.1877365
  69.6199493  26.4477158  83.8496323  69.5955582  25.4978695  83.7337494
  68.7479324  26.6718273  84.1745987  35.5734215  36.9356079  54.1679459
  36.5250359  36.8475723  54.1139641  35.4330368  37.6230545  54.8190575
  86.7233582  29.7331791  66.1698532  86.1690216  29.8511276  65.3984756
  86.3155289  30.2774944  66.8433762  80.6304855  34.3345909  83.7131958
  80.2142715  34.2735252  82.8533859  81.5269241  34.6132164  83.5261002
  34.8975067   1.9881079  32.9450645  35.6820526   2.3825510  33.3260231
  34.1713867   2.3927472  33.4196739  18.4796753  62.2941895  34.0023193
  17.8353996  61.5889664  33.9406586  18.6630001  62.3699226  34.9387436
  37.2376709  16.9541187  23.1457958  37.9864693  17.2006245  22.6028709
  36.5555458  17.5841141  22.9133224  22.9601173   9.8478355  73.3413086
  22.8757324   9.2009811  74.0418015  23.8424530   9.7128248  72.9956360
  83.2093887  16.1254997  22.3093605  83.8752747  16.4618568  22.9091091
  83.0332718  15.2376118  22.6205959  44.7389259  13.2998371   4.5366273
  45.3650131  13.1437120   5.2436423  44.9960480  14.1465406   4.1716428
  54.3652992  14.0512180  69.3300171  55.1218681  14.4090204  68.8654633
  54.5955048  14.1261044  70.2561035  25.1080627  31.8060627  73.7207794
  24.9521637  32.7407455  73.8560562  25.9141502  31.6252594  74.2042694
  65.2623138  66.5835953  24.9283295  66.0810013  66.4544144  25.4071712
  65.5204010  66.5773239  24.0065994  21.1343975  42.6785240  64.5549011
  21.2814255  42.2331772  63.7204704  20.1819477  42.7344589  64.6319809
  19.3348789   9.4296923  30.0591259  18.8598232   9.0405760  30.7933903
  18.7145100  10.0481482  29.6732712  29.9616966   1.6297543  72.0922775
  30.0310020   2.0656493  72.9416428  29.0253448   1.6393805  71.8938217
   5.3816395  58.9317627  48.4002457   6.2012601  58.4399185  48.3498268
   4.9481835  58.7612877  47.5640106  22.1966000  29.6357059  18.8469849
  23.0655270  29.6119499  19.2477798  22.3085880  29.1926556  18.0059166
  58.0220413  13.0332432  49.8015633  57.9462624  13.1799850  50.7444077
  58.9161949  13.3004484  49.5886803  44.0425606   3.7083616  37.0741196
  44.9943695   3.7284214  36.9746780  43.7634163   4.6049657  36.8886147
  76.8130722   5.9704490  15.3743753  76.2444305   6.5764375  14.8993483
  77.1287079   6.4756413  16.1236343  40.4074173  30.1861782  75.7566757
  40.9908218  30.2074299  76.5152359  39.6068954  30.6157684  76.0580826
  81.7949677  62.7680206  41.5934944  82.0061111  61.9611588  42.0632019
  82.4148254  62.7899437  40.8644333  80.5521545  15.4537830  54.6339951
  80.9909973  15.9164896  53.9201698  80.1537628  14.6906185  54.2155533
  81.7398682  27.4500961  53.0895348  82.2732315  27.8451710  52.3998489
  81.2111053  28.1730442  53.4271622   5.5549850  66.5887299  55.9452629
   4.6943741  67.0072556  55.9249344   6.1602764  67.2715530  55.6561127
  81.3182449   8.8994818  48.2178307  81.9449081   9.5635042  47.9304237
  80.5670624   9.0109329  47.6351357  27.6782570  42.3184586  76.7106476
  27.1436253  43.1062164  76.6114655  28.0033779  42.3613091  77.6099243
  22.1599579  22.6218586  62.1684875  22.6217213  23.3819180  62.5224876
  21.6470776  22.9712467  61.4397125  10.0490208  59.7059593  35.1114082
  10.3767328  60.3283043  34.4621582   9.2917614  59.2981110  34.6913452
  57.7820282  30.5717373  58.6216087  57.5475578  30.5706139  59.5496483
  57.2122879  29.9098206  58.2298241  13.3940582  26.5236912  61.6067314
  12.8340387  26.4694862  62.3811150  14.2463875  26.7967205  61.9461746
  61.6685028  28.7250786  32.3599319  60.8718987  28.6526375  32.8856735
  61.7351646  27.8834362  31.9089031  22.0730648  49.1392860  49.0043564
  21.9972553  48.6601868  49.8295479  21.3875732  49.8057747  49.0505104
  34.6460381  17.4976673  78.7196350  34.9860992  17.2761440  79.5865402
  33.7165184  17.6740894  78.8648834  79.1092377  39.0094414  37.4608955
  78.6569061  39.3945618  36.7103577  78.6577454  38.1791191  37.6124001
  78.3712311  64.0345688  80.5829239  78.9326782  63.5322609  79.9924088
  78.0201569  64.7389908  80.0381622  57.3732643   9.4698439  83.9822922
  57.1257858   9.2066517  83.0958862  56.5945969   9.2940855  84.5105133
  11.8744173  16.6154346   8.2993898  12.5860739  16.9467983   8.8470888
  12.1687393  15.7473793   8.0235529  57.1892319   3.9792774  12.6971178
  58.0702896   4.2288036  12.4183569  56.6066208   4.4717665  12.1189747
  85.0527496  48.8391914  68.6228256  84.2005768  48.4037971  68.6014481
  85.6376190  48.2440453  68.1538239  71.2569122  31.7237892  63.8003159
  71.5509949  32.5291176  64.2259903  71.8584137  31.6082687  63.0647316
  79.2563553  20.3256645  73.9334335  80.0713654  20.1776333  73.4537582
  78.6565170  19.6595116  73.5977783  61.5551567  37.3262100  15.6110201
  61.9594307  37.6102257  14.7911835  60.6722221  37.0539474  15.3609571
  72.5540085  46.4428940  45.6561852  73.2741394  46.5254402  45.0310211
  72.3481369  45.5081139  45.6623344   0.6246979  56.8635635  60.0852089
   0.3350690  56.6340866  59.2022095  -0.1755625  56.8522835  60.6102676
  59.4922523  19.8492985  55.1985817  58.7266006  20.4119473  55.3144913
  59.2526245  19.0275059  55.6269150  53.0586281  13.1762800   3.0827191
  53.1283989  14.0846281   2.7890031  52.2707710  12.8450279   2.6516919
  32.0602112  22.5898399  80.8811951  31.4300079  22.1644154  80.2997437
  32.3190422  21.9040203  81.4967346   5.7455893  36.2979126  45.8688545
   5.7886667  36.6633072  46.7525177   6.5075932  35.7215538  45.8105850
  76.3500214  25.6688137  18.8869915  75.6356430  25.3574638  18.3311558
  76.1315002  25.3459015  19.7611828   9.2353745   0.3723703   7.0469689
   9.0677624  -0.1753694   7.8138585   9.5737696   1.1920116   7.4073968
   9.9535255  42.5011749  60.3544846   9.7137556  43.1670837  60.9989281
   9.9952116  41.6867905  60.8557549  13.1133509  22.1493092  12.0855942
  13.8424740  21.8267307  11.5559196  12.9307880  21.4384327  12.7000523
  80.0512085  62.3047295  32.3687286  79.8647156  61.3897858  32.5792732
  80.9870682  62.3184013  32.1682091  73.6376648   1.3804263  84.9449463
  74.1126022   0.5719530  84.7524948  72.8892822   1.3663893  84.3483200
  13.0908604  46.1365204  51.3422775  13.2023668  45.2846527  51.7643166
  13.5411453  46.7514687  51.9213371  41.7621689  70.3849411  15.0480137
  41.0450020  70.7424927  14.5245018  41.3303185  69.9743805  15.7971325
  58.7484703  18.1352234   8.5069990  58.2490501  18.6137562   7.8453202
  58.2655945  18.2778301   9.3210793  17.3119698   9.6311121  28.0763035
  16.3590298   9.7198172  28.0925961  17.5730934  10.0062485  27.2352810
  63.8619347  16.4748936  33.6263962  64.1923141  17.1903763  34.1696892
  63.4867897  15.8537111  34.2505989  85.6366119  16.1877613  10.5762062
  85.3159332  16.7141171  11.3085642  86.5494080  16.4557247  10.4702606
   1.7054641   4.3502173  64.3936081   1.9078771   5.0695734  64.9917603
   2.3136926   3.6540127  64.6417770  22.2915077  58.6331329  81.5803223
  21.9841290  59.4620552  81.9472504  22.8147888  58.8871078  80.8201218
  53.8361130  56.1965752  25.8169689  53.1165085  55.6549377  26.1410561
  53.4231567  57.0271912  25.5808086  74.8793259  12.9117270   8.6643505
  74.9349365  13.4429722   9.4586535  75.7891006  12.7926569   8.3916569
  86.0945129  58.3680725  76.9706421  86.2899780  57.6205177  76.4056778
  85.7199783  59.0224686  76.3809662  43.9392776  64.0624924  56.0366478
  43.3505249  64.8042831  56.1757278  43.4192009  63.2956276  56.2767944
  67.5710983  38.1677246  12.4477501  67.3551483  37.8946686  11.5561018
  67.5262604  37.3619537  12.9624853  51.3554497  36.0854759  77.0278625
  50.9204063  35.6000557  76.3269119  50.9541016  36.9541016  77.0024872
  38.4465523  69.2276459  49.1694031  38.9157753  68.7242432  48.5040855
  37.9588203  68.5711365  49.6667480  46.0456390   2.2297077  77.2578812
  45.4867020   1.5335497  76.9126511  45.4640503   2.7520289  77.8103027
  15.2798328  47.7156487  57.9963760  14.5520496  47.0943680  57.9724083
  15.5961304  47.7489700  57.0935593  62.5879211   4.8401628  25.9610996
  61.6591873   5.0327449  26.0899105  63.0007172   5.0868597  26.7887306
   4.4880652  14.4295187  13.6533051   3.5674481  14.2799339  13.4380827
   4.6973529  13.7508163  14.2950163   4.4413152  41.6114807  64.8900757
   3.5865755  41.6317368  64.4596786   4.5138903  42.4642448  65.3187561
  42.1911392  45.0212135  30.9578152  41.8028564  45.4685593  30.2059174
  42.9608040  45.5461426  31.1775761  82.3585815  24.3242722  19.8951130
  82.5212402  24.1866951  20.8283043  81.8428116  25.1297779  19.8580914
  75.6857452  65.5826645  24.7412968  75.6501846  66.5290222  24.8804550
  76.1172867  65.2414398  25.5246048  16.0276966  22.2626171  86.0207367
  16.4907036  22.0734253  86.8368607  15.2193756  22.6936569  86.2983246
  63.3601456  33.3777046  53.9347000  63.3732529  33.6774368  54.8436661
  62.4737244  33.0399361  53.8066368  23.1430740  22.0093174  80.2290955
  23.5941086  22.3708134  79.4661255  23.8132401  21.4993687  80.6841354
  63.9026184  45.2174644  41.5155334  63.4327736  45.0560303  40.6973534
  63.3424911  45.8260498  41.9973183  19.8435497  52.9097595   1.3679441
  20.3072834  52.5503731   2.1242671  19.1016541  53.3830070   1.7445834
  17.5677395  16.8952904  66.7170715  17.9386520  16.4610195  67.4852295
  18.0242538  16.4997120  65.9745483  57.5254707  48.4489403  41.3627281
  56.8589897  47.8688660  41.7308960  57.2848892  48.5351143  40.4402733
  22.8043098   8.3356705   2.7135012  22.1832561   8.9104319   3.1609101
  23.4784088   8.9265242   2.3777733  27.8290577   1.2415376  47.9375191
  28.0172558   1.8991370  48.6071281  28.2643337   1.5695728  47.1506500
  15.1213341  69.4223709  75.3450775  15.8246708  69.5534592  74.7091827
  15.4797096  68.7946548  75.9725876  -0.0310090  29.9549751  56.4330368
   0.3292877  29.6491776  55.6006279   0.7136114  30.3519211  56.8849297
  33.3897400  21.3909321  73.2173538  33.9570847  21.8612804  73.8281937
  33.0337257  20.6658974  73.7309799  81.8943787  39.2083893  78.7413177
  82.8342743  39.3043747  78.5876617  81.7326279  38.2687302  78.6569824
  82.3259048  14.0458965  39.6832314  83.0514755  14.2007284  40.2880516
  81.5692368  13.8965664  40.2501373  74.0605927  22.6983261  82.9586411
  73.3627777  23.0261459  82.3913498  74.1081619  23.3347569  83.6720352
   5.7750683  22.2606735  22.4909077   5.3736429  21.7004375  21.8266602
   5.3679419  21.9870548  23.3128643   6.7586365  26.2794132  17.0584526
   7.2216568  27.0501404  17.3868217   5.8409505  26.5490608  17.0213699
  58.6860275  18.8377075  52.4537430  58.8186798  19.1991558  53.3300934
  59.1347580  17.9924202  52.4728508  83.8843002  28.3447933  60.1779175
  83.7548370  29.2930183  60.1964264  84.5951462  28.2123146  59.5507202
   5.4954000  67.8279648   1.2721280   5.1396198  67.0751343   0.8000104
   5.3877368  67.6037216   2.1964409  77.8076324  42.0630188  60.8046455
  77.2196655  42.0353584  61.5594711  77.8587570  42.9907951  60.5747452
  69.9648895   6.8150125   2.9974716  69.7105637   6.5859866   3.8913944
  70.8539658   6.4723282   2.9061553  58.5991592   8.3047438  49.9850082
  58.7834549   8.1000395  50.9017181  59.3859863   8.7546120  49.6771889
  80.4518356  55.2104378  15.0935364  79.7123718  55.5657158  14.6003761
  81.2212753  55.6252975  14.7035570  40.9943275  10.6376219  63.0709572
  41.2848930  11.4457922  62.6482697  40.4778175  10.9320087  63.8211479
  74.9966278  48.1294823  15.1213264  75.3173218  48.6083984  15.8855438
  75.6665573  47.4661064  14.9559231  25.0954628  33.1082115   8.8088732
  24.9306660  32.1719055   8.6974859  25.6213055  33.1656113   9.6066360
  20.0617714  27.2867374  26.8467827  20.5026703  26.7897587  26.1576881
  20.3027401  28.1973972  26.6768837  85.8247299  48.9297104  13.7315912
  86.2735443  49.7420311  13.4972115  84.9694366  48.9975853  13.3072071
  71.2738724  66.1045303  30.0113487  71.9104691  66.2020187  30.7194958
  71.7891769  66.2033386  29.2107639  73.8270874  56.2911873  60.8044434
  73.0801315  55.8925323  60.3579521  73.4394913  56.9592247  61.3698845
  39.9313049  49.4084854  86.4807205  39.2519188  49.0250702  87.0353928
  40.7511635  49.0594063  86.8302994  17.1421280  39.4151878  26.7715397
  16.8214130  38.9176292  27.5237427  18.0749836  39.5392303  26.9465408
   5.7116017  70.9723129  70.1709900   6.1749105  71.4793015  69.5042496
   6.2670941  70.2069397  70.3188553  81.5160751  14.1531277  59.7934036
  80.8605423  13.5881033  60.2023659  81.4310532  14.9892006  60.2516441
  42.4739075  68.9095306  38.4913979  42.4535255  68.0042877  38.8017998
  43.4033813  69.0968704  38.3601799  38.3928070  40.3376770   6.0867209
  39.3113670  40.2342072   6.3352518  37.9455032  40.5500679   6.9058938
  43.4555779  69.0285110  74.9440689  43.3674965  68.4974136  74.1526108
  44.3179817  69.4360886  74.8642654  64.6696320  17.0464458  51.0173874
  64.7923508  16.0992832  50.9537086  65.4038315  17.3476372  51.5526123
  23.4895191  42.1865807  57.4676170  23.3916073  42.7278061  56.6842155
  23.9285965  41.3943558  57.1580696   8.3191900  59.7936707  44.8867836
   8.3220310  58.9200211  45.2778893   8.2525187  59.6343918  43.9452858
  36.9697075  14.8597355   7.2460322  36.7840118  13.9378996   7.4248281
  37.2613144  14.8728819   6.3344264  52.0093880  63.1368980  24.1446800
  52.1769104  64.0443954  24.3988762  51.9092636  62.6703262  24.9744511
  79.4607544  11.3569260  73.7436981  79.9057236  11.0374985  72.9587173
  79.9254837  12.1621265  73.9715347  53.1087265  26.2633705  24.0128040
  53.1630440  26.9754925  23.3754959  53.0910110  26.7033806  24.8626919
  55.6332817  15.4401884   3.0474217  56.2586365  16.0645103   2.6794763
  55.5047836  15.7333364   3.9495220  65.9899750  18.4497375   2.1154547
  65.7853928  17.6857281   2.6545942  66.6054306  18.1221886   1.4595906
  62.8221207  47.8314095   0.4737656  63.1445236  48.6941948   0.7343196
  61.9356880  47.9942856   0.1513717  35.3009377  59.0236740   8.5785189
  34.6643906  58.6337814   9.1777010  35.4971046  58.3276482   7.9513836
   3.6908689  34.6030350  28.7253036   2.7829046  34.6623993  29.0224724
   3.8316698  33.6689720  28.5706139  43.0521164  43.0180969  35.1682091
  43.8249168  43.5807877  35.1192894  42.3192177  43.5996437  34.9659882
  27.8220043   0.7955498  56.7159500  27.3375435   0.0694767  56.3230820
  27.4632874   1.5776103  56.2965050  43.4661942  61.7423363  46.8156166
  43.0203819  62.0308151  46.0192070  43.0162125  62.2045517  47.5227966
  58.1992645   7.8469925  53.0611687  58.2022552   6.9035206  53.2226753
  57.2719612   8.0833950  53.0398254  29.3747196  31.3563843  80.6888275
  30.2958145  31.4422054  80.9347000  29.1671619  30.4368382  80.8549194
  55.8755035   6.4241147  33.6755180  55.5911255   6.0925250  34.5272255
  55.1352081   6.9431829  33.3612480  79.3927917  36.3730392   7.3435793
  80.0682678  35.7057953   7.2221413  78.9817352  36.1485710   8.1783724
  66.3573685  40.2660179  72.1477737  65.5339050  40.1656036  72.6253357
  66.3983536  41.1982346  71.9343948  53.7476692  42.7279396  55.5187798
  52.8447838  42.4103661  55.5056725  54.0015373  42.6900291  56.4409218
  45.6654778  59.3218384  64.1388931  44.9130402  58.8761101  64.5279922
  45.2842522  59.9132004  63.4898987  48.1578484  30.9837341  82.5500565
  49.0263634  31.3269348  82.7601242  47.5517120  31.6440620  82.8859177
  78.1980362  30.9128208  80.1185074  77.4710159  31.2004204  79.5662766
  78.8179321  30.5122948  79.5089645  45.9344940  44.6920395  53.7931137
  46.8005791  45.0058403  54.0532341  45.9125977  44.8091583  52.8433571
  74.5558319  12.0352125  61.5707512  73.7210388  12.0776005  61.1043243
  74.3248291  12.1776848  62.4886703  39.5161819  14.3061085   8.6361589
  38.7997704  14.8208208   8.2645969  39.1502037  13.9287701   9.4361019
  66.5982819  62.9831543  42.7687683  66.9305115  63.7779541  42.3514595
  67.2482834  62.3126564  42.5586166  84.4551468  50.2816849  22.5521526
  83.6216202  50.1341057  22.1052971  84.9271317  49.4542732  22.4580688
  84.3559265  52.8645325  12.2104282  84.2220688  51.9229126  12.3184042
  83.6321487  53.1467781  11.6512222  16.3039131   1.7191659  15.1200905
  16.9670525   1.9209642  15.7802086  16.4576263   2.3572199  14.4233189
   4.4973612  31.6254139  24.1584015   4.1781955  32.4827499  23.8767262
   5.1902461  31.4107533  23.5338516  85.8386078  43.5193634  41.3736038
  85.5660477  44.1621704  40.7188148  86.7867889  43.6323929  41.4400063
   4.7656093  24.9586830  68.8927383   4.4197955  25.5084324  69.5958862
   4.0491276  24.3597488  68.6825867  18.5127602  70.1790543  81.2539902
  19.1102104  70.7792130  81.7001801  18.8938770  69.3124695  81.3954773
   3.6338913  26.8353863  82.1313248   3.3754730  26.5207920  81.2650223
   4.5578012  27.0668869  82.0363007   8.2136145  31.6605186  17.9387627
   8.2297840  31.9696274  18.8445339   8.4316025  32.4334946  17.4179707
  11.7240782  47.9215508  32.6022186  11.0366898  48.5163765  32.9020729
  11.2526293  47.1514587  32.2845345  41.3378410  24.5181446  23.2103825
  41.1253929  25.2098389  22.5837593  41.7853622  24.9714222  23.9248714
  81.0357742  57.3325272  81.1668243  80.1205368  57.0858002  81.0337906
  81.1792984  57.2225075  82.1067886   6.3994036  67.5898285  18.5806332
   7.1405182  68.1710358  18.4097977   6.7881336  66.7171326  18.6399956
   1.1734804  11.0263004  28.4415417   1.2517052  11.0528336  27.4879131
   1.2521433  10.0983000  28.6625824  61.5193405  53.3364716  43.6890221
  61.2230110  52.4341469  43.8083115  61.9651489  53.5524254  44.5080795
  68.6073456  17.6046333  11.4009609  67.6686554  17.7039661  11.2421331
  68.6672440  17.3216457  12.3134098  43.0561905  64.8576508  79.7971573
  43.7544212  64.6961975  80.4317017  43.4402351  64.6207504  78.9529877
   2.9021466  31.8091335   1.9018047   2.2640617  31.4961643   2.5429988
   3.4240470  31.0361977   1.6863486  20.5343132  59.3026733  77.8302307
  19.9259949  59.7814026  77.2672043  20.8645153  59.9616280  78.4409561
  83.5990982   6.9923720  45.1765442  84.4925842   7.3158498  45.2917557
  83.6524200   6.0606165  45.3891945  59.7084160  36.2500420  82.4123611
  59.6965294  35.5738640  81.7349625  60.5613899  36.1505241  82.8351669
  83.9317627  64.8323593  88.4501419  83.0539322  64.9900208  88.7976990
  84.5197144  65.2108765  89.1038055  78.9814301  20.2684307  41.9924965
  79.9084320  20.2807331  41.7542915  78.8821259  20.9963436  42.6061058
  52.0993500   6.0525074  63.1864815  52.8914566   5.7180185  62.7658615
  52.3277054   6.1121645  64.1141281  15.5744944  38.4352493  62.4242973
  14.9271259  38.8507156  61.8546181  15.4251738  37.4964867  62.3117828
  41.5347633  22.1253166  81.9657822  40.8674164  21.7942505  82.5668411
  42.1713676  21.4136086  81.8991547  71.7449341  50.9432907  83.5862427
  71.3879089  51.7370796  83.1879044  71.0721970  50.2783356  83.4396439
  55.1418533  64.3126373  31.5778427  56.0973244  64.3253021  31.6339474
  54.8497429  64.2275467  32.4854012  69.5711517   0.6763959  35.1715279
  70.0183640   0.2008649  34.4714470  69.8956757   1.5737944  35.0967484
  65.2047272  63.3881378   5.1016316  65.5843201  64.2011261   5.4350724
  65.9256668  62.9582100   4.6415877  31.2162399   3.7997303   9.8474760
  31.4888573   4.1757751   9.0105162  31.3967075   2.8638067   9.7596703
  60.3831711  66.9876404  21.1102848  60.3145866  66.0398865  20.9949417
  59.7353592  67.3499680  20.5058975  63.6588173  48.2871475  75.3778305
  63.1476364  48.5171051  74.6019135  64.4160538  48.8718910  75.3477249
  59.3483047   8.7157764  65.0244904  59.6834831   8.3545895  64.2038651
  59.3269691   7.9695468  65.6235886  85.8532486  51.3167114  25.5002518
  85.8935318  51.7369232  24.6411648  85.3550034  51.9279900  26.0427589
  17.6053333  54.5559845  61.9501534  17.7412128  53.9069443  61.2598572
  18.2576008  54.3377533  62.6158524  72.9219818  70.4161301  75.0753174
  73.3877106  70.9286346  75.7361298  73.6141586  69.9764404  74.5815582
  42.9786987  10.0515900  80.7269974  43.2048798  10.6086149  81.4718475
  42.7692413   9.2030745  81.1173553   8.8323517  46.9642677  69.6585617
   8.8443747  47.3822212  68.7975159   9.4490538  47.4761543  70.1819000
  82.7250214  46.6136856  83.8075409  83.3488922  45.9628487  83.4859314
  82.4339828  47.0755081  83.0212555  82.1048813  27.0541534  23.7709236
  82.8509903  27.6434040  23.8819714  81.5075531  27.2875023  24.4815445
  54.2713737  48.1868134  58.6424065  54.5607414  47.8165779  57.8084831
  53.5088158  48.7193565  58.4162827  34.2431755  54.9317894   5.0133028
  33.5237122  54.3163910   4.8722792  33.9076118  55.7696762   4.6945968
  47.9200058  23.5821342  84.3293457  47.6710052  22.9189110  83.6856308
  47.0962448  24.0095787  84.5637436  22.5446396  56.8524590  31.5697994
  23.1463871  57.5967903  31.5598316  22.1370468  56.8623695  30.7037735
  29.3686790  39.0673904  75.6038513  28.4739170  38.7294922  75.5656738
  29.4012718  39.7367935  74.9204330  48.4762497   2.2360501  20.5566349
  48.6508446   3.0557063  21.0191422  49.1467133   1.6327087  20.8770885
  50.2648582  10.5793514  50.8284073  50.7849579   9.8131046  50.5863495
  49.4368019  10.4637175  50.3623810  81.9372482  56.0980606  52.2407379
  82.4708328  56.0486412  51.4475899  82.5370636  55.8611526  52.9480743
  38.6064873  68.2328796  83.3318634  37.7695007  68.0936279  82.8888092
  39.2599564  67.8885651  82.7230453  81.9725494   9.2369652  69.1369781
  82.6238251   9.8277969  68.7588425  81.1320267   9.5846624  68.8388824
  79.2823410  34.6576691   2.5247738  79.4696503  35.5566292   2.2545569
  78.6820068  34.7500954   3.2645602  77.7287445   2.2986624  70.9798813
  77.4861526   2.8009398  70.2019958  77.1135254   1.5654763  70.9930496
   8.8369999  29.6080456  63.0124512   8.0234747  29.4127274  62.5474129
   9.4798317  29.7558727  62.3188019  14.6201620  59.3558998  87.4490433
  15.3208628  59.6047134  88.0518188  14.7734413  58.4274559  87.2737579
  30.3309498  10.5354061  78.0111008  29.7047176  10.5921831  78.7327957
  30.9520836   9.8607645  78.2854767  79.8895721  59.7483215  65.0085526
  79.8658295  60.1752548  65.8649368  79.5320206  58.8745728  65.1665192
  14.0678759  49.3680038  82.7462158  13.6524038  48.5966949  82.3606033
  14.1831989  49.9704895  82.0114136  62.4040489  43.3492966  30.1111889
  62.1375694  44.0108871  30.7495632  62.2914314  42.5160408  30.5686073
  50.1285477  43.3250656  33.5741463  50.3656921  43.3653107  34.5006294
  50.0511551  44.2408867  33.3067207  74.6818314  53.2494011  57.4528008
  75.1068802  54.0647507  57.1867790  74.9301071  53.1382217  58.3705330
  71.5317383  65.4051819  20.6955681  71.6305618  66.0430984  19.9887924
  71.5985641  65.9237671  21.4973412   0.2735258  44.9685287  48.4781418
  -0.4979516  44.4343224  48.6670303   1.0070469  44.4613266  48.8258858
  42.4812126  57.7845154  28.8099232  43.0601311  57.5005798  29.5173626
  42.2257347  58.6746178  29.0521641  34.0967293  28.4489441  19.7697830
  34.6344948  29.2354851  19.6781769  34.7172623  27.7613354  20.0113659
  29.4139576  52.4918747  58.8594704  29.4079628  51.9825363  58.0490570
  28.5546322  52.3315811  59.2494621  81.5846329  60.0370636  25.3156948
  81.1822891  59.1782684  25.4454231  81.2892227  60.3112679  24.4474926
  32.8210106  44.4571800  39.8860321  33.2592621  44.4325371  39.0354080
  33.1939201  43.7197037  40.3690414  32.1857529  45.8386879  56.7959747
  32.8062744  46.4208527  56.3574944  32.6717148  45.4896507  57.5431328
  15.8354950  13.6733723  34.5276985  15.9540720  13.1531286  33.7330170
  15.2469826  13.1495571  35.0713005  76.4142380  43.0363655  55.9688988
  77.2090912  43.0845184  55.4377403  75.7106171  43.2870560  55.3703194
  59.8748703  54.6059456   9.3755980  60.2971535  54.0052376   8.7615433
  60.0634003  54.2377472  10.2388000  29.6640892  31.6486740  67.9159775
  28.8851757  31.2449970  67.5331345  30.3852615  31.0791321  67.6480865
  56.6930351   2.5495319  72.2738876  57.1105995   2.0264347  71.5895996
  55.7633324   2.3313725  72.2083740  57.8367882   2.3474572  79.3700638
  56.9439468   2.2321181  79.0448608  57.8420067   1.9036262  80.2181320
  64.4277191  49.7808952  59.6198158  65.2670822  49.5869598  60.0370483
  63.9493179  50.2938271  60.2711716  66.0462112  49.2838745  36.5738983
  66.5860367  50.0493469  36.3767395  65.1459808  49.5937843  36.4750671
   1.8874227  40.0302048  37.8640938   1.8290232  39.1029625  38.0944061
   1.0942360  40.2012939  37.3563385  68.6603699  39.5884705  20.8292656
  68.2731171  39.4127312  21.6868114  69.2415237  38.8443451  20.6718636
  79.1390305  49.6109810   4.7002859  78.5706558  49.3593483   5.4282012
  79.4540787  48.7802353   4.3441491  59.8353195  54.4167709  26.7982998
  59.8897285  53.4954338  26.5445061  59.2555542  54.4215660  27.5599308
  15.3352022  36.2935791  77.4201965  15.9612408  36.7615700  77.9727249
  15.6380243  36.4538460  76.5264130  37.0202408  41.5415802  59.5823135
  37.2732887  42.4466438  59.7641411  37.8505554  41.0716743  59.5049019
  10.0568504  43.3640747  74.2391663  10.1870165  43.5828400  75.1618958
   9.9265842  42.4157944  74.2339020  22.1233006  43.8889542   8.8675528
  22.0753956  44.6899223   9.3894625  22.4861584  43.2350883   9.4650669
  44.5068512  29.9855843  25.6293774  44.1848564  30.8039875  25.2515335
  43.7156601  29.4796791  25.8146000  12.2147951  48.5029564  19.5596600
  12.2282248  47.9338455  20.3291836  11.9127722  47.9375114  18.8488235
  61.8586998  22.5389786  41.2426682  61.9214706  22.6505260  40.2940636
  62.7503891  22.3266029  41.5183830  22.9611320  48.0776024  40.2019081
  22.8086548  49.0201721  40.1344986  22.0866604  47.6901932  40.1639023
  64.6457672  59.2690353  26.8517685  64.9122086  58.9107170  26.0051003
  63.8030472  59.6890488  26.6795921  44.2686539   5.8613253  66.8216400
  44.2531319   4.9467554  66.5395889  43.3996162   6.0120683  67.1935043
  29.0775127  68.8591003  16.9920387  28.3124523  69.2109222  16.5369167
  29.8241081  69.2814026  16.5671959  38.4258919   6.5289278   2.7108276
  39.1953430   6.4594626   2.1457164  37.6907806   6.6193871   2.1044769
  48.8567009  11.9592876  34.6258965  48.9805031  11.0111027  34.6689110
  49.1958160  12.2063227  33.7655411  81.7604294  71.6169968  29.0023270
  81.1043472  71.4037094  28.3387794  81.6844864  70.9149780  29.6485729
  40.2878342  70.3676224  72.5289993  39.4287682  70.1972275  72.1427383
  40.8958321  70.3202744  71.7912140  22.6540718  67.3067551  74.7026978
  23.3048897  66.8315048  75.2192230  22.9652328  68.2119675  74.6996689
  60.8483429  14.0972786  15.3374939  61.5894508  13.8043032  14.8072519
  60.5068054  14.8601418  14.8709936  19.1398048  61.6466103  40.7677803
  19.6704731  62.2137451  40.2083321  19.7402840  61.3587952  41.4553986
  85.4966888  24.2759666  22.6819916  84.5546494  24.1421299  22.5777206
  85.5756989  24.8251209  23.4620037  85.4558945  56.5422325  66.2786255
  84.8576813  56.7883682  65.5730820  86.3236542  56.7767296  65.9496231
  28.7118740  48.0487137  54.6899796  28.4971600  48.7832756  54.1150513
  29.5509186  48.2893410  55.0828323  49.8508720   5.8163228  84.1879272
  50.4308167   5.8490448  83.4271240  50.4304543   5.6140733  84.9223709
  36.7773819  49.4203873  41.7411461  36.0911407  49.6690674  42.3603897
  37.0775146  50.2502098  41.3702774   0.4208998  66.1661911   3.7494721
   0.8709333  66.6810837   3.0797021   0.0234867  66.8185806   4.3262630
  47.0378075  44.4672737  86.4534836  47.5070496  43.6974983  86.7751770
  46.3207970  44.5881767  87.0759811  70.8362961  63.5351639  89.1651688
  70.8613663  64.4631958  88.9320145  71.6928101  63.1987686  88.9016266
  12.5973616   4.7050076  14.8481350  13.4204054   5.1882672  14.9208746
  12.4973145   4.2732892  15.6965694  21.7846508  34.1968460   0.7302699
  21.2920704  34.5309563   1.4799135  21.9340172  34.9656487   0.1799390
  20.2660599   0.7559836  14.9413881  19.8443165   0.3947115  15.7210331
  21.1924782   0.5403517  15.0485506  72.8210831  43.5937195  46.2083054
  71.9838409  43.3673553  45.8033104  73.1628342  42.7608185  46.5334358
  35.0749969  53.3851357  49.8088684  35.4362030  53.1355286  48.9583054
  35.0508499  52.5685921  50.3077736  11.6947069  67.9419556  43.3634567
  11.6731071  66.9978638  43.5198555  12.6067495  68.1267929  43.1393051
  69.8781128  44.4482918  75.4503937  70.7921143  44.5364685  75.7206955
  69.3942490  44.3499908  76.2704163  45.3482323  47.1963272  67.3053284
  45.8179474  46.7140770  66.6248627  45.1178818  48.0289612  66.8931427
  11.0951385  67.6427231  73.9652252  11.3726130  68.0093384  73.1256866
  11.3367739  68.3086472  74.6089630  43.2814102  18.4933758  84.8154678
  43.2445183  18.4576836  85.7712936  43.3674316  17.5792809  84.5447998
  40.1553154  63.5104866  84.3330460  39.7681618  63.1529655  83.5339661
  39.4675217  63.4218674  84.9928360  62.7487793  41.6240349  83.5572968
  62.4890823  40.7271271  83.7678757  61.9302559  42.0617638  83.3235245
  36.7209358  62.0586777  22.4564419  37.5430298  62.0483971  22.9466324
  36.0500221  61.8605347  23.1097736  64.6210709  70.2098007  27.0070381
  63.7011108  70.2496796  26.7456703  64.6835785  69.4196167  27.5436306
  79.4811859  27.3873444  28.5709000  78.6581039  27.7626209  28.8838387
  80.0592117  27.4082050  29.3335819  34.5568581  59.8643188  31.6482430
  33.9739494  59.8716393  30.8890381  34.0705109  60.3306427  32.3281250
  31.8136215   4.5370035  66.0877228  30.9139538   4.2853403  66.2962723
  31.9970512   4.1021442  65.2549667  14.5061865  68.2006454  26.2107315
  15.4116430  68.4157562  26.4345703  14.3664894  68.6109467  25.3572865
  39.7624092  50.1356087  64.7733231  39.0689964  50.6375313  65.2016754
  40.4349976  50.7845192  64.5665207  15.2686710  15.9534330   3.2392550
  15.6726665  16.7964306   3.4451051  14.3280621  16.1307716   3.2453022
  10.9796600   7.7574048  19.0711384  11.5150881   8.5471840  19.1472759
  10.9800549   7.5570860  18.1351337  21.3568420  17.0691776   8.6167669
  20.5412407  17.5313911   8.8101120  21.1100025  16.4081764   7.9699450
  69.9046249  60.1138382  83.1041641  70.1507339  59.7180328  83.9402237
  70.7141342  60.1174850  82.5933762  16.7893734  63.8057213  20.3005276
  17.6000233  63.3482895  20.5237637  16.3844872  63.2602768  19.6261482
  65.1466522   2.8480196  83.6194305  65.2894440   1.9059144  83.7104263
  65.4965515   3.0608368  82.7542648  69.8849258  14.2305708  55.6983910
  69.4905090  13.8933735  56.5027313  69.4450912  13.7507849  54.9965477
  70.1725082  42.5454063  25.6304379  69.5033722  41.9937592  26.0356293
  70.7487564  41.9295502  25.1777859  55.8123627  55.1816483  63.3113289
  55.8359680  56.0864029  63.6229248  56.2056236  54.6736221  64.0208969
  50.8055878  48.8888016  81.8927155  50.3231354  48.8535309  82.7186890
  51.6750069  49.2064362  82.1365433  37.3640594   4.8511376  89.1609192
  37.1475906   5.1176801  88.2674255  36.6350250   5.1740999  89.6904831
  75.9863281  16.5954475  71.7730484  76.5739899  17.1650620  72.2694626
  76.0701370  15.7397900  72.1938324  53.1667442  58.5457573  21.0156002
  53.5471077  57.7307434  21.3431778  52.8213577  58.9794807  21.7958755
   0.2809635   4.1073241  82.9831085   0.9184974   4.0847001  82.2694778
   0.3680984   4.9852757  83.3543777  28.6657352  60.1261597  18.1755428
  28.4765549  59.2146263  18.3981361  27.9067230  60.4109077  17.6665745
  12.8492813  22.6303139  17.4582329  12.3171148  21.8359032  17.5023270
  13.2982674  22.5713253  16.6149273  10.8105850  69.6475754  83.9845657
  11.4176054  70.1781845  83.4686050  10.4681101  70.2496796  84.6451874
   1.4799708  19.4963760  36.9094772   2.0473602  19.9337025  37.5443344
   1.9777575  19.5129395  36.0920639  77.8471527  46.6313591  40.8605347
  78.7671738  46.3908348  40.7512589  77.8703995  47.5467262  41.1394463
  79.6890793  29.9705906  31.6946335  80.3765259  29.3318558  31.5057735
  79.4363785  30.3112659  30.8365459  32.2891960  51.2429581  77.5360870
  31.7536850  52.0056725  77.3176270  31.9502449  50.9463043  78.3806839
   5.0290098  62.9578934  18.5329762   4.3720112  63.1901970  17.8767605
   5.3798227  62.1189384  18.2341194  36.4822578  50.8693542  29.0670490
  35.6761932  50.4363289  28.7860165  37.1589813  50.5123901  28.4918537
  40.5220108  22.3165894  13.3985233  40.2995148  23.2192345  13.6264658
  41.4312782  22.3614063  13.1027966  70.8241272  56.9401054  14.0958586
  71.0791779  56.3155861  13.4167767  71.6271133  57.0938416  14.5936670
  55.1111031  31.7868271   0.0517965  55.5434570  31.6554890   0.8956278
  54.4796867  31.0699081  -0.0079576  31.3260765  56.1982422  44.9883003
  30.7823143  55.4330292  45.1753845  30.7000580  56.9095345  44.8526649
  19.1408558  54.1454239  27.9204788  19.5351696  54.0784111  28.7901096
  19.2357101  53.2694969  27.5463390  86.5319901  34.8690910  52.6578636
  86.4031372  33.9632607  52.9391098  86.7497253  34.8025513  51.7281342
  77.4202194  26.4078712  48.6987839  76.6262970  26.4461365  49.2321243
  77.1713486  26.8154354  47.8692169  47.7236214  21.2982388  82.8440170
  48.3254013  20.7368908  82.3551636  47.3967628  20.7410908  83.5503998
  21.8895054  52.8644333  68.1844025  21.7250404  52.3648872  68.9841766
  21.0612335  53.3096123  68.0054855   8.0361242  60.8982430  62.9462929
   7.3214679  61.5293961  63.0308113   8.0260229  60.4130783  63.7713661
  54.5214005  27.5215149  15.5916100  54.2584839  27.0223198  14.8183622
  55.4380074  27.7460632  15.4314785  86.3348846  18.7448254  48.4371567
  86.3387985  19.3352394  47.6837463  86.0346069  19.2882080  49.1657181
   1.4515367  62.1852036  67.8137817   1.0273829  62.7237282  67.1457138
   0.7652522  62.0214043  68.4606323  42.0230408   6.1461029  68.7697601
  42.0280037   6.9564042  69.2792892  41.4578819   5.5543408  69.2663956
  64.0761337   7.5633864   8.5090046  64.5418091   6.7318559   8.4199352
  63.5661049   7.6398449   7.7026181  73.1175232  17.4622097  51.1223297
  72.4826660  17.1152802  51.7490921  72.5885162  17.9481621  50.4896927
   8.2018394  60.1366158  21.7940826   7.5248461  59.6394882  21.3349800
   8.9050980  60.2331085  21.1519413  15.3206520  30.0137520   8.1098690
  14.5108347  30.4970226   7.9459276  15.9589968  30.6879826   8.3425970
  66.7576065  57.5297241  87.0866928  67.2656097  57.6184807  87.8930893
  65.9425430  57.9991913  87.2641830  76.1521988  21.6054897  33.1684341
  76.0422592  20.7448730  32.7641068  77.0906296  21.7825413  33.1034279
  86.0581589  13.6208229  86.7718887  85.4350357  13.1089220  86.2562256
  86.5734177  12.9663754  87.2435150  19.9207802  42.5076294  28.3893337
  18.9944954  42.6709404  28.5669785  20.3649139  43.3028870  28.6835098
  32.5948906  19.9266644  75.2004623  32.9907036  20.3997498  75.9324112
  32.8762932  19.0197697  75.3212280  70.8626404   8.5597239  25.2308254
  70.2418823   8.5599127  25.9594498  70.7174377   9.3980598  24.7922573
   8.8513117  41.4099197  15.3281660   8.9535389  41.2178154  16.2603016
   7.9764628  41.0874138  15.1116924  82.6849060  64.8190689  72.5424423
  82.9845963  65.5945129  72.0679855  83.1995087  64.1001205  72.1756592
  29.5363216  22.5542068   7.4013433  28.8170185  22.5162239   6.7709537
  29.2173061  23.1324997   8.0941916  43.1459007  27.8975124  88.0049973
  43.9364014  27.3607025  87.9486084  43.2080383  28.3264351  88.8584595
  66.8580246  26.8188095  42.9871750  66.8888931  27.7644749  43.1320839
  67.7329254  26.5114574  43.2244911  27.9121704   0.7044460  15.5187778
  27.3629112   0.9984639  16.2454834  27.5110626  -0.1160110  15.2320814
  47.6105690  61.8623466  60.7145042  47.4760742  61.6136971  61.6290092
  46.7690163  62.2257080  60.4388428  28.7907505  33.0199585  13.2081223
  28.3971138  33.8125038  13.5730238  29.5513573  32.8522797  13.7645330
  59.1720161  35.7608528  42.4897690  59.5429688  34.9689255  42.1005669
  59.4563103  35.7345047  43.4033928  61.7866859  34.6929131  28.9313774
  62.4805984  34.0337791  28.9473820  61.6932602  34.9199181  28.0061893
  84.4811630  14.0876427  12.4650278  84.4104538  13.4999084  13.2172251
  84.0741501  14.9026690  12.7588043  21.1964283  62.0119324  86.2745056
  21.2226028  62.1351166  85.3256302  20.7387829  61.1799736  86.3954926
  54.2148361  34.6921349  59.6409378  53.7739220  33.9829826  60.1088333
  54.6573029  34.2587776  58.9111023  47.0661926  11.0349646  63.8841248
  46.1638985  11.2436543  64.1260910  47.0736313  11.0772467  62.9278908
   7.0588150  33.1444130   4.1855974   6.4415078  33.5701523   4.7805004
   7.1241622  32.2464638   4.5106411  76.7704163  42.5087624  81.8897400
  77.5737228  42.7280807  82.3617783  77.0667496  41.9947853  81.1385727
  56.2582779   2.9052949  65.4192276  55.4430695   3.1088698  64.9607239
  56.4430618   3.6880500  65.9382477  73.0015411  23.7549610  25.8037720
  73.4969711  23.6626854  26.6175728  73.6703415  23.8116856  25.1213341
   0.7676092  46.3142052  87.9225845   0.7716983  45.9713974  87.0288849
  -0.1353537  46.5974464  88.0663376  12.0575275  11.7360020  65.3943939
  12.3803387  12.5624771  65.7535095  11.2496071  11.5640163  65.8780441
  13.4579630  68.5059052  10.5241661  13.0785189  69.2669525  10.9635534
  14.3984060  68.5798721  10.6864233  27.3104782  36.7286491  19.5632629
  26.3564816  36.7771225  19.5018425  27.6234989  37.4192238  18.9790020
  81.1909561  66.9873276   8.5076942  81.4379501  67.8995132   8.6598034
  80.6946640  66.7402573   9.2880030  26.7195721  12.3427362  85.4505768
  26.0793896  11.8490515  84.9380569  26.6633129  11.9676819  86.3294449
  81.8214417  56.3611107  77.8375854  81.3967743  56.6650276  78.6397858
  82.6332779  56.8660011  77.7902908  22.5786152  50.8788872  54.2758560
  21.6757755  50.5684662  54.3447762  22.5146656  51.8276787  54.3851013
  22.0408020  44.7206306  17.9771023  21.9559231  45.6104927  17.6347942
  21.2586784  44.5951042  18.5144653  67.0813446  21.1555271  14.3995695
  67.5536728  21.7293377  15.0027924  67.4720001  21.3337555  13.5440845
  52.6540527  69.1261902   5.0235391  51.9122276  69.7036438   5.2037325
  53.0944099  69.0313187   5.8681216  18.6215496  37.1173019  16.0516682
  18.1033020  37.9199409  16.1101723  18.1002674  36.5354004  15.4986000
  67.7646713   0.2759908  67.7325439  68.3323517   0.4811886  68.4754257
  67.0163879  -0.1772769  68.1209412  36.1148109  52.6930275  15.5001240
  36.2209549  52.5584068  14.5584011  35.1932144  52.4961510  15.6678400
  11.7835464  30.6273651   7.7036943  10.8293209  30.6014233   7.6328917
  11.9864330  31.5478992   7.8700852  71.8909225  65.3491898  11.1383429
  71.8597565  65.7905350  11.9871540  72.7809601  65.5024872  10.8212214
  28.8287601  45.2640457  63.1712189  28.6303482  44.3288918  63.2196808
  27.9737606  45.6862984  63.0880814  57.9075813  44.5743904  20.1242428
  57.6074715  43.7129211  19.8343449  58.5975647  44.3860703  20.7603951
  85.7388153  30.6104965  26.3324490  86.2604523  30.4598808  27.1207600
  86.3541565  30.4839363  25.6102543  59.8830185  10.9748764  73.8813858
  59.7202148  10.5333424  74.7149200  59.0349884  11.3454981  73.6370239
  44.6626930  22.8946571   9.0640144  44.0335922  22.6473866   8.3862829
  44.4880943  23.8217316   9.2261200  15.5241537  27.8670330  79.1668243
  15.8459272  27.6328640  78.2962723  15.8126078  27.1487942  79.7299881
  60.6742134  14.4213886  54.4889717  60.6411514  14.5368462  55.4386063
  60.2481003  15.2032089  54.1376648  84.8858948  19.6438618  40.1690483
  84.7467499  20.2273922  39.4231491  84.3533630  18.8730755  39.9727516
  65.8074417  58.8733826  13.6664658  66.6936111  59.1926804  13.4962378
  65.5673676  58.3977051  12.8712749  75.2992172  35.4595146  54.2519188
  75.1204376  36.2545586  54.7540894  74.5661240  34.8783379  54.4545250
  46.1860237   7.6889062  55.4714508  46.2939034   8.0562410  54.5941467
  45.3794594   7.1761470  55.4188995   5.6348953  20.7373753  27.5378513
   5.1862464  19.8922863  27.5656528   6.4508719  20.5912113  28.0164433
  62.7756271  34.0832748  16.2850018  62.9045753  33.2256508  16.6900768
  62.4707832  34.6423225  16.9996815  64.7781143  35.8395157  63.7785492
  65.5185471  36.2585449  63.3399162  64.4811630  35.1709328  63.1612549
  77.6774521  70.6184006  64.8377304  77.3372650  69.7597885  65.0893097
  77.8985214  70.5262756  63.9109764  61.9736938  68.5891266  87.1185379
  62.7753983  69.0228424  87.4107590  61.2683182  69.0816498  87.5381851
  84.2961578  58.5102348  55.3617554  84.8988953  59.0431213  55.8803864
  84.8362808  58.1571884  54.6547508  55.5249443  26.3493786  31.8168411
  55.2552299  26.8547592  32.5837021  55.2045784  25.4639149  31.9887486
  23.0099220   0.5979625  27.4321384  23.9619846   0.5503813  27.5189857
  22.7051582  -0.2826841  27.6508007  40.9964638  54.7564583  32.5299988
  41.4433174  53.9227829  32.3832245  40.4724579  54.8896523  31.7401237
  71.5921707  11.3752756  45.6567421  71.7760391  12.3034925  45.8010902
  71.3259277  11.0474405  46.5157356  11.2376442  12.0327215  78.9281464
  11.8484011  12.6512003  79.3290100  10.9958420  11.4397192  79.6395569
   0.2497500  36.3146782  67.2443237   0.2045122  37.2228661  66.9453583
   0.8605571  36.3351784  67.9810257  72.5727234  16.9241314  14.2289314
  71.8133774  16.5955582  13.7476254  72.3135757  17.7995625  14.5164938
  84.2089386  14.4343319   9.0401545  84.4119720  13.6748724   9.5862589
  84.6034317  15.1739635   9.5022736  21.7019119   3.9311166   4.3229771
  21.4803162   3.0008724   4.2808647  22.6217098   3.9464879   4.5874896
  43.7518883  36.9681396  66.2714844  44.1644325  36.1273651  66.0736465
  44.4724121  37.5980797  66.2556534  27.4586792  68.3973694  48.1920662
  27.7486839  69.2774734  47.9521866  27.5534859  67.8865204  47.3881531
  28.0541286  20.2119274  83.8675308  27.6447735  21.0512123  83.6571426
  28.6873074  20.0711441  83.1636124  63.6963425  58.8334694  63.2581024
  63.0635033  59.5283241  63.0766449  63.9042397  58.9354172  64.1868744
  77.6520386  59.3916435  51.0200768  78.3102722  59.1067123  51.6539345
  77.3296967  60.2234764  51.3670387  16.1563225  11.9744625  75.4363937
  16.5340137  11.1494732  75.7413101  15.2118387  11.8189774  75.4337311
  66.4502258  54.5525055  43.0520020  65.9479065  54.6425972  42.2421913
  67.1833496  53.9836731  42.8170700  47.3274460   9.9871120  79.9538422
  47.0477600   9.1828156  80.3910141  47.9542351  10.3832312  80.5592041
  11.5612020  13.4853220  14.5353918  11.2646036  13.6279459  13.6365480
  11.0313349  14.0851250  15.0604715  70.6911621  28.5186901  72.1919174
  70.0299377  27.9074249  72.5165329  70.5901260  28.4976711  71.2402954
  66.9828415  40.9195366  84.8254013  67.7035217  41.2848701  84.3121872
  66.3523407  41.6361923  84.8968964  65.3638458  69.3316040  82.4330292
  64.4787750  69.0385437  82.2162247  65.8781509  68.5256958  82.4802628
  75.2017975   3.7139335  11.4238310  75.8277893   3.9780533  10.7495842
  75.6876221   3.7907376  12.2449942  67.4135284  53.1936607  16.7146416
  66.5197525  53.3663826  17.0105591  67.9051743  53.9745522  16.9690552
  64.8281021  29.3664017  47.9388199  65.3734436  28.8944035  47.3094864
  65.4411163  29.6642113  48.6109505  72.1754150  52.1354637  58.2834663
  73.0820236  52.4365234  58.2230301  71.7019119  52.6722755  57.6479645
  54.4960403  56.0437241  22.8535290  54.1189270  55.8518333  23.7121315
  55.3006897  55.5261192  22.8242512  23.3772717  61.8656883  87.8402023
  22.5257797  62.0168114  87.4298935  23.9614296  62.4961548  87.4188919
  73.8446426  38.5112343  15.4434614  73.2615051  37.7532921  15.4847918
  74.4824905  38.3610153  16.1411819  12.5796423  69.1669006  51.9354134
  13.5009518  69.3784943  51.7849197  12.5965490  68.3035583  52.3484383
  50.5415611  33.8692284  79.0224304  50.5661850  34.8214111  78.9276886
  50.3158340  33.5474472  78.1496582  66.1717377  10.3756723  56.6548462
  66.8514557  10.5958595  56.0178757  65.8544540  11.2223959  56.9688873
  77.2462387  64.9194717  69.6514359  77.2659760  64.5383606  68.7735977
  77.9245377  64.4462433  70.1333008  81.4033279  47.3293152  19.7675533
  82.3081970  47.1311989  19.5263119  80.9138947  46.5422287  19.5284424
  73.3737717   8.5187073  49.0056458  73.3928604   9.3968124  49.3861694
  74.2003708   8.4464626  48.5284157  58.1207771  24.9327698  61.8959045
  57.4333801  25.2421055  62.4858437  58.7637482  25.6417809  61.8847084
  10.5222902  29.5057468  67.4354706   9.6336203  29.8581963  67.4831772
  10.5166245  28.9460812  66.6589584  57.8527870  10.2253370  11.9959106
  58.0085831  10.8119278  12.7360935  56.9132729  10.0448360  12.0269747
  70.6466217  56.8242607  75.6107254  69.9425888  57.2921562  76.0597839
  71.4376068  57.3189507  75.8248596  31.8010330   3.6698468  18.6181030
  31.6662960   4.0783467  19.4732094  32.2010078   4.3567929  18.0848522
   7.2555451  54.3070984  46.2831459   7.2639775  55.1931801  45.9211807
   6.7019887  53.8082161  45.6823769  65.6165848  10.0344677   7.8376098
  65.6716156  10.1048899   6.8845911  65.1884003   9.1922712   7.9912157
  28.2083626  18.1967621   6.2710252  27.4078751  17.7040997   6.4519591
  28.0052261  18.7033958   5.4847121  41.3977776  18.1883297  78.1680984
  41.7504425  18.9731236  78.5875702  42.1138840  17.5542889  78.2057266
  86.2997971  53.9104538   5.4039388  85.7744904  54.6778831   5.6305089
  85.9928055  53.6587181   4.5329537  65.3674622  24.8580093   9.0237055
  66.0291367  24.9308586   9.7115335  65.7815704  25.2428322   8.2512712
  35.9913330  57.6529655   5.2169762  36.3641968  58.5305977   5.3004527
  35.2824516  57.7533417   4.5816455  59.0465355   4.8883166  80.1072464
  59.7775116   4.9560385  79.4929810  58.2721519   5.0870104  79.5808563
  10.1804581  45.9591751  47.1106071  10.5880432  46.5537605  46.4808655
  10.4129438  46.3202591  47.9660606  71.2733002   2.6554301  50.9335899
  70.4410248   2.4480894  51.3585243  71.3955612   1.9556171  50.2920723
  11.7867174  59.7357330  64.7637939  12.7235088  59.7413139  64.5672607
  11.3995152  60.3074799  64.1009064  22.8461475  51.5527229  23.6426239
  22.7480469  51.7073288  22.7031002  22.5196533  50.6626091  23.7742577
  15.3995371  53.2480812  14.5506477  14.6550360  53.8471107  14.4948769
  15.1064281  52.4586945  14.0954666   8.5841990  42.4587173  68.5346985
   7.9430022  42.9131012  67.9882278   8.1388674  41.6576157  68.8106461
  84.5885315  25.3471508  18.5219555  85.1706467  24.6713638  18.8693581
  83.7100220  25.0540409  18.7639046  22.9722137  66.8844299   8.7273178
  22.5827827  67.5920410   8.2136383  23.6992531  66.5703201   8.1897488
  22.1934872  45.7339478  23.7785854  22.6136246  46.3855133  23.2171803
  21.7954922  45.1130104  23.1684456  26.8798294  45.9976959   1.5991448
  27.0372162  45.1953125   2.0967793  26.3206387  45.7230377   0.8724394
  64.0974655  54.7965126  83.4724045  63.9032249  54.0816841  82.8661652
  64.5479660  55.4492912  82.9365311   2.8797522  69.7947464   0.7509874
   3.4425421  70.5681076   0.7884749   2.1733446  70.0412979   0.1539700
  42.5753632  27.5313778  73.9224472  42.8507195  27.0020657  73.1739502
  42.9947052  28.3803940  73.7826080  31.6890450  40.4188728  69.4868622
  32.3059540  41.0030365  69.9277802  31.1051769  40.1176033  70.1829758
  41.1717224  28.8899059  82.0216751  41.0747910  28.5994644  81.1147690
  40.3554306  28.6259956  82.4462357  60.0269432  44.7128143  22.0250931
  60.8846970  44.2879906  22.0294380  60.0933914  45.3934937  22.6947899
  77.8208160   7.6956825  54.3270607  78.1387024   7.6524725  53.4252205
  76.9682236   8.1256104  54.2601509  35.8239937  65.5863037  48.4134178
  36.4760323  66.2808838  48.3204536  35.4171753  65.7519684  49.2638817
  52.2277184  19.8686180  59.0409203  51.4513397  20.4259624  58.9876671
  52.7793350  20.1561604  58.3134117  78.0503387  41.6128387  64.7802429
  77.8450165  40.9446754  65.4341812  77.2243729  41.7582054  64.3188553
  28.3444672  61.6613693  53.7104721  28.2389565  60.7132492  53.7890320
  29.1995888  61.7736092  53.2952652  11.7456264  65.8581238  80.0139160
  11.0249071  65.3647842  79.6222382  11.4060335  66.1462631  80.8611984
  11.2873621  32.9353447  86.2659073  10.9109526  33.4576721  85.5575790
  12.1917458  33.2412949  86.3345871  61.2757034  41.1815491  13.0849161
  61.2233162  41.0440750  14.0307426  60.8733978  40.3997116  12.7066059
  15.8198376  71.5509796  50.8520660  16.3679733  72.1789398  50.3814926
  16.4379177  71.0322037  51.3669319  78.8160782  66.2221222  14.1725311
  77.8732834  66.3308716  14.2972612  78.9113007  65.3339310  13.8286161
  68.1622086   9.3483095  40.6929245  67.7508087   9.9961996  41.2649612
  68.9891891   9.7520409  40.4296227  81.4304428  42.7156219  68.6378174
  80.5543442  42.9437523  68.9486923  81.7617035  42.0964279  69.2882767
  49.1174545  12.5047350   4.9767165  48.7766762  12.1880779   4.1401567
  48.3403358  12.6208544   5.5233765   6.8033323  26.8304672   8.3198204
   6.8891201  25.8773689   8.3416128   6.2682223  27.0403461   9.0852222
  56.0489349  37.1981735  55.0984688  56.0693512  37.8215752  55.8245468
  55.1327133  36.9270782  55.0412369  13.7533607   8.6124840  62.0483627
  14.5340757   9.1385679  62.2214279  14.0041418   7.7227774  62.2968826
  75.6240540   7.7812781  56.6480370  76.5763168   7.7317553  56.7315559
  75.4213181   7.2334976  55.8897057   2.3222101   8.5760670  43.1764565
   2.9157481   8.5193720  43.9252739   2.8844724   8.8272161  42.4436417
  78.9123917  35.3137093  34.9274025  79.1554337  35.9857407  34.2905884
  79.6412811  34.6934776  34.9110603   1.0799353  53.4779549  27.8969135
   1.0139453  53.8152122  27.0035305   0.2974799  53.8103523  28.3368111
  12.9641495  52.3024673  57.6535873  13.3845673  51.8126488  56.9467926
  12.6552935  53.1068916  57.2367630  60.7642250   1.0234449   8.9306173
  60.4656334   0.6052719   9.7382097  61.6926575   1.2006485   9.0817633
  40.0573578  59.5052223  86.2721786  39.8620491  60.2837219  86.7937393
  40.7694550  59.7772369  85.6932449  72.6911774  71.3210983  66.2884293
  71.7521896  71.5067444  66.2801743  72.7854309  70.5387268  65.7450638
  24.4053249  55.0717392  88.8243713  24.3848743  55.7556839  88.1550140
  25.1446342  55.3072205  89.3849030  46.3641777  68.6440353  17.8156834
  46.3441887  69.1230698  16.9872169  46.9855003  67.9315567  17.6654530
  15.9296713  65.2370377  50.9797897  16.3828125  64.4904022  50.5880775
  15.1364660  65.3386765  50.4537392  73.1502686  62.6480103  88.0795670
  73.4347687  63.2208481  87.3674240  73.0676422  61.7848434  87.6741714
  82.8214951  55.3934479  83.1428604  83.2864914  54.8477745  82.5086288
  83.3451843  56.1925926  83.2007294  51.2417946  70.9889679  77.5681610
  50.8511276  70.5518951  76.8114624  50.9218750  70.4938278  78.3222961
  16.1426830  51.8768082   3.6086488  15.7738323  50.9950867   3.6610529
  15.6263943  52.3897552   4.2303910  12.0149097  18.4585514  22.3178673
  12.8591909  18.4858570  22.7680607  12.2381401  18.3100510  21.3989830
  12.0340548  53.1359787  88.6466064  11.6685925  53.9308815  88.2582779
  11.6888695  53.1249809  89.5393295  52.7217903   6.3077555  33.9899597
  52.8067055   6.3186159  34.9433250  53.0073471   5.4307175  33.7340431
  58.6748238  28.8008442  83.9196548  57.7922897  29.1255894  84.0982819
  59.1429062  29.5591469  83.5702133  76.5773315  10.7255020  38.2411461
  77.2107315  10.0087280  38.2767448  76.9803009  11.4268675  38.7529411
  69.0818024  61.8641624  52.1763000  69.3896866  62.5405502  52.7795715
  68.4459152  61.3610039  52.6849365  34.7071915   6.5772038  11.9516726
  33.8586769   6.5882854  11.5088072  35.2082977   5.9032769  11.4923820
  33.8722763  65.3249817   9.9318657  32.9195557  65.3652115   9.8485794
  34.1999817  65.6544037   9.0950146  50.6857910  62.3507156  10.7496777
  50.9467354  63.2369728  10.4992971  50.3331108  62.4458313  11.6344376
  68.4688568  64.3233414  76.7773972  67.9010468  64.3034210  76.0070496
  68.2873611  65.1692657  77.1869049   2.6927452  65.7213516  20.0541115
   1.8086053  65.8773499  20.3860607   3.0796251  65.1102524  20.6811028
  51.3675728  50.1287994  36.9988976  51.5436554  50.7726288  37.6849861
  51.6976547  50.5359497  36.1979561  28.7397861  62.9682388  84.8035507
  28.0153599  62.6936836  84.2413559  28.5103455  63.8577309  85.0726013
  26.5760269   4.3363724  65.9531174  25.9007950   4.8182449  66.4307098
  26.4274979   4.5624843  65.0349503  26.4681129  54.5011597  54.1515007
  27.3617573  54.5165215  53.8088684  25.9483280  54.1132393  53.4475327
  33.1228485  48.9899788  59.4224930  33.3282204  48.3691254  60.1214905
  32.2179718  48.7900467  59.1827888  74.4629822  44.8827591  25.2831268
  75.2386780  44.9887924  25.8338375  74.1100311  45.7679901  25.1935253
  26.5885010   2.4982831  55.1147003  25.6392040   2.3756220  55.1101036
  26.8033028   2.7387295  54.2134361  57.8068466  28.4182644  88.5855865
  58.1817513  27.5518150  88.7435303  57.7236786  28.8057060  89.4569092
  79.4818268  19.3334007  88.9177170  79.7300034  19.7704983  89.7323303
  79.1610718  20.0386372  88.3555908  84.4060364   4.5767350  13.4985714
  84.9555664   5.1215115  12.9351282  83.5110397   4.7704382  13.2198496
  72.6110916  32.5510674  75.9009781  72.8163223  32.5609894  74.9660873
  71.9258270  33.2115822  76.0027771   8.4892483  40.6164398   6.5628228
   7.5675859  40.8398399   6.6926775   8.7252865  40.1116333   7.3410830
  49.0831718   8.9971075  60.9914322  49.2852135   8.5819130  60.1529694
  49.6871109   8.5895319  61.6122169  18.2765560  59.5235748  85.3235092
  17.6709232  58.9445953  84.8606720  19.1399250  59.1405144  85.1682968
  15.0851402  62.9049110  82.4071121  14.2836285  62.8044701  81.8935699
  14.8426771  63.5015144  83.1152802   1.1768510  54.7676849  79.2723770
   1.0001745  55.6091309  79.6930771   1.5027629  54.9985771  78.4024887
  50.0255775  18.7800388  68.6748657  49.2849617  18.3839378  69.1340179
  50.4188194  18.0570354  68.1861267  64.7593536  16.2931881  26.4075012
  64.8658066  17.1497383  25.9937115  64.0557327  16.4204025  27.0438709
  66.6166382  71.3277130   2.8763416  67.1227264  71.4551926   2.0739315
  66.9680481  71.9759674   3.4866776  36.9249840  17.1605587  80.6220322
  36.8256912  18.0977116  80.7897186  37.7456169  17.0901356  80.1343460
  12.1554270   2.5770695  84.2732697  11.3008366   3.0001581  84.1901703
  12.3515205   2.6151340  85.2093887  77.7269440  62.6388397  31.0036144
  78.5373306  62.5787201  31.5094719  78.0138321  62.6356125  30.0904236
  61.6799126  34.0789032   4.0777979  61.9843369  34.6474037   4.7851615
  61.9471016  33.1995697   4.3454146  64.9434052  52.5689316  46.9763641
  64.6220551  52.5158806  47.8764496  64.2084885  52.2686882  46.4415817
  63.2327042  49.2118721  10.0302057  62.6941185  49.9930420  10.1564550
  63.5240250  48.9768600  10.9111900  36.6461906   0.5628774  45.4857101
  36.4480476  -0.3719183  45.5416412  36.2651711   0.8390179  44.6521606
  59.3249016  55.8295326   1.1826142  59.6720619  55.0019112   0.8498116
  58.4482193  55.6115532   1.4990674   2.1403754  58.6368179  88.7750778
   1.3091238  59.0149345  88.4882355   1.8922122  57.8381805  89.2407303
   6.2748103  32.6841316  81.4450607   6.3005013  33.1905251  80.6331863
   6.9432487  33.0865288  81.9995880  49.7669334  60.4547691  31.3348637
  49.5971832  59.5451126  31.0900383  49.6946678  60.9412918  30.5137043
  76.9364243  64.2467270  72.7172089  76.3027802  63.5366898  72.6143951
  77.4609756  63.9915962  73.4761505  82.4965744   8.8946161  22.6016464
  81.6481705   9.2172384  22.9055576  82.4582367   8.9805231  21.6490784
  85.5703812  40.2873459  31.7749290  85.0996017  39.9609451  31.0080776
  85.2452469  39.7542343  32.5004044  27.8515797  33.2046394   5.2774420
  26.9563541  33.1778297   5.6152081  27.7507210  33.4077072   4.3474841
  10.2219410  16.7161140  80.6913757  10.3259783  16.0120678  81.3314743
  10.2889814  17.5200520  81.2065659  65.9175415  68.0393753  20.1831741
  65.6069946  68.6133728  20.8834038  65.2917709  67.3151398  20.1719189
  64.5599289   5.7235188  58.7095261  65.0919952   5.0368910  58.3074303
  65.0549088   6.5289202  58.5593414  57.7114563  40.2022209  40.7860069
  57.8719673  39.2694817  40.6429367  57.8133736  40.3207016  41.7303619
  47.2263603  55.1880760   4.8074565  46.7435493  55.9127769   4.4100456
  47.7303848  54.8118362   4.0859075  36.2298050  57.0036011  75.5218430
  36.2499046  57.5692749  74.7499390  35.3262329  56.6908226  75.5661087
  80.1110153  60.1605377   1.6622660  80.7440186  59.4496880   1.5611181
  79.3802872  59.7647667   2.1372728  40.6451836  34.2788467   2.7075307
  40.2438278  33.5972672   2.1684623  41.5867653  34.1569672   2.5858781
  60.5112419  28.7518349  24.7383518  60.2153854  29.6429176  24.5521431
  61.1336365  28.8517227  25.4586830   8.9354696  -0.2146109  22.7321720
   8.6304369   0.6725709  22.5421848   8.7720861  -0.3287119  23.6683960
  54.7923927  68.6697235  64.6725311  53.8656120  68.7061386  64.9091263
  54.8937950  67.8267822  64.2304840  50.9786072   0.9330825  36.5745544
  50.7279510   0.7469479  35.6697044  50.2640915   0.5729680  37.0999298
  14.4087420  50.4429741  70.9088669  13.8508482  50.3254509  70.1399918
  14.9510880  49.6546440  70.9340210  70.5132980  37.5038033  48.8495560
  70.5257797  38.2158470  49.4891434  71.2703781  37.6724014  48.2886353
  66.5974350  21.1813011  32.5797234  65.8191376  20.7603016  32.9447479
  66.7651749  21.9214954  33.1629982  37.4300995  65.3110886  11.3572474
  36.9511642  65.5643921  12.1463528  38.1930656  64.8336334  11.6830521
   6.4877071  24.9936275  79.0669022   6.2890806  25.9253712  79.1598282
   7.0216408  24.7849426  79.8334503  63.6367340  66.3255463  79.8650055
  64.0676804  65.4749832  79.7809906  63.5585327  66.4621964  80.8091660
  43.9708176  30.2263412  73.0452118  43.1986580  30.2099571  72.4797592
  44.5340881  30.8987274  72.6619949  13.8813639  22.0090466   0.0886443
  14.6089973  22.3762474  -0.4132968  14.2365484  21.8837719   0.9686342
  46.4531708   3.1660094  80.7698898  45.6153908   3.4042473  80.3729019
  47.0335922   3.0051115  80.0259476  16.2339973   3.4739733  35.1426430
  16.1799145   4.1077108  35.8579636  15.7954941   2.6931779  35.4807358
  74.6680756  20.4517498  35.5899429  74.1832733  20.9146881  36.2732315
  74.2412109  20.7135544  34.7741737  15.5382452  68.4970169  88.3144608
  15.0408125  67.6851501  88.2161255  16.0210438  68.5831528  87.4924393
  73.5934525  10.1136322  17.4119244  74.4232788  10.1950207  16.9418201
  73.5806808  10.8633814  18.0068569  40.9303932  49.9547234  41.3916435
  41.4591675  50.6179314  41.8352470  40.8567047  50.2702408  40.4909515
   2.7826760  32.1609230  74.6584091   1.9525843  32.3223381  75.1068802
   3.0761552  31.3143291  74.9951248  41.0498810  44.6470375  46.8059158
  40.9966049  44.5336380  47.7548790  41.7494049  44.0535431  46.5326767
  47.7771339   9.6591187  15.7909632  47.3872032   8.8944902  16.2146683
  47.4076691   9.6580563  14.9079428  57.4164696  41.1272926  38.0428886
  57.4810448  41.2578735  38.9889374  57.4805832  40.1792946  37.9270248
   7.0957322  46.4311905   4.4121561   6.3479261  46.7554398   3.9102795
   6.7128673  46.0960541   5.2229142  57.5377731  27.9498711  71.3578262
  56.9997787  27.9233456  72.1490860  57.6476555  28.8828201  71.1740723
   2.0893013  49.0350075  58.2580376   1.8209258  49.9426422  58.4008751
   2.0324261  48.9147720  57.3101273  74.2582932  20.4342251  61.1014633
  74.2189484  21.3902054  61.1294556  75.1874008  20.2360764  60.9843140
  44.2711105  40.0593910  67.1267395  43.9340782  40.2387848  66.2489853
  43.5299721  39.6734352  67.5936279  76.3405838  62.1234360  43.7868576
  75.8758545  61.7717667  44.5461884  76.0197372  63.0214958  43.7044907
  68.4471588  26.0550785  40.7796288  69.1747208  25.5540600  41.1482277
  67.7213440  25.9041500  41.3851471  28.1869373  67.5782623  82.7972946
  28.0670681  66.9288788  83.4902344  28.0308266  68.4190369  83.2273560
   7.8604302  57.7618561  87.0311279   8.8049307  57.6065216  87.0357895
   7.5770183  57.4883385  86.1587219  58.5937157  38.8852844  12.3927641
  58.1411896  39.5465546  12.9163752  58.9260559  38.2577629  13.0346375
  70.0489273  71.3483200  65.9626389  69.8763504  71.9970703  65.2803116
  69.2959747  71.4125519  66.5501480  77.5551910  31.5638313  55.6710320
  76.8073044  31.7530155  56.2376938  77.8513489  30.6964169  55.9469147
  20.6841373  51.7856216  33.0848618  20.0375538  51.1890297  32.7077103
  20.2007713  52.2712173  33.7532806  52.9605026  23.6871300   8.4906054
  52.2546196  23.1763592   8.0942860  52.6758919  24.5968800   8.4035292
  75.6249847  53.9846420  70.0102234  75.7610703  54.9277916  70.1007080
  75.7697144  53.8098907  69.0803070  43.3046646   6.8042321  87.1291656
  43.4132652   7.6468601  86.6882401  44.1756897   6.5970612  87.4677353
  72.7125244  33.5448570  66.2648773  72.0368958  34.1735725  66.5188065
  72.8615112  33.0221062  67.0527649   5.2122812  36.2440376  33.4074173
   4.8394446  36.2520866  34.2889862   4.7953892  36.9830093  32.9642982
  34.2727509  66.6063156  40.3904800  34.6930122  65.7872391  40.1283340
  34.5151100  67.2297211  39.7057457  64.4640808  17.1553898  65.8097763
  64.3115005  18.0986786  65.7536011  65.4162369  17.0691547  65.8567352
  44.8205948  32.0173912  63.4065628  44.3693352  32.8610802  63.3784332
  44.4001884  31.4979458  62.7212410   3.7850573  56.4071999   5.9040856
   4.3446693  56.5707664   6.6632376   4.1936917  56.9024315   5.1941595
  25.3688660  38.9993782  83.0517883  25.4656162  38.0476341  83.0192642
  24.5889492  39.1789207  82.5266953   4.2503023  26.8888893  70.7177811
   4.6935143  26.5595455  71.4996490   4.1195784  27.8211021  70.8913345
  36.1012383  67.7447052  59.9004593  35.4027710  68.1822662  60.3872032
  35.8158493  66.8330841  59.8394203  26.2576733  46.6660919  63.5741844
  25.3739510  46.3013649  63.5268860  26.2038708  47.3367462  64.2550430
  10.2545853   0.1964258  77.3572311  10.5543594  -0.5209960  77.9155121
   9.7679167   0.7718610  77.9473648  23.6579189  47.2007942  86.4523849
  22.8177471  47.5352402  86.7662125  23.4376965  46.3863907  86.0001907
  84.3928223  64.7530823  39.7257004  84.4035034  63.8071289  39.8715935
  83.4732132  65.0001144  39.8232956  48.2532272   9.3648195  19.5050220
  48.1550407   9.1872034  20.4404602  48.0472374   8.5321503  19.0802135
  33.0425339  37.7712631  77.0991516  33.7693558  37.2793159  76.7171097
  32.3573837  37.1173668  77.2377853  64.7602310  59.2391396  88.3177261
  65.3446808  59.0474930  89.0511551  64.5012054  60.1511078  88.4498520
  84.6806030  57.5029678  28.2096825  84.5692062  58.3508530  27.7796688
  83.7884445  57.1819878  28.3410511  75.2042389  62.9172745   1.0676315
  75.3596954  62.0010414   1.2969421  74.6028748  62.8793221   0.3238895
  79.6047363  27.7090969  58.6790733  80.5219421  27.4398041  58.6296539
  79.1146011  26.9482594  58.3674126  83.3020554  17.3945885   4.6976914
  84.1305161  17.0860920   5.0647268  82.9411011  17.9704056   5.3717699
  63.7959747  20.9566765  28.5402775  64.5515594  20.5400276  28.1258831
  64.1678314  21.4629669  29.2625103  61.6920433  31.5854588  28.2064095
  61.8879814  30.9375935  28.8832455  62.5384064  31.9843769  28.0045109
  19.3784943  56.5394936  59.5595779  19.2819138  55.5871773  59.5604210
  20.3157387  56.6850700  59.4306946  59.7171059  36.3600082  37.9077187
  59.8380547  35.9059677  37.0737839  60.6024933  36.4567299  38.2583847
  45.8309784  64.1482773  14.8183012  46.7032089  63.8650894  15.0926056
  45.3434753  63.3342285  14.6922359   1.0894667  59.1100197  37.1163979
   0.6646505  58.3390465  36.7404175   0.8828131  59.0659752  38.0499840
  39.4672699  32.4364815  69.8426056  39.5474777  31.7017307  69.2343750
  39.6268463  33.2116356  69.3041763  36.9530067  44.3255424  56.9865723
  36.1518631  44.7401581  56.6664238  36.8388138  43.3966904  56.7855034
   0.7878083  30.0338383  22.4145584   1.1251507  29.4321728  23.0782108
   1.5224257  30.1657085  21.8152428  23.4485645  40.8608704   0.3968246
  24.3854771  40.8247986   0.5894967  23.1645546  41.7055893   0.7461455
  82.7285156  27.2894573  10.2989473  82.8938751  28.1546650   9.9243765
  83.0106735  26.6766014   9.6199598  22.2738152  19.8144417   2.3616672
  22.8688469  20.5453148   2.5289848  22.8500519  19.0803318   2.1489112
  19.8564320   6.7327204  22.0715103  20.5243912   7.1444569  21.5232983
  19.1626949   7.3889461  22.1372967  15.7102566  58.2448769  66.6535187
  14.8454971  57.8678551  66.8156281  16.3214817  57.5339241  66.8463440
  39.2453766  49.2291489  51.1643486  39.3212967  48.4509850  51.7165565
  38.5824356  48.9975128  50.5139008  81.6286011  -0.1082677  73.3589706
  81.7088547   0.0641648  74.2970886  82.4913559   0.1026279  73.0020218
  84.8770905  43.1109772  49.1455612  84.6397247  42.1893120  49.2476158
  84.8671112  43.2575645  48.1997070  83.1940079  58.6513405  48.5141335
  84.0071259  58.3723412  48.9351234  83.1952209  58.2015991  47.6691704
  76.1693497   5.1159940  55.6016121  76.7068558   5.2545395  54.8217888
  75.6356888   4.3496151  55.3916092  38.7540474  25.6980629  19.1155910
  38.6956100  25.0078564  19.7762203  39.4302673  26.2893925  19.4461765
  28.4412403  53.4774551   6.9312806  29.2111473  54.0439720   6.9815845
  28.6155796  52.9019699   6.1865292  77.2785187   7.4205055  78.6586304
  78.0228882   7.9954820  78.4810028  76.5941315   7.7234330  78.0619049
  86.4297791  12.8989143  11.0289917  85.9937286  12.0470896  11.0069456
  85.8495560  13.4515238  11.5526218  69.9975662  28.7110977  21.0143604
  70.1766052  28.9146175  20.0963421  69.0958557  29.0010262  21.1525154
  65.0169601  56.6287651  53.4785500  65.7741013  56.0540276  53.5909691
  64.2905273  56.1483688  53.8757286  70.2755356   2.1731017  30.7407722
  70.7780762   2.5952551  31.4375324  69.7931976   1.4744620  31.1829128
  16.9532566  38.0838776  22.7038002  17.5968533  37.8412857  22.0380955
  17.2740059  37.6745834  23.5074368  31.9379807  45.6230507  30.4547310
  32.8319931  45.6240807  30.7967396  31.3932915  45.3976936  31.2088928
  10.5009947  64.2044449  11.5744228  10.3773441  63.5152664  10.9217529
  11.1772842  64.7695236  11.2008705  52.6246147  50.9101410  14.6999025
  52.6657181  51.8593559  14.5835867  52.6548157  50.5582886  13.8102283
  26.3411827  25.1546631   2.3270309  27.0580654  24.6074524   2.6477640
  26.2337112  25.8271065   2.9997129  85.6764603  55.5995255  88.3776703
  85.1673203  55.1345291  87.7137527  85.1469421  55.5373268  89.1726303
  77.8151398  55.5980377  13.7300291  77.5968170  54.7654610  13.3112431
  76.9675446  55.9892197  13.9416523  26.8121796   9.7512636  86.9207077
  27.2098999   8.9056950  87.1282272  26.4545650  10.0586233  87.7536926
  15.1426334  58.8004227  50.3692055  14.7747583  59.5970535  50.7516708
  15.1578588  58.1727753  51.0917397  13.0072994  16.9327011  15.5890560
  13.7540836  16.6708374  15.0505648  12.2424850  16.7483654  15.0437937
  69.2262192  30.3573132  30.7394943  68.8428879  29.5019054  30.9333153
  70.1694794  30.2236786  30.8324165  16.3182201  42.0058136  70.8527451
  15.4178066  41.9568672  70.5316620  16.2407780  42.3922844  71.7250290
  29.5319748   9.9098873  40.1010704  29.2073517   9.8799629  39.2010956
  30.4039268   9.5177832  40.0543327  34.9946098  56.5463181   7.4000812
  34.3954887  55.8277473   7.1977496  35.1424065  56.9789352   6.5591111
  70.0508728  16.6308765  37.7709732  69.4729996  16.0279160  38.2386627
  70.1754227  16.2259541  36.9126282  86.6297379  57.9995995   5.4193130
  87.2406616  57.6371155   4.7777443  86.2297287  58.7464256   4.9738054
  16.8910103  60.7850418  79.1911469  15.9363680  60.7507896  79.1301880
  17.1488667  61.4421883  78.5446930  35.7703705  55.9947548  19.2667980
  35.7959099  56.4197388  20.1240997  34.8628120  56.0916328  18.9783878
  72.8829880  60.8794937  63.3763008  72.8845062  61.7946777  63.0958176
  72.7397232  60.9190292  64.3218918  17.9989891  66.2292480  40.1637650
  17.1510429  65.9366608  40.4978523  18.5688667  66.2393341  40.9327698
  81.4692230  63.0928535  86.2870483  81.7214279  63.6192818  85.5284348
  82.2984848  62.8681755  86.7090378  62.6466141  56.9116516  17.1485271
  63.2736931  57.5672073  17.4539013  61.8012466  57.2174263  17.4773006
  22.6855202  65.9420395   1.0731013  22.5060902  66.2584534   1.9584925
  21.9238758  65.4064026   0.8512340  42.9462280  63.1349258  17.2639885
  43.5942879  63.6478767  17.7468281  42.8046761  62.3578568  17.8046894
  22.0616951  49.7398453  85.2415848  21.2252197  49.4094353  85.5692596
  22.2359428  50.5178642  85.7712631  64.0262756  15.9175138  84.9282837
  64.2276077  16.1491642  84.0216217  64.4226074  15.0545778  85.0486755
  46.3285103  31.1929569  85.7238464  46.2967606  30.2587509  85.5177307
  45.4312592  31.4137287  85.9737091  77.0216904  40.6739502  30.3343067
  76.4262466  40.2835236  30.9740314  76.5157013  41.3831711  29.9378071
  49.6211548  20.5947590  16.0360680  49.6819496  20.8329506  16.9611626
  50.4687195  20.8447933  15.6681681  65.8442078  55.1419449  60.3270340
  65.1373215  54.6928520  59.8635063  66.0140610  55.9252243  59.8037186
  35.8461990  63.3351555  20.0457516  36.0490494  63.0779381  20.9451542
  35.4025650  64.1789246  20.1322117  65.4797668  23.5553684  79.7407684
  65.1912842  24.4152679  79.4348526  64.8791885  22.9384613  79.3224716
  40.3391685  69.4471130   7.4828467  40.8999557  69.0130768   8.1257792
  40.6785774  70.3407593   7.4335113  56.6752090  50.6016884  30.2415352
  57.5501976  50.9767723  30.1418533  56.0892792  51.3585854  30.2463665
  50.6962090  34.8134003  59.3552666  50.9514313  34.6133080  60.2558556
  50.3876610  33.9787025  59.0026855  28.9490395  61.8408470  75.2110748
  28.9668941  62.6020660  75.7911224  29.4449558  61.1702003  75.6806793
  71.1563416  37.7105675  74.1889420  71.0850525  38.5903854  73.8187103
  70.7458801  37.1424141  73.5370483  53.6734352   2.0691996  58.2489738
  52.7441788   2.1148474  58.0239716  53.6852684   1.7715982  59.1586571
  66.3927078  61.8603630  79.8683395  67.1275635  61.6942711  80.4587936
  65.6237335  61.5594406  80.3524399   3.3368397  37.7071190  31.8273735
   3.7205174  38.5639610  31.6407166   2.4343615  37.7758026  31.5158501
  40.3329811  66.9958954  23.5621281  41.0719376  66.3991547  23.6807709
  40.1304779  66.9436111  22.6280575  53.1679306  24.2168007  45.9770050
  53.3206978  23.3161335  46.2628250  52.9190788  24.1369190  45.0561752
  30.0623207  43.3163338  19.9791756  29.3809662  42.7431602  19.6278076
  30.1189175  44.0350418  19.3495045  32.6409073  32.7790031  87.4645462
  33.4506264  32.3691139  87.1602783  32.8141060  33.7189751  87.4126816
  55.3750877  47.5246620  44.3116302  54.5793076  47.3357239  43.8143692
  55.4929619  48.4705849  44.2246208  60.6634102  23.4038010  51.4689903
  60.4130363  24.2027416  51.9329300  60.0102425  23.3152027  50.7749062
  34.8512192  62.2012329  14.0665798  34.5354691  62.7979889  13.3880405
  34.1233559  61.5967102  14.2114944  39.6131401  58.1750488  44.1476555
  39.6861801  58.7405777  43.3788414  39.4027328  57.3120384  43.7910461
  19.7944775  53.9543304  47.9341393  20.3905296  54.1253891  47.2049675
  19.9109745  54.7027740  48.5193634  27.4917316  52.3695183  80.3139420
  28.0060902  52.2067719  79.5232620  26.8970776  51.6216125  80.3710022
  20.1293526  41.5433578  33.9616051  19.4864216  41.9211769  33.3614998
  20.9291954  41.4705200  33.4408569  34.1687431   8.7814665  76.0931473
  34.8951073   8.1830492  75.9184494  34.2773895   9.0283365  77.0115662
  17.0762424  42.0726433  28.3899860  16.4484158  42.5757065  28.9086342
  16.6729641  42.0059700  27.5244503  58.0227432  48.3104897  88.4533691
  57.8509903  47.6770058  87.7566452  58.4684486  47.8044167  89.1326904
  71.0280609   1.5516065  73.5993576  70.8444214   0.7642776  74.1118240
  71.9198914   1.7958398  73.8468018  62.7107811   2.8617959  73.7890015
  62.4330254   1.9487947  73.8632507  62.4339180   3.1257710  72.9115601
   7.3427730  51.6777039  74.7601089   6.7233887  51.0137138  74.4572678
   6.9908609  52.5031853  74.4269867  26.7551594   3.5464950  83.8677902
  26.3857269   3.0564225  84.6023483  26.0122643   4.0272412  83.5027924
  31.5963173  14.4903622  13.0714550  31.4465656  13.5917149  12.7777910
  31.2929306  14.4993801  13.9792585  59.0202713  54.0760574  79.5639038
  59.1640854  54.8994980  80.0302734  59.8777351  53.6506615  79.5589981
  46.9721489  43.3191719   3.3922033  46.0757866  43.1644020   3.6902075
  46.9001884  43.3835983   2.4398892  35.2651405  55.8758087  57.9848480
  34.7722435  55.1457901  58.3594933  34.8251343  56.0611839  57.1552315
   9.8546028  25.7383633  13.6242447   9.9204464  25.6867065  12.6707106
   8.9669380  25.4381924  13.8196430  48.6680107  68.4406128  42.2151146
  49.1721802  69.2194443  41.9795952  48.1689415  68.2306137  41.4257698
  66.7979126  39.6379585  44.8973541  67.0301590  40.0110016  44.0469818
  66.5479126  40.3930206  45.4299088  60.9817238  31.5741386  14.7814751
  61.5310402  32.0090179  14.1292753  60.4962769  32.2858391  15.1986771
  67.3105240  17.7600136  32.1201019  68.1079865  17.2334328  32.0652733
  67.2253647  17.9695759  33.0501862  33.6612053  62.7641373  37.2137794
  32.9584656  63.4028015  37.0933723  33.5138206  62.1135712  36.5272827
  24.0545425  65.4321747  21.8952866  24.6845322  65.2034454  21.2118931
  23.2992325  65.7770462  21.4190445  55.9622154  60.3920441  -0.0296416
  55.1766205  60.3161201  -0.5712208  55.6324615  60.6160202   0.8406058
  73.2591553  67.8776932  80.8992310  73.3165436  66.9912643  80.5426178
  72.5135803  67.8468857  81.4987335  80.9289932   3.1877229  49.6375198
  79.9897995   3.2930400  49.4856911  81.2448044   4.0748458  49.8092995
  14.6764574  17.4722691  85.7854385  15.3266020  18.1732216  85.8324432
  14.0288239  17.7881432  85.1553421  44.3363647  42.9483795  21.3768768
  43.5168686  42.9229202  20.8829060  45.0142899  42.7680855  20.7256126
  78.6949463   3.2965438  38.0851402  78.3970413   3.2747245  38.9945412
  79.1203079   4.1490598  37.9928360  34.8790398  52.2246246  77.9519196
  34.2433929  51.6379738  77.5420151  34.5609474  52.3339081  78.8480835
  82.1713104  71.0893402  82.7897263  81.9708405  70.4193573  82.1361389
  82.0387421  70.6511459  83.6303482  25.9363766  65.9754791  64.2014847
  25.7483501  65.9163818  63.2647934  26.7091503  65.4244995  64.3258820
  22.3480587  20.3711681  74.2393494  21.4927883  20.6209583  74.5891418
  22.8735008  20.1685753  75.0133667  86.1065598  49.9963264  40.5276337
  86.3468628  49.8928757  41.4483833  86.0347748  49.1009941  40.1967812
  67.7871857  10.9799337  30.3322086  67.7060928  11.1827621  29.4002647
  67.1020584  11.5007982  30.7511845  11.9736509  71.2198410  61.4329834
  12.2237282  71.6844482  62.2316246  12.6420879  71.4658127  60.7935181
  79.3908234  50.4178200  83.0954132  78.5445633  50.2161102  82.6961823
  79.1740265  50.9530869  83.8587723  85.6913986  61.8295517  65.7527390
  85.5547256  60.9001389  65.9364243  84.8481140  62.1339569  65.4174118
  21.0997314  51.8661766  83.0400314  20.6028042  51.3609047  82.3966141
  21.8702526  51.3286667  83.2233658  40.1105957  51.8375244  45.5050735
  40.6901894  51.1392784  45.2005157  39.4458847  51.9127274  44.8204308
  36.5427094  56.3179131  16.1660328  36.7220840  56.7738571  16.9883289
  37.2128906  56.6392555  15.5628557  12.8056469  68.0481339   3.4014220
  13.7045908  67.8679123   3.1263683  12.8990602  68.5803909   4.1914911
  43.5299568  19.2776699  10.6985502  43.3354721  18.4473152  11.1331978
  44.3022804  19.0930977  10.1640606  65.7035751  70.5466690  75.7482758
  65.5680847  70.1098480  74.9074097  65.1510620  71.3270874  75.7045288
  65.2764053  50.6505699  76.7108994  64.5299072  50.8604736  76.1497345
  66.0041199  51.1476746  76.3373413  27.8749962  63.7307892   1.8691993
  28.3620586  64.5464859   1.7523943  27.0456104  63.8799591   1.4152169
  53.3432503  23.6778297  84.8522263  53.1673546  22.7430038  84.7454910
  53.7684212  23.9364300  84.0345535  50.9132385  43.3173981  36.1152382
  51.3905411  42.5023117  36.2703247  50.8648300  43.7340279  36.9756508
  49.8085327  38.3842926  76.9588318  49.2923546  38.4358025  76.1543808
  49.2097702  38.0080414  77.6039276  54.4641266  70.0814819  52.2746391
  53.8678360  69.8125687  51.5758133  54.2635422  69.4912186  53.0009918
  33.8932533  40.3064575  20.4181519  33.2371864  40.6724930  21.0113010
  34.4401398  41.0536194  20.1754589   3.0245907  26.6265659  88.4652710
   2.6361299  26.2706909  87.6660919   3.9650154  26.4834213  88.3587646
   0.7757801  15.7327557  85.5183182   0.1953144  15.0963411  85.9357758
   0.8523758  16.4418716  86.1566925  29.8839340  35.8241882  32.4630623
  30.4122639  36.0162315  31.6883240  28.9792156  35.9231415  32.1665421
   2.2420518  71.3231583  11.6944227   2.6165278  70.8869781  12.4597635
   2.9953072  71.7053452  11.2441196  65.6984482  16.7220020  23.0335083
  65.2572556  17.5192928  22.7404194  65.0755997  16.3098621  23.6321945
   1.3747368  56.0025063  76.6324158   0.4441060  55.7892227  76.5640869
   1.6765422  56.0511284  75.7253418   0.1352942  32.1358528  53.9384003
   0.6578788  31.3339443  53.9473190   0.0308699  32.3433685  53.0098190
  28.9909821  65.4403229  25.6296825  29.6788979  65.6390381  26.2649136
  29.4628201  65.2247772  24.8252335  68.1191406   5.6194096   9.1702642
  67.1677094   5.7021956   9.1057739  68.4313202   6.5183597   9.2735167
  74.8388138  22.8287773  55.1425209  75.6280441  22.4229336  55.5011787
  74.6192474  22.2930603  54.3802681  84.9168549  20.8318520  62.9795494
  85.1972580  19.9182491  63.0337067  84.5097656  20.9066830  62.1164665
  62.8366852  63.1590538  66.2466736  62.4570885  64.0372849  66.2757797
  62.5219460  62.7354927  67.0452805  51.0427132  41.4267082  25.4297638
  50.7027817  42.1402435  24.8898125  51.0938187  40.6790848  24.8342171
  76.0208893  15.9633713  75.7214966  76.7328949  15.3263998  75.7811203
  75.2233505  15.4371347  75.7783737  67.6119690  55.5420570  24.4661217
  68.4851303  55.7487488  24.7994232  67.4931335  54.6134148  24.6654606
  81.8480835  36.5517616  77.7033005  81.4603729  36.0037918  78.3856812
  82.7718658  36.3013268  77.6910934  40.8408203  47.1565819  41.0532990
  40.9504013  48.0305367  41.4280357  39.8992577  46.9913445  41.1022034
  71.4206238  43.9629135  80.5816116  71.8191910  43.3044319  81.1506271
  72.1298294  44.2384567  80.0008087  71.3744049  38.5752602   7.6474581
  70.7712479  39.2645683   7.3694434  71.2735977  38.5380783   8.5986090
  79.4807587  17.9628716  52.2675171  79.5917435  18.5359020  51.5088692
  80.3394089  17.5577488  52.3893242  36.9103966  52.9938660  26.5326881
  37.6898804  53.1964417  27.0499916  36.5874023  53.8468094  26.2421837
  86.5866241  65.0095901  19.1020145  86.6442032  65.8124771  19.6199837
  86.1764832  64.3746262  19.6892338  55.4000816  30.6452675  74.1257324
  54.7055588  31.2766705  73.9381104  54.9670982  29.9552631  74.6283798
  46.5986557  61.6380386   7.6662502  46.5134735  60.7436333   7.3360763
  47.4080124  61.6286583   8.1772194  18.5756226  24.9600639  72.9681702
  18.5815887  24.0173607  73.1340179  18.7046547  25.3557281  73.8301620
   2.7417841  35.9263268  45.5905876   3.6842597  35.7591629  45.5957603
   2.4659936  35.7152901  44.6986046  79.1858978  69.9631042   8.7936115
  78.7593613  70.6504211   9.3053761  80.1009827  70.2384720   8.7384958
  42.6670074  48.7675209   0.7623627  42.1434898  48.1478577   0.2542497
  42.8230743  49.4972267   0.1628581  55.4066391  17.6709518  61.1950417
  55.0399246  16.8124714  61.4066124  54.8909912  18.2866344  61.7158813
  81.8160553  26.2948246  81.4443283  80.9918289  25.8513927  81.2436981
  81.5512161  27.1422291  81.8020935   9.7628927   2.5849254  61.3417816
  10.6788797   2.7067797  61.5914841   9.8015366   2.0896382  60.5235939
  22.1362286  51.8725929  36.7038727  21.7035179  51.9430771  37.5547676
  22.7066898  52.6400337  36.6609650  40.7439690  68.6322174  16.8182201
  40.3591537  67.8632660  17.2387791  41.2561302  68.2767868  16.0918636
  79.7676239  46.8076324  75.8781281  79.3771515  47.2881851  75.1481857
  79.1317444  46.8928909  76.5884933  44.2542000  41.8004303  15.8120222
  43.7302361  41.1771202  16.3151894  45.1369476  41.4303551  15.8171816
  62.1798897  70.1729431  13.5271425  62.3538284  70.0158920  12.5990744
  61.9224281  71.0938721  13.5700722  29.9085293  45.9073830  72.0561905
  30.6362534  46.0935707  72.6494675  30.2621403  45.2695923  71.4361801
  37.4793282  63.8432655  77.4187851  37.3843613  63.0061073  77.8730698
  37.7525482  64.4564133  78.1011581  75.1477661  44.6102219  83.1254883
  75.3675461  43.9917374  82.4287720  75.9947662  44.9065247  83.4586945
  48.6463242  58.3703651  55.5441093  49.6017799  58.3275986  55.5052795
  48.3613548  58.1752090  54.6513977  72.0845337  44.4584351  85.7524948
  72.8584824  44.6287880  86.2893448  72.0891724  45.1562653  85.0973282
   6.6640005  43.2320633  66.4924545   7.2660580  43.2325401  65.7483063
   6.3579721  44.1369667  66.5535278   7.8975449  57.8176117  60.5159569
   7.9779558  58.5222511  61.1588020   7.1732078  58.0892105  59.9522209
  23.5534306  59.1398964  48.8943710  23.8384514  58.2747498  48.6002274
  23.6733723  59.1215935  49.8438492  70.1825180  60.4313011  88.5577927
  70.3607254  60.1843529  89.4652557  70.0936966  61.3840637  88.5818710
  86.6218414   4.3070259  87.5872116  86.8899612   4.0706758  86.6992493
  85.6696014   4.3896627  87.5358810  54.2788429  34.0167580  71.9397278
  54.2298317  34.7964554  72.4928055  55.1953888  33.9737167  71.6671066
  64.7261047  13.3288183  42.6239281  63.8289413  13.0273542  42.7669220
  64.8441467  13.2878675  41.6749191  43.8287468  46.6421509  72.6753693
  43.3946457  46.3648071  71.8686066  44.6822433  46.9670258  72.3886185
  33.1142998  63.8880424   1.8497291  34.0246849  63.6565971   1.6657012
  32.8546982  63.2960968   2.5557334  -0.1575949  53.6387253  85.1682968
   0.2340361  53.0653801  85.8271866   0.5434971  54.2461433  84.9321899
  72.2131424  21.8685837  12.2700872  72.7176132  22.6811848  12.2324133
  71.8741150  21.7557526  11.3820772  30.6545811  50.1457634  84.9713516
  31.1479378  50.9607544  85.0642166  30.3164139  50.1711693  84.0762405
  64.3967209   2.5991602   3.8570862  63.9103088   3.1536684   3.2470398
  63.7385712   2.0048461   4.2174511  20.8201427   3.2938957  23.9630642
  20.1649895   3.8009169  23.4835453  20.4342213   3.1620545  24.8290405
  20.8709259  53.2772865   5.4017606  21.4247322  53.7793312   4.8038597
  20.7411499  52.4379692   4.9602437  22.5196609  62.0821190  20.7929745
  22.7256432  61.4034843  20.1501236  23.3605442  62.2886505  21.2010098
   5.9786053   2.1004467   2.2122035   6.5150003   2.8198848   1.8791558
   6.3604102   1.8918080   3.0648034  83.3807449  57.1725388  16.7062607
  83.6113663  56.5063820  17.3537807  83.4355392  58.0001297  17.1840935
  24.2562790   4.5570426   5.0768652  24.0254383   5.3321090   4.5647936
  24.3881035   4.8875852   5.9654574  50.9097939  43.5454254  88.1389923
  50.2306824  42.8711357  88.1196442  50.4408913  44.3514900  88.3549118
  16.1923981   0.4874673  33.0760040  15.5044966   0.9866114  33.5163231
  16.0344028   0.6332390  32.1432571  76.5043488  33.0004044   4.9951439
  76.8585434  33.8708038   4.8129983  75.5551453  33.1238365   4.9978251
  43.2643471  17.8496799  68.5941238  43.0748329  17.6942749  67.6688309
  43.1155663  18.7875061  68.7148590  34.8556824  26.6015453  15.0385084
  35.7608719  26.5489120  15.3452492  34.4852142  25.7414989  15.2367716
  41.3073769  42.0083961  51.7542534  42.0758705  42.0734329  51.1873131
  41.4802284  41.2451019  52.3053780  76.0237579  52.8594322  18.6643238
  76.7078552  53.0083389  18.0115757  76.2904663  52.0564346  19.1118717
  81.9698944  69.2312088  26.5243206  81.1617432  69.5818100  26.1498871
  81.7077103  68.8831329  27.3765717  36.4664078   2.1845450  88.3858871
  36.6295624   1.5594950  89.0922394  36.9039764   2.9869606  88.6703033
  61.5287476  39.4263077  67.7239609  61.1946297  38.9401970  66.9701080
  62.0633583  38.7913017  68.2006073  56.1386490  65.0257721  43.0658226
  56.5690155  65.5562363  42.3952866  56.3464813  65.4664459  43.8897400
  66.2502899   6.0343451  85.1788025  66.6755676   6.1978645  86.0206070
  66.3915710   6.8383241  84.6789169  63.2593842  30.1582241  15.6767979
  62.6002731  29.9470673  15.0155725  62.7630615  30.5596714  16.3900547
   2.0295787  54.3967438  38.1051369   2.8650315  54.2701035  38.5548172
   2.2149432  55.0563087  37.4366722  58.9773369  67.3398285  87.0227356
  59.4723206  66.7172852  87.5553360  59.1922379  68.1958771  87.3931885
   6.5620866  50.1210403  44.7397995   6.1173129  50.1866531  43.8947525
   6.5364528  51.0100784  45.0936165  49.2899246  32.0400467  35.7782021
  48.4836578  32.1518478  36.2818565  49.5732727  32.9322777  35.5785370
  58.6423111  46.7368088  86.0278702  59.3152161  46.4435120  85.4135361
  58.6970825  46.1182938  86.7563400   0.7243974   0.7172036  61.9412231
   0.9119008   0.4972822  62.8537521   1.3084724   0.1533749  61.4340897
  52.4507828  71.0260391  88.7129745  53.3588409  70.9296036  88.4259949
  52.5141258  71.2118759  89.6498260  63.8424835  65.5047836  51.8520660
  63.4489632  65.3081894  52.7021980  63.1150627  65.4478683  51.2325096
  86.7915878  23.6717796  61.5146751  87.2681274  23.4906330  62.3248138
  85.8851166  23.8008423  61.7937469  77.6344833  39.9389420  59.4283600
  78.5233536  39.9501801  59.0733871  77.5070877  40.8188171  59.7830696
  66.7009201  52.0317039  53.5375366  65.8354416  52.3167953  53.8306198
  66.9259262  51.3086662  54.1230469  59.3213196  68.0764084  44.1885643
  60.0648842  68.0998306  43.5862389  59.1730576  68.9928436  44.4217987
  60.2314224  48.0581856  10.1837864  59.6425285  47.8262978   9.4656906
  59.8522491  48.8538742  10.5570583  17.7361946   9.2871876  73.7875671
  18.6839848   9.4210310  73.7912521  17.4677162   9.4506016  74.6916962
  35.3170319  10.5759125  73.2215500  35.4121017  11.4146481  72.7702026
  34.5420456  10.6867952  73.7723083  76.1568146  52.8863144  64.7932587
  75.3246994  53.3453522  64.6787643  75.9472580  51.9665375  64.6310043
  24.7782269  42.6824379  28.6411877  23.8971043  42.6728325  29.0150375
  25.3583660  42.5562897  29.3920250  64.9227905   5.4887409  42.7418823
  63.9716454   5.4089518  42.6698761  65.2569885   5.1133914  41.9272270
  39.9143448  18.8597641  70.3955917  40.5363617  19.1602478  69.7329941
  39.9720421  17.9048710  70.3627243  21.5659389   6.5106959  27.4647617
  21.1348095   6.8223348  26.6689987  21.0274734   6.8525825  28.1784840
  35.4558029  66.4224396  16.7651253  35.6676712  67.3476181  16.6410580
  34.5886345  66.4275665  17.1703682  46.2037964  20.1757469  42.5124588
  47.0954895  20.0081463  42.2074547  46.2745476  20.9776516  43.0303154
  59.8640251  32.3437843  57.7189903  59.0392265  31.9103489  57.4997292
  60.5362244  31.6889038  57.5305519  67.3830566  64.1908798  12.9828949
  67.5025101  63.6653786  13.7739754  66.6282349  64.7468033  13.1763592
   2.4247413  21.3187408  81.4380035   3.3384321  21.5928001  81.5173340
   2.0066004  22.0206184  80.9392471  30.3878136  48.2476234  42.7342453
  30.1028557  47.3436699  42.6004791  30.8187809  48.4868088  41.9137001
  80.9768982  64.3737259  20.9836254  81.3283463  65.1405945  20.5312634
  81.7498016  63.8644485  21.2275429  46.2249184  68.8272247  12.1765261
  46.9153404  69.4448090  12.4176550  46.2510300  68.1593094  12.8616772
   5.3948917  37.5478935  20.6186619   4.7980390  37.3427238  19.8990059
   5.3887253  36.7627716  21.1661797  85.4515991  18.2111759  79.4534836
  84.7464066  18.8523216  79.5421600  86.2396545  18.7384853  79.3225479
  69.7626114  49.6189384  47.9833870  70.6239014  49.2660637  47.7600098
  69.9477539  50.3385162  48.5868454  79.2651138   2.3611379   0.8628134
  80.1891937   2.5867705   0.9695995  79.1271667   1.6268557   1.4611702
  52.8910713  17.0826626  56.7777443  52.5731544  17.1170254  57.6799507
  53.8423347  17.1547184  56.8560944  68.4020691  50.4695625  80.1088333
  68.9903488  50.0477448  80.7351151  67.7342758  50.8881950  80.6520004
  46.5503845  54.3092232  62.2650032  46.5775146  55.1680908  62.6867180
  45.6649895  53.9872017  62.4341545  86.8407288  42.8702087  57.3215675
  86.8942413  43.3195267  58.1650581  86.5319443  43.5406952  56.7121964
  33.9939690  55.8557854  45.6441650  33.1474838  56.2995110  45.5912247
  34.5287018  56.4252052  46.1973839  51.4157257  30.1748810  13.2698011
  50.8090439  30.3920097  13.9776325  51.2074394  30.8001232  12.5755949
  14.1837873  43.2674789  67.6011963  14.6031342  42.6100769  67.0460358
  13.4038801  43.5311165  67.1128616  64.2652740  16.9200058  57.5587044
  63.7232857  16.1383114  57.4517746  63.9395714  17.3294735  58.3602562
   6.0880671  30.7373791  84.6184082   5.9369507  30.4662857  85.5238953
   5.6423907  30.0735931  84.0921097  36.0160065  68.9243622  48.2205887
  35.4192505  69.2432938  48.8976402  36.8843956  69.1922989  48.5211563
  78.0202255  15.5761995  45.3834343  77.6486816  14.7422371  45.6709976
  77.3185806  15.9905214  44.8811874  85.2856903  31.6984558  67.6543732
  85.9756851  32.3573570  67.5770493  85.4817581  31.2411556  68.4720917
  29.5996628  20.5608902  76.7685318  28.7193871  20.5028629  76.3970718
  29.9231548  19.6600533  76.7598419  29.9073410  43.3229942   6.3381271
  28.9641800  43.4186935   6.4704919  30.0863132  43.8066101   5.5317044
  79.6370392  48.1408882  52.7376328  79.9882355  47.3948059  53.2236900
  80.3377075  48.7926407  52.7601204  72.8188171  23.0694542  57.0431747
  72.9367218  23.9992352  57.2376976  73.3028412  22.9318542  56.2289162
  69.4560776  15.9815512  59.2068214  69.6214828  15.0405035  59.2642784
  68.6229553  16.0502663  58.7405396  55.7890091  46.7247620  74.9557877
  55.8449059  46.9362793  74.0239258  56.6239815  47.0200386  75.3189240
  83.3402176   0.6884864  47.8307686  82.6756287   0.5532702  48.5062523
  82.8427811   0.7585056  47.0159760  21.5201931  30.3657608  78.6414490
  21.0168743  30.1102295  77.8684006  20.9663391  30.1161022  79.3811417
  16.1114540  42.8097229   7.6716537  16.5818176  41.9830055   7.5642705
  16.7970200  43.4543266   7.8469081  78.5060883  67.9478226  62.7337227
  78.7246933  67.2363663  62.1318321  78.4898682  68.7307587  62.1832809
  67.6587372  22.9413166  34.3626251  68.4774551  22.4915962  34.5716286
  67.4179077  23.3894749  35.1734161  86.6655426  36.6827850  14.7587719
  87.0134277  35.7911720  14.7435246  86.4534836  36.8728027  13.8449039
  79.6912155  47.9552498  22.3285770  80.5030365  47.5455055  22.6273918
  79.0316544  47.6687012  22.9603214  11.9013596  30.1897182  85.3003693
  12.1552629  30.8213501  85.9732819  11.3190317  29.5791969  85.7524643
  86.1581726  59.6260033  56.9651985  85.9244766  60.5486221  57.0671577
  87.1011734  59.5984764  57.1270981  43.7698517  32.9424095   9.8247156
  43.2024994  32.2364082   9.5150309  43.3539543  33.2476959  10.6309795
  38.4674683  51.3682213  40.4324417  38.9047890  50.5211678  40.5189552
  38.6661453  51.8249397  41.2498550   8.4978275  61.6551514  11.1794815
   8.9934206  61.5130386  11.9859695   9.1664858  61.7536888  10.5016785
  57.8895226  13.8930588   3.5651114  58.2141953  14.5383129   4.1931767
  57.0377998  14.2331419   3.2909853  68.7209930  43.2554626  59.6082039
  69.6619034  43.3932877  59.4990120  68.5782852  42.3494148  59.3344460
  27.6876392  61.7847481  20.4492435  28.0016232  61.3389626  19.6625271
  28.4814911  61.9783325  20.9477959  65.4476242  61.6985016  44.9176369
  65.9871750  62.0381355  44.2036591  65.1314240  60.8535233  44.5978432
  50.7614517  34.8084259  22.5371265  51.6642990  34.9748154  22.2661819
  50.8323936  34.5347900  23.4516335  19.3456764  53.3954315  35.5673409
  19.4256516  52.9995689  36.4351692  18.4375610  53.2323494  35.3124619
  56.8746948  50.0274086  23.2514858  56.1740913  49.6054230  22.7541771
  57.6724739  49.5815430  22.9669189   1.7656358  43.7817802  41.6671982
   2.0207589  42.9346581  42.0326157   2.2681038  43.8536720  40.8556633
   7.9395719   2.4961462  81.8886032   8.3549948   1.7843844  82.3754807
   7.4510403   2.9857531  82.5503082  53.2072144  45.1946335  72.7883987
  53.6330185  44.3399315  72.7220154  53.2701569  45.4221802  73.7160263
  26.1820755  30.6705742   4.2271719  26.5328007  30.2121220   3.4635978
  26.9007187  30.6673374   4.8594489  26.8446903  60.5200882  76.4258499
  26.0587940  60.9349518  76.7814941  27.3752842  61.2487450  76.1037292
  44.7144127  47.1555367  62.1555138  45.4544830  46.7805557  62.6329231
  44.6318741  48.0442696  62.5013008  52.9035454   2.3747206  66.9283905
  52.1745453   2.9732013  66.7652664  53.6033707   2.9353728  67.2632751
  84.4717560  38.3578224  30.2077599  84.6433029  37.9139481  31.0382900
  84.1194153  37.6734810  29.6387539  48.2632179  12.6212587   2.4228635
  48.3102455  13.5618086   2.2514429  47.4376945  12.3461008   2.0240707
  12.3331575  65.4836960  29.5879326  12.3228397  66.2538071  29.0195560
  11.6264172  64.9307022  29.2548466   4.2025332  43.5079269   9.6215067
   3.7609110  44.2450447  10.0432396   3.6322334  43.2742500   8.8891239
  20.8527374  32.9402237  82.6416702  21.5837822  33.5372391  82.4823685
  20.3522301  32.9513817  81.8258286  13.3008375  13.3853302  79.8454132
  13.0765257  14.3002300  79.6754837  13.9529171  13.1707249  79.1783524
  47.8843994  18.5968342  75.2275391  47.9907875  17.6697235  75.0145111
  48.4406471  19.0530357  74.5961075  79.8936081   1.4149442  57.8889885
  79.0290375   1.2909026  58.2806168  79.8211136   2.2369306  57.4038963
  39.5145454  64.1537933  67.8012009  38.9080925  64.6847229  67.2849045
  38.9885254  63.8338814  68.5341415  26.0427856  48.8834381  60.2394562
  26.0470352  49.3154411  59.3852997  25.3906898  49.3652077  60.7482796
  17.1131248  51.8011780  73.7118759  17.7981796  51.1605949  73.5206070
  16.5858021  51.3905373  74.3971024  11.2294607   9.5968246  68.3418961
  11.1646299   8.6434813  68.2856445  11.5183554   9.7647333  69.2388763
  14.7652216   3.7022920  62.4288025  14.9178057   2.9563837  63.0089493
  15.4222631   3.6076849  61.7391777  46.1993637  60.5886536  67.4111176
  46.0961952  61.4574394  67.7994461  46.8736420  60.7040977  66.7416000
   8.9564009  51.4725609  87.6971283   8.7380009  52.3314972  87.3355179
   9.2089596  51.6512222  88.6029587  15.2445097  51.2560234  29.0142059
  14.3849983  50.9304962  28.7468014  15.7123852  51.4005394  28.1917458
  57.5889168  16.0590687  50.1404228  57.5009956  15.1059618  50.1497612
  57.3918457  16.3265839  51.0381050  70.3359604  43.8902855  18.4426651
  70.6453705  42.9861374  18.4976139  70.3815613  44.2141304  19.3422623
  50.3122673  63.7791939  17.4470844  50.3339767  62.8260422  17.5322762
  50.8684349  64.0960007  18.1588020  44.5466270   4.8160968  77.4557419
  44.3148155   5.7173548  77.2316284  44.0977707   4.6525326  78.2852020
  74.7880478  43.1458321  22.7825127  74.4182358  43.4192505  23.6219826
  74.0401688  42.8074760  22.2901459  11.4037151  36.3129578  85.4431534
  10.5213766  36.3180847  85.8142166  11.4534273  35.4911728  84.9548645
   8.5536222  46.3454094  18.3659515   7.8572397  46.6760597  18.9333611
   9.1730461  45.9286385  18.9649906  32.2247276  64.6245956  69.7546310
  31.6891880  65.4086456  69.8758469  32.3195839  64.2608795  70.6349411
  38.1171951  44.2276077  22.3576088  38.0763855  44.6558914  21.5025425
  37.4971733  44.7154350  22.8996639  20.6873474  65.6223602   6.3069482
  20.2584171  66.1964035   6.9415526  20.5625782  64.7409134   6.6586838
  73.6101456  51.0111465  75.1117554  73.2983704  50.1265755  74.9205551
  72.8119659  51.5264015  75.2285767  36.5564690  42.3967819  85.0160599
  36.3134727  41.6843529  84.4247665  35.8669395  43.0504036  84.8996277
  13.2697706  56.9273567  67.1063538  12.4324389  56.8476906  66.6494522
  13.0364742  57.2361298  67.9818344  17.7858620  49.6074066  34.5328255
  18.1720409  48.7698593  34.7889824  18.1897449  49.8092155  33.6887970
   3.5403075   2.2844911  38.0137062   3.1844661   3.1319196  38.2810516
   4.1696196   2.0617876  38.6997070  76.9647522  45.2407722  38.3942337
  76.0623245  45.0914993  38.6763344  77.3888779  45.6440163  39.1516876
  42.9855728  51.2823677  20.2132835  43.8442726  50.9113312  20.4162502
  43.1395111  51.8389282  19.4498863  65.2696915  57.9411125  11.2381592
  64.9557648  57.0420151  11.3346329  64.9017944  58.2351418  10.4048357
  16.9694862  70.1175003  73.4596481  17.4655285  70.9220734  73.6107635
  17.6162853  69.4173431  73.5471725  80.4822998  22.6121197   2.7985282
  80.0352097  22.9405231   3.5785897  80.1152802  21.7386875   2.6619837
  51.7656746  11.1595736   8.6274443  51.6470871  11.0782318   7.6811080
  52.0264053  12.0711813   8.7586756  35.5141716  65.2698364  82.7450714
  35.2235718  64.4232178  83.0842209  36.4617500  65.1762085  82.6473007
  72.7070465  45.3276329  76.0943985  72.8405380  44.9725113  76.9732056
  73.5816422  45.3398056  75.7055893  69.6234283  48.7168045  56.5054398
  70.2675171  48.3175430  55.9206543  70.1453018  49.1015167  57.2096214
  77.9372787   3.9848914  61.0521202  78.1301346   4.7633557  60.5295944
  77.8185806   3.2871969  60.4076309  75.5567093  25.6039181  81.9296188
  74.8090591  25.1980133  82.3683624  75.9828644  26.1219025  82.6124878
  27.1539688  66.4090195  41.8065643  26.8425388  67.2400970  42.1650925
  27.7986641  66.6601028  41.1450844  52.0580940  61.2448425  26.0965481
  51.1256447  61.1008034  26.2578640  52.5007935  60.6744881  26.7249947
  35.4632301  62.8640938  63.5792847  35.0611572  61.9957314  63.6020203
  36.1741104  62.8156891  64.2184525  41.7135696  63.1224518  86.8065262
  41.6710968  63.3700409  85.8828812  42.0752296  63.8928490  87.2446213
  43.6293068  62.7904663  66.8665695  44.2728348  63.2445183  67.4105759
  43.1031113  62.2870369  67.4877930  85.3003769   1.9849868  45.1826286
  86.1058960   2.0593381  45.6943283  85.5967865   1.7604852  44.3005981
  14.8441572   1.0493205  37.2441635  15.5935078   0.4823411  37.4264870
  14.6182146   1.4282204  38.0936432  51.6080971  69.2129593  30.0134945
  52.3382492  68.7219162  29.6366825  51.1390381  69.5634460  29.2562809
  83.9407501   9.7316389  56.5450974  84.1958771  10.1788502  55.7381592
  83.1127167   9.3025208  56.3295898  70.6939163   5.9095197  31.1957340
  69.9966125   5.5372968  30.6558685  71.3788757   6.1481729  30.5711479
  26.0251865  40.2538986  43.1073990  25.9084721  41.0419388  42.5767441
  26.8099327  39.8384552  42.7498894  69.4757080   1.4044565  63.8441696
  69.7647552   1.0863992  62.9888763  68.7045288   1.9383039  63.6530800
  74.3236160  30.4710522  12.9008160  74.9107666  30.9844990  12.3459702
  74.5500870  29.5605793  12.7111397  36.6354485   9.4636755  10.2846851
  35.9933090   8.7538280  10.2873726  37.4235153   9.0723219   9.9078255
  85.2946701  29.7481880  15.6603479  86.0601959  29.4886990  15.1476393
  85.0876160  28.9772320  16.1885376   7.1611385  65.3911133  25.8645306
   7.7490692  66.1454773  25.9033527   7.0664167  65.1141205  26.7758675
  49.1918526  61.2130127  17.8015404  48.3292694  61.1420479  17.3927040
  49.0273972  61.0715523  18.7338352  43.8436813  55.5555992  58.3907967
  43.2610245  55.1866264  57.7270164  43.6607018  55.0459480  59.1800995
  60.1086235  23.7567158  58.4327736  60.1106873  24.1394215  57.5554123
  60.9757500  23.3617020  58.5238152  68.4579697  27.9150085  49.1992569
  68.9701614  28.0652161  49.9938164  69.0606995  27.4650593  48.6072388
  42.4643936  68.9105988  28.9976139  42.5648041  68.3008423  29.7286015
  42.8113403  69.7394028  29.3276787  18.4616299  26.8512383  30.1963310
  18.1068974  26.6169472  29.3387146  18.5864124  27.7992821  30.1530457
  10.9448204   7.5216303  78.7976379  10.2898407   8.0600834  79.2418213
  11.2912664   8.0868521  78.1071854  56.4868279  50.5969582  79.8978882
  56.5457840  50.3367615  78.9786224  56.7674408  49.8219948  80.3846283
  66.7043076  46.8178368   2.2096157  67.1861420  46.1797256   1.6834177
  66.9467163  46.6150932   3.1131442  74.7008362  47.0817261  18.7913780
  73.8435745  47.3767281  18.4842834  74.5584717  46.1755295  19.0648289
  37.0893135   2.4433289  12.6673069  37.3725624   1.7815709  13.2982416
  37.2594261   2.0475934  11.8125038  60.8768425  16.0117035  69.0095215
  61.4164505  15.3058977  68.6532974  61.0545425  16.7599850  68.4396744
  68.6616974  70.9192581  75.8640518  69.2938690  70.6467438  76.5291290
  67.8202057  70.9218216  76.3202515  54.3865929  34.1778908  28.0935535
  53.9369507  33.6782074  27.4121075  54.9751053  34.7609901  27.6140957
   9.7128859  64.6723328  62.5156479   9.2417660  64.7568436  61.6867104
  10.4204674  65.3141556  62.4555054  40.1452789  32.6583977  74.2686996
  40.7920914  32.1174355  74.7217102  39.7546616  32.0723267  73.6204910
  62.5275154  53.4457016  72.4695358  61.8501244  53.6722946  71.8323364
  63.1558189  52.9200020  71.9744492  61.3494301  63.4127235   6.5395188
  62.1396790  63.3838806   7.0788755  61.5915985  63.9546967   5.7886200
  69.4427872   9.2292814  27.2958698  68.6575241   9.1228199  27.8327751
  70.1446457   9.3885221  27.9269562  68.1570663  53.9968643  35.5706978
  67.5484390  54.7277946  35.4632263  68.9314880  54.2545166  35.0705757
  51.7156982  23.7688675  22.8322086  51.9550743  24.6787148  23.0085793
  51.4959564  23.7552776  21.9006729  23.1579857   7.7222924  15.6206293
  22.4516125   8.1152191  16.1333447  23.3331718   8.3585138  14.9272585
  18.4557457  42.7091942  56.1219559  19.2841034  42.4808922  56.5437775
  18.5942574  43.5946007  55.7856560  54.2049484  53.6350594  44.6884308
  54.7287827  53.8172417  45.4685783  53.3138962  53.5219307  45.0192795
  15.1744165  66.7679291   6.4316587  15.6391935  66.3356247   5.7151904
  14.2486725  66.6103363   6.2462006  16.5200996   4.3670936  60.5388069
  17.1086807   3.6372697  60.7315826  17.1003761   5.1206203  60.4306068
  25.0473194  48.1552963  56.1101685  24.4921417  47.3766823  56.1523056
  25.8482704  47.9035149  56.5698586  23.0765514  17.0465565  17.0859947
  23.6090603  16.6006584  16.4273300  22.1923122  17.0461597  16.7194557
  53.3132019  46.6994820  42.3198891  52.9884033  45.8013573  42.3840141
  52.7721214  47.1019173  41.6405449  16.6917133  35.9972610   6.6522036
  16.1373329  35.9821930   5.8720322  17.3912868  35.3725395   6.4610186
  74.2443619  39.6586990  73.3517151  73.9988480  38.7448196  73.2075500
  74.6521606  39.9297562  72.5292511  81.9457474   8.4856462  11.4974661
  82.5859985   8.1061811  12.0993900  82.4089584   8.5461054  10.6619940
  58.6862602  53.2550201  46.8709030  58.6940002  53.6473541  47.7439690
  58.7883492  52.3165283  47.0291367  69.7717133  10.7842512   3.7551105
  69.8306198  10.3394594   2.9095805  68.8566742  11.0579720   3.8185086
  28.2570057  44.5845299  73.7501450  28.8083534  44.9220886  73.0442429
  27.3883133  44.5016327  73.3567886  68.2158585  68.7544403  69.0804825
  67.6668167  69.2691879  69.6719437  67.6357956  68.5243454  68.3546600
  61.7984085  67.0795212  50.0367889  62.1638870  67.8873444  49.6761246
  61.2316971  66.7423477  49.3429680  53.2641525  48.3343658   7.5708070
  53.3872490  49.2529831   7.3316031  52.7966690  47.9538193   6.8272505
  56.2350807   9.0910864  42.2878380  57.1831970   9.1465893  42.4071045
  55.8717079   9.5771646  43.0280533  44.1031342   4.6974125  31.3674488
  44.8920403   4.1864023  31.1865387  44.1812515   4.9400139  32.2900963
  11.7677689  59.7018471  70.9434357  12.5872097  60.1227722  71.2033844
  11.1783304  59.8477287  71.6833801   2.2091835  33.0239182  42.4083748
   1.6853936  33.1890411  43.1923447   1.6044285  32.5964661  41.8019180
  37.6533623   0.8164213   7.2845201  37.8902245  -0.1078890   7.3605361
  36.7453880   0.8564801   7.5848665  37.4039726  54.5091972  78.2690659
  38.0790558  55.1570435  78.0670929  37.8799934  53.6819420  78.3417435
  82.4261932  59.4637413  10.9460268  82.8352203  60.0444069  10.3043480
  83.0085526  58.7052498  10.9881592  11.2877417  67.0570526  69.7210159
  10.9586229  67.5507126  70.4721603  11.2616825  66.1432953  70.0049133
  78.5016937  22.9773140  77.1548538  77.6370773  23.2432213  77.4678345
  78.3288345  22.5247269  76.3293152  70.3814087  67.4279938  70.3303604
  70.1113586  66.5738831  70.6676865  69.6422119  67.7193069  69.7965469
  49.9732742  34.0659599  12.4524593  49.0901871  33.8659172  12.1420183
  49.8387947  34.6610680  13.1900196  68.8348389  61.7310867  13.7487879
  68.8126831  60.8347549  13.4136391  69.1660843  62.2521667  13.0173616
  65.6647949  38.4072456  15.5585747  65.8050461  39.0489349  14.8623018
  64.7401199  38.5006638  15.7876787  53.1270714  16.3419228  68.5505371
  53.3063507  15.4182806  68.7265396  53.7823601  16.5933056  67.8996658
  17.2660332  59.7140465  13.9596958  16.6302643  60.3598976  14.2677679
  18.1140041  60.0625420  14.2348852  47.1615753  46.3016815  63.4288254
  47.2154999  45.7998009  64.2421188  47.7809296  45.8706551  62.8398857
   7.3711739   1.4486250  50.2325439   7.0446825   1.7277267  49.3771286
   6.6366444   0.9789718  50.6276703  82.3888397  70.8141937  45.3576126
  81.5912781  70.6030350  45.8429298  82.4821930  70.0995331  44.7277031
  56.4748192  66.2990341  29.1969185  56.7560921  65.4516296  29.5419025
  57.2880020  66.7376556  28.9467659  45.3273201  25.8377628  78.7785187
  44.6925392  26.5393620  78.9235992  45.0316353  25.1260757  79.3462372
  11.0615749  59.0376129  42.0833588  11.9018669  59.0915718  41.6281357
  10.7924805  59.9489937  42.1982841  19.3537579  38.8262787  66.1613541
  19.0625954  39.4448166  66.8313293  18.5439796  38.4948921  65.7731857
  24.6655159  36.8439751  77.2683334  25.1095505  37.0840988  76.4550705
  25.2600975  36.2250099  77.6921158  16.7809677  42.6891251  73.6546707
  17.5674591  43.2303123  73.5855179  16.3494663  42.9945450  74.4526367
  15.7896633  59.5528679  35.2054939  15.8412580  59.9445953  36.0773430
  16.6361752  59.7493134  34.8041763  33.7929268   9.4863472   6.5064578
  34.4047813  10.2224264   6.5138030  32.9453697   9.8814440   6.3020606
  25.5117760  48.6522179  82.4271240  24.6122799  48.9550400  82.3028717
  25.4229469  47.8267632  82.9035339  66.5543900   8.7711620  61.3713150
  67.3663025   8.3907499  61.0361786  66.3526077   8.2553778  62.1520081
  79.3488693  42.0083923  26.1643200  79.6621094  42.7449837  26.6892433
  78.5643692  42.3413467  25.7285061  37.4924660   7.1636672  21.4129066
  36.8946877   6.5370908  21.0051136  36.9512634   7.9343567  21.5842781
  75.3145294  39.6507034  35.6635246  75.2052155  39.8030281  34.7248650
  75.0795364  40.4846191  36.0704613  67.3012314  62.7577095  15.7405891
  68.1215057  62.4876747  15.3277149  67.5293961  63.5456963  16.2337971
  75.0619812  52.7018356  84.5595779  75.1382141  53.4110336  83.9212494
  74.2747421  52.9144058  85.0608826  64.7374344  15.8953037  60.7048454
  64.4102478  15.8251724  61.6016502  64.6734543  16.8278713  60.4987907
  11.7281990  48.0952377  26.5277023  12.1455173  47.2428246  26.6520863
  11.4802752  48.1079178  25.6032543  85.9151993  45.8587646  31.8987122
  86.0898972  45.0492096  32.3786354  85.5237579  46.4426384  32.5484047
  10.3541594  62.0963707   9.2834482   9.7336769  62.1882515   8.5604057
  11.0742245  62.6851387   9.0574150  49.1605949   1.9595245   7.4496279
  49.6866531   1.5627800   8.1439543  48.3758354   2.2777507   7.8958497
  63.3372307  66.9044800  16.7173100  63.1366272  67.1707077  15.8200283
  62.7238617  67.4024658  17.2576981  13.4419270  20.0177536   5.7035837
  13.1020384  20.8105373   6.1185570  14.3825264  20.1749630   5.6211824
  81.0640488  12.1347818  21.4581585  80.6635742  11.7332792  22.2292919
  80.4475021  11.9567184  20.7479515  14.5027046  20.3064880  20.8868866
  15.2070122  20.2518864  21.5327969  14.6106558  21.1695194  20.4871902
  16.2118893  31.1646500  84.2813492  15.6277590  30.4093933  84.3492661
  16.9029350  30.9912167  84.9205780  30.4638252  10.9981890  70.1855774
  30.5295601  10.1832151  70.6833038  29.8234882  10.8089809  69.4997253
  60.2450981  48.9008331  41.4506798  60.2420235  48.3996887  40.6351547
  59.3792267  48.7479630  41.8290062   6.6342673  24.3433418  58.8200188
   6.4134426  23.8132839  59.5858574   6.4541245  23.7721272  58.0733643
  71.1612320  51.7206573  27.7010078  70.4656143  52.2772522  28.0510750
  71.6296692  51.4075317  28.4747982  44.1882591  71.1044540  79.5297546
  43.9186058  70.3937912  78.9479599  43.5231209  71.7814255  79.4051666
  71.4701462  41.0979195  74.0228195  72.1390839  40.7858620  73.4134216
  71.9298325  41.1878166  74.8575897  48.9627075  67.3249512  77.7600784
  48.4543533  67.0236511  78.5130920  49.6874466  67.8194580  78.1427536
  22.1361809  53.8642540  46.3019257  21.6801567  54.1580009  45.5132675
  22.8070221  53.2619133  45.9803772  33.0426292  32.5663414  17.5511608
  33.2177849  32.4174385  16.6219788  32.3788948  31.9147282  17.7771969
  37.1329842  67.4230347  25.1367512  36.5658913  68.0769958  24.7281322
  38.0119705  67.7972336  25.0768147  37.9270859  44.2785149  69.1685944
  37.7644882  43.4776535  69.6669998  37.1327553  44.7994423  69.2865143
  15.5267591  60.2294655  82.2487030  15.3870487  60.1578217  83.1929398
  15.5648508  61.1714478  82.0830078  73.8308716  11.6797800  77.2650986
  73.3378525  11.4049931  76.4920120  73.3476028  12.4343843  77.6016312
  33.6910591  36.4457359  72.9050980  34.0464554  35.7542152  73.4634247
  34.2278938  36.4138451  72.1132507  84.0612869  23.0897465  36.3552170
  83.6948166  23.2705269  37.2208099  83.4994049  23.5751076  35.7511063
   1.3171995  57.8498192  30.9436321   2.0796061  57.8662834  31.5221615
   1.6599128  57.5422821  30.1044636  18.6671925  66.2164230  50.9499817
  19.1867065  66.4023590  50.1678276  17.8102951  65.9561081  50.6120529
   4.0299067  60.2124443  19.9972668   4.5753078  60.2925339  19.2147369
   3.2096148  60.6465530  19.7629509  62.2273788  68.4975967  79.1757278
  61.4050980  68.2048721  79.5686569  62.8575172  67.8132248  79.4010925
  36.7570190  54.1175385  22.1769333  36.8440132  53.3788147  21.5744820
  35.8166275  54.2938042  22.2055531  22.9553776  40.9085960   6.7106218
  22.7259789  40.1136856   7.1919975  22.1269207  41.2105408   6.3381705
  57.0861740  60.4020271   5.2481470  57.2233429  60.9162979   6.0437245
  57.5480232  59.5797615   5.4118681  84.2587433  69.4088211  66.2548981
  84.2753677  69.9848557  65.4906082  84.0110931  68.5531540  65.9045792
  82.7338867  16.2063007   0.5915495  82.4951401  15.3180227   0.8564982
  83.4583511  16.0865345  -0.0224790  70.7189026  14.1616802  50.4035835
  70.1747131  14.8127451  49.9606323  70.1001053  13.4947443  50.7011032
  65.8521423   6.2082443  38.2830048  65.0502167   6.7095370  38.4308281
  66.2639923   6.1554222  39.1454544  74.2613754  30.3552036  89.3103027
  73.6063690  31.0397358  89.1738892  74.3651733  29.9482040  88.4501801
  63.5956154   2.7473705  77.5229340  62.7711830   3.1999102  77.3447647
  63.4137077   2.2139983  78.2966614  51.0824966   8.7116632  62.9079628
  51.2888985   7.8167057  63.1775589  51.8663063   9.0095205  62.4462776
  41.8475494  15.0114222  76.1232605  40.9226227  14.8598337  76.3175964
  42.2002792  15.3986807  76.9244156  20.9319839  43.3648605  77.1278381
  21.7445755  42.9520073  76.8354721  20.6099148  42.7928963  77.8245163
  57.5530128  46.1493187  37.3402519  57.1829834  45.8090897  36.5256653
  58.3945503  45.7014275  37.4264946  78.9371490   4.9489098  47.7278061
  79.8701630   5.0325136  47.5310097  78.5201950   4.8461528  46.8723412
  17.4797878  52.9730988  46.6551666  17.3129826  53.9028130  46.5001106
  18.1601467  52.9608498  47.3283653  58.8084679  25.9681797  88.8818893
  59.0324554  25.6676140  88.0011444  58.5332794  25.1756058  89.3426819
  74.6954346  57.2647362  25.4579811  73.7968445  56.9353294  25.4417133
  75.2180099  56.5534744  25.0875092  33.3602829  17.4268475   2.2501221
  33.1131516  16.9896450   3.0649922  33.9477386  16.8087368   1.8153042
  23.1358547  53.2179031  18.4200363  22.4771309  52.5298691  18.5144825
  22.7538891  53.8305321  17.7915268  18.4933434  63.1964188  57.3072472
  19.3993034  63.4624786  57.1501541  18.1191254  63.0924225  56.4323883
  69.0109558  46.3981743  19.7627945  69.0116806  46.9166527  20.5674133
  68.2524796  45.8209000  19.8505325  65.0790176  22.3709507  11.6579323
  64.9131775  21.4872742  11.9863272  64.2089386  22.7261372  11.4761839
  61.5461807   6.8078098  33.5779533  60.6461678   6.6182508  33.8430481
  61.6014099   7.7633967  33.5839348  85.1174164  69.7961349  20.7788544
  84.6162262  69.4152603  20.0577602  86.0323181  69.6540604  20.5359364
  44.4789009  58.8184738  76.1857986  44.4222260  59.2461662  75.3313370
  43.8919220  58.0655861  76.1161957   2.1121044  24.1989460  22.1404800
   1.1784140  24.1305294  21.9410496   2.2801664  25.1404381  22.1802311
   1.3398962  22.9806385  10.0419884   1.7338448  23.4658775  10.7669554
   0.8942983  23.6485348   9.5208483  49.0628738  15.1117735   7.9743843
  48.9750519  15.7248707   8.7041998  48.8668480  15.6349525   7.1971526
  74.8661118  15.8222055  21.7758503  74.9863968  16.1151791  20.8725624
  75.4289703  16.3994236  22.2918301  69.5381927  57.3902206  57.2013321
  68.7473831  57.4671288  56.6675301  70.2054443  57.0672493  56.5957832
  60.4691811  39.5008698  43.1605377  60.3174477  39.0611839  42.3239441
  60.5321999  40.4290619  42.9353218   7.0325418  10.9609118   0.8079859
   7.1309867  11.7777395   0.3187695   6.0952220  10.7705584   0.7701719
  22.5541096  26.0167751  25.1923599  23.2162075  26.4919586  24.6903057
  23.0479450  25.5782738  25.8852348  20.7516556  63.1681175  32.5537834
  20.0078640  63.1653709  33.1562767  20.9076042  64.0944748  32.3700104
   5.6327043   1.9175115  80.7540588   6.5598755   2.0196948  80.9688721
   5.3657556   1.1232655  81.2168198   3.7226138   9.4309187  77.6337585
   3.4757307   8.5159245  77.7681732   3.0043333   9.7997694  77.1197052
   6.4523702  62.8665466  32.0862579   7.3812885  63.0947685  32.1217270
   6.0411038  63.6056099  31.6380615  39.6286621  62.2106590  43.0664520
  39.8844757  62.7811165  42.3416290  39.5789719  61.3372993  42.6778564
  30.7628288  10.1376200   5.4956684  30.7089291   9.1911154   5.6277876
  30.1768379  10.3103466   4.7587738  32.6622620  49.4841805  30.3250561
  33.4521484  49.1756401  29.8810749  32.4501572  48.7885857  30.9474659
  21.5857964   0.6286983  71.5464249  21.0120277   1.1919894  71.0270767
  21.3975468   0.8669069  72.4542007  28.5224361  56.6968384  84.7372513
  28.2140255  57.2395554  84.0115967  28.5798512  55.8150520  84.3693008
  53.1871185  18.9700222  65.4026031  52.2517700  18.7670803  65.3895340
  53.3899841  19.1050930  66.3282547  49.1830101  55.4119492   7.0555682
  48.7610703  55.5733986   6.2116899  49.7994423  56.1370697   7.1577559
  79.8477173  28.5409794  85.5036926  80.6957321  28.9466057  85.6841965
  80.0595245  27.6376114  85.2685471  47.5541153  27.4194946  55.1146164
  47.0071106  28.1966534  55.0004158  47.6859970  27.3563290  56.0605812
  35.5849686  29.3662720  68.1951294  36.2064209  29.0084000  68.8291245
  36.1337624  29.7187710  67.4945526  34.2946777  62.2348022   6.4171014
  33.6363487  62.5669060   7.0274596  34.9308052  61.7843666   6.9726973
  10.4247503  55.4479752   0.0171435   9.7200880  55.9436913   0.4342146
  11.0721178  56.1099586  -0.2256001  47.1533928  10.9308577  61.2990723
  47.5738411  10.1256227  60.9973221  47.7201843  11.6320019  60.9775505
  51.8739738  34.0988388   9.7291861  51.6100578  33.2531319  10.0916290
  52.7719421  34.2216606  10.0370893  74.7846985  31.0500107  38.3405838
  75.5306702  31.6490326  38.3100433  74.0473480  31.5691566  38.0195961
  15.8520689  60.2376747  46.5511475  16.5252876  60.8190231  46.9047623
  16.3385906  59.4867439  46.2111015  23.4783154  55.1263580  28.7211132
  23.1229763  55.7247963  28.0639687  24.1216183  54.6017952  28.2444305
  22.5956554   5.8476171  43.1398430  23.3679619   6.4008403  43.2569656
  21.8561611   6.4520082  43.2038116  46.3231354  36.9040871  15.0661488
  46.2332993  36.8248100  16.0158195  47.0170631  37.5520782  14.9444761
  71.1790314  19.1561089  49.4885139  71.2840347  18.9042511  48.5710335
  70.4433136  19.7684402  49.4861031  45.6271973  66.7700195   9.8892632
  44.8078270  66.2889709   9.7732744  45.7841187  66.7516937  10.8333349
  60.8515053   4.6571708  16.3370361  61.3198051   4.9313192  15.5485125
  60.1170387   4.1372018  16.0108089  61.3614655  46.2097473  25.7068825
  61.9260750  46.9744110  25.5940304  61.4898834  45.9497337  26.6190948
  74.8868179  67.1664963  54.9142036  74.6539917  66.7607040  54.0791283
  74.4988861  66.5933228  55.5754280  62.8773918   9.2638683  70.5793381
  63.3843269   9.4731541  69.7948303  63.1212616   9.9414568  71.2099152
  24.3115978   8.5992413  21.3934975  23.9365387   9.0225821  22.1657295
  23.5703621   8.1582718  20.9783516  52.5054283  13.7432194  32.0896988
  53.2808380  13.2499228  31.8220596  52.7811203  14.6592617  32.0566444
  12.7949781  59.4628410  16.3034229  13.1020746  58.5576019  16.2537518
  13.3497667  59.9382439  15.6850109  57.1808014  41.5188904  52.2231445
  56.3312340  41.5373077  52.6637459  57.0175591  41.9234428  51.3711357
  72.7572556  37.0361633  76.3455887  73.1569290  36.1985092  76.1114426
  72.2893524  37.3073654  75.5558090  24.8695850  55.3067856  32.4105339
  24.1530781  55.8547859  32.0903091  24.4365826  54.6126366  32.9074249
  36.5802879  30.1876602  72.6151047  35.8175507  30.7326450  72.4215775
  36.5176697  30.0127831  73.5541077   8.1050196  40.0523148  71.6799774
   7.5892210  39.4758873  71.1161423   7.4582396  40.6234245  72.0943985
   5.3583722  39.8452415   9.4862556   4.4187565  39.9703445   9.6193056
   5.6326003  39.2933617  10.2186909  58.2882729  70.8194962  41.6349831
  59.1876183  70.9658966  41.3417702  58.2667656  71.1694641  42.5256500
  12.4020939  35.8466301   9.2217741  12.4247913  36.7456741   9.5495481
  13.2402945  35.7338905   8.7735100  40.1106377   0.9272671  74.1240158
  40.5824738   1.7118247  74.4034271  40.6011848   0.6100901  73.3657303
  37.7683487  44.8687973   3.5419905  38.4632645  44.9202919   4.1982493
  37.1405754  44.2448044   3.9063592  69.0439606  35.9902039  68.8411636
  69.3141022  35.9099770  69.7559433  68.1983109  36.4370117  68.8794556
  51.0845451  54.5209999  75.4792480  50.4615364  55.0617256  75.9647446
  50.5420418  53.8651199  75.0413666   5.7328610   9.0394449  29.1759720
   5.4014740   9.9369402  29.2062550   5.3538413   8.6180248  29.9473209
  50.7388611  27.2014599  69.8084335  51.2266693  28.0113220  69.9580994
  49.8729401  27.4927292  69.5228271  11.6971416   8.2284355  24.1348324
  11.7971811   9.0928230  23.7360115  11.2371912   8.3959618  24.9573975
  69.0744705  10.6354218  44.5094337  69.9287720  10.8997307  44.8508148
  69.0791016   9.6799097  44.5660667  74.2504272  35.7967453  18.2704163
  74.1627502  36.5936279  18.7934093  73.6659622  35.9340210  17.5249023
  10.7139883  46.5600433  11.1135445  11.3733959  45.9549255  11.4530277
  11.1103649  47.4257927  11.2114754  65.0124969  34.1590195   8.2426147
  64.9423904  34.9686623   7.7368536  64.2537308  34.1745262   8.8259287
  23.1909657  46.9627762   1.7090740  22.9819431  46.2233849   1.1382470
  23.5232887  47.6366959   1.1160917  20.6276970  44.4006996  36.1372986
  19.8545780  44.2752533  35.5870399  21.1228428  45.0935822  35.7002869
  24.2295532  61.8537674  47.5367470  24.3533821  62.5930214  48.1320686
  24.1874123  61.0887032  48.1104469  18.1738567  70.7475815  84.5519714
  18.6226730  71.3175430  83.9275208  18.6796017  70.8325806  85.3601990
  29.9850903  67.8693924  80.0681076  29.9286404  68.1992416  80.9649048
  30.9058876  67.9782562  79.8303833  46.9155655  28.4060574  75.0261917
  46.3162422  27.7710552  75.4183884  46.9077377  29.1479855  75.6309357
  67.3596649  52.4548798  86.4945374  66.6212234  53.0514908  86.6169662
  67.0032272  51.5888329  86.6923981  24.5913067  32.7563744  70.0555115
  24.8765926  32.9805717  69.1697464  24.7583084  31.8168278  70.1303177
  81.9936829  42.1091843  65.9829788  81.6788864  42.4306297  66.8278503
  82.4276123  41.2810822  66.1883621  65.1480103  70.0632858  13.3957367
  64.2378540  70.1455612  13.1110010  65.4942322  69.3327866  12.8831635
  24.2278919  49.1508064   3.3404326  23.5562153  48.6639709   2.8628614
  24.0751133  48.9309921   4.2594390  59.9459801  14.6706820  44.2063675
  60.4862633  14.6026640  44.9935760  59.0713997  14.4072447  44.4926186
  66.5254059  66.9118271   6.0331964  66.2706528  66.5834885   6.8954749
  67.4618378  67.0933304   6.1130953  29.4178371  69.9128952  63.9665680
  28.9658051  70.6808853  63.6171570  30.0563850  70.2708130  64.5833206
  41.9994698  41.7601471  68.2541199  41.3964996  42.2192307  68.8388443
  42.7348938  41.5127602  68.8146439  64.3804092   8.3254375  29.0994225
  64.5893173   9.1608191  29.5174236  63.8868484   7.8426800  29.7624283
  13.9166784  53.4787674  65.7892151  14.8727427  53.4973488  65.7464600
  13.7034006  52.5665817  65.9858246  79.9503479  33.3985329  41.9612350
  79.6872177  33.6536865  41.0769920  80.1448288  34.2259750  42.4014015
  13.0642176  59.1589584  60.8325691  12.9760695  58.3149376  61.2753906
  13.1297569  59.7966766  61.5433769  57.5057945   5.6737928  61.4106750
  57.6399307   6.4587545  60.8795662  58.2491531   5.1099715  61.1967697
  22.0178528  66.1585617  19.8827877  21.6672344  65.4274826  19.3740387
  21.5209980  66.9195328  19.5823174  79.5841370  69.9539795  25.6085548
  79.0679169  69.1498032  25.5532513  79.3301849  70.4553757  24.8337383
  81.5778809  15.9981928  14.8359795  81.2402267  16.1074200  15.7249622
  80.8733215  15.5530224  14.3651791  44.4507141  71.2626038  14.6225872
  44.4764557  71.8632736  15.3674145  43.6275024  70.7856674  14.7278605
  75.0939484  41.4021683  78.6145782  75.0058975  40.8596497  77.8309021
  76.0065460  41.6907921  78.6047745  36.1735840  68.5413971  19.9834423
  36.7043724  67.8736267  19.5491848  36.6254120  69.3645782  19.7978153
  68.8119278  34.0207176  25.2329025  68.8574066  34.1331482  24.2834167
  68.4528351  34.8474617  25.5550556  17.9714184  55.0630798  51.3997459
  17.2830582  54.8687325  50.7636452  17.8087463  54.4559822  52.1216850
   1.6340390  54.0975151  25.0686188   1.4117138  53.5350456  24.3267078
   1.4671911  54.9860115  24.7540302  74.0243607  37.4328880   7.5714931
  73.8447571  37.0953255   6.6939821  73.2445145  37.9399071   7.7973275
  36.1142426   0.8361415  42.5532150  35.1574135   0.8436837  42.5275650
  36.3575630  -0.0052740  42.1671486  85.0669632  40.3820572  28.0111217
  85.9357147  40.4006691  28.4125652  84.7817154  39.4726334  28.0995083
  78.5817871  14.2462406  17.6861267  77.9057922  14.7217636  17.2032776
  78.0986099  13.7416983  18.3405018   1.2897905  17.6514854  28.7678757
   1.5646486  18.0807133  29.5780888   1.9273747  16.9489384  28.6408062
  12.8421812  61.8361359  22.9815826  13.5931101  62.4057465  22.8146000
  13.2183094  60.9588737  23.0535011  39.2612228  68.4912949  80.0300751
  39.8212662  69.2368393  80.2462845  39.8338165  67.7289810  80.1151810
  36.9987679  30.1592846  65.6887589  36.9897919  29.7140141  64.8414764
  37.7131653  29.7426586  66.1707230  57.1349106  14.0087729  67.4443207
  57.4880142  14.7616158  67.9184265  56.4722328  14.3813400  66.8627014
  68.5040741   4.9284105   0.6360289  68.9540482   5.7560740   0.8055164
  67.7761154   4.9199152   1.2575115  19.2308636  51.4886169  29.0752869
  20.0778103  51.1052971  29.3032722  18.6407452  51.1958923  29.7697678
  32.9111061  53.2761497  82.9826889  32.4155045  53.9597664  83.4335556
  33.3556290  52.8003311  83.6842804  30.5265541  43.1015167  54.6959076
  30.4295979  42.2660217  55.1528282  31.1149387  42.9084625  53.9659996
  53.6891479  60.4861031  57.1456528  54.2310448  60.5736389  57.9298172
  54.0801544  61.0913162  56.5155220  26.5104961  41.4675369  68.3526611
  25.9067993  41.4722176  67.6098633  27.3535614  41.7222862  67.9777298
  66.7597275  46.6080551   4.7820492  66.4999390  45.7218094   5.0336533
  66.6373520  47.1280975   5.5762849  11.7509699  37.5576591   6.6320524
  11.2138376  37.0197716   7.2137723  12.0991764  38.2473259   7.1971598
  25.7668495  63.2936440  83.6659927  25.3852291  63.8793945  83.0121613
  25.4946232  62.4180984  83.3911514   3.3340342  53.7550621  87.2789993
   4.1454039  53.3009415  87.5063400   2.7160909  53.0533218  87.0742111
  48.1823845  61.6125069   0.8493423  49.0052414  62.0472565   1.0732437
  47.8667946  62.0805969   0.0763432  68.2067871  45.7705002  89.2548752
  67.8773804  45.9151039  88.3678513  68.9880295  45.2305260  89.1351852
  75.3084183  42.9286003   2.3992476  74.8269730  43.5675812   1.8737564
  75.5288391  42.2295799   1.7835993  29.4765244   5.3725405  19.0615807
  29.8193665   5.7552328  18.2539692  28.7540798   4.8142209  18.7742062
  43.3982925  59.2255402  22.6560192  42.7186890  58.6393623  22.3232021
  44.2041283  58.7115173  22.6047039  63.8899384  39.6544571  42.0214539
  64.8239975  39.8624496  42.0438538  63.4631577  40.4894829  41.8295593
  66.7111969   4.3428206  33.2163582  67.1708374   3.5543978  33.5050621
  66.4012299   4.7492504  34.0256615  81.0935211   9.0831289   5.0829096
  81.7614822   9.2272758   5.7531977  80.8441467   9.9629612   4.8001714
  77.5928955  27.1945992  22.1911297  76.8117828  27.7463226  22.2323799
  77.9423676  27.2072086  23.0821648  33.1292458  46.8970947  67.9396591
  33.2461014  47.4857864  67.1939926  33.0434990  46.0280876  67.5476151
  33.8346291  29.3786640  88.9445419  33.1283340  29.0865536  88.3683014
  34.3852844  28.6042767  89.0600204  60.1637115  25.3348732  21.0282326
  59.8234024  24.7191715  20.3791332  60.6274147  24.7850685  21.6598396
  56.8032761  43.0405884  46.1669083  57.7477341  43.1892014  46.2132645
  56.4682693  43.7835197  45.6648560  60.3036690  37.6601715  18.8161392
  60.4856911  36.7259865  18.7141647  59.6536484  37.8526955  18.1403885
   3.5180819  46.2238541  48.8380852   3.1438000  46.7731018  48.1492653
   4.2423801  45.7655754  48.4119377  24.0734253  53.7698402  57.6408195
  24.2457275  54.6156654  58.0544930  23.5155182  53.3067970  58.2657700
  40.6057816  59.1901779  38.6385689  40.1009750  58.4036522  38.4317322
  41.2951851  59.2137070  37.9749413  16.9158669   0.0979412  22.7206669
  17.8404808   0.3432875  22.7542591  16.4458389   0.9314128  22.7457829
  82.2141342  27.5524712  13.8945913  81.5723114  26.8741779  13.6843405
  81.7554626  28.1376038  14.4974804  69.5607834  30.6370239  67.7489166
  70.1460342  31.3944435  67.7543106  69.4435730  30.4315166  66.8214111
  15.1955462   0.6095786  30.5802326  15.2077551   0.2215564  29.7052917
  14.5977316   1.3532556  30.5041122  32.4777946  64.3158722  44.6498642
  33.4052734  64.2710419  44.8822556  32.4457321  64.9195709  43.9077377
  48.8087883   4.5465674  21.8937607  48.8215294   5.4988971  21.9893513
  49.7259598   4.2853007  21.9760246  75.5915222  34.0388794  51.0660553
  75.3794174  34.3021126  50.1705360  74.7795639  33.6602516  51.4030838
  18.9723053   4.1838126  19.0565205  19.0446434   4.9249330  18.4550724
  19.8511658   3.8050909  19.0767345  76.5578308  48.4476585  25.1962280
  76.9404297  47.8629875  24.5420074  76.7842712  48.0481834  26.0360966
   8.6685190   5.8754411  87.3185425   7.7411523   5.6388211  87.3338394
   9.0263605   5.3936863  86.5728302  80.1440125  63.5109177   9.1165314
  80.8304367  63.3968735   8.4592209  79.7947540  62.6302834   9.2533779
  85.8792877  26.9453163  72.0148926  85.3030472  27.2562389  71.3166809
  86.6745987  26.6649494  71.5620117  50.8091698  31.7413578  80.7379227
  50.2283554  31.7432270  81.4987640  50.6137619  32.5618973  80.2854080
  16.9168911  31.9832649  71.5165024  17.4395771  32.3293915  70.7931595
  16.9531231  32.6660652  72.1863556  54.1769562  20.5793762  88.7866592
  53.5324631  21.2815266  88.6980820  54.4381866  20.3792572  87.8878021
  56.1593857   0.5766852  39.2306671  56.6784286   0.0980352  39.8769798
  55.8491898   1.3517007  39.6990280  83.7549515  61.8852882  50.4369736
  83.4142227  62.5668793  51.0162582  83.9232483  61.1414375  51.0154152
   8.6151237  68.0766907  38.1729279   8.4618855  68.9391708  37.7870674
   9.0279264  68.2616272  39.0165062  34.9688759  29.0838108   7.6691694
  34.4844055  29.6278267   7.0482297  34.3995628  29.0316658   8.4368916
  63.7420387  15.3825893  -0.2109631  63.6937370  14.4713898   0.0781970
  64.2214050  15.8300591   0.4863235   6.3395653  44.5462646  74.0093155
   5.8119946  44.7944145  74.7684708   6.5263543  45.3740845  73.5665359
  12.6734734  27.2732105  59.0718956  12.9850092  26.9304276  59.9095573
  12.9700727  28.1832256  59.0602875  52.0244942  57.6242905  40.2741318
  51.6920586  56.9651413  39.6648369  51.3278580  57.7236328  40.9230232
  22.4249592  18.1440010  79.4403076  22.2512798  17.2979317  79.8528976
  23.2531910  18.0190220  78.9770050  42.8301353  35.5857201  37.8296432
  42.3305130  36.3895569  37.9726639  42.4347572  34.9488602  38.4248886
  68.9848938  63.1608315  49.7158051  68.0638351  63.3055611  49.9324303
  69.2867966  62.5258713  50.3653526  71.2501907  55.2338257  28.8710575
  71.0429382  56.1519127  29.0453968  71.7837524  54.9627037  29.6180782
  22.7962723  68.3687134  44.7072678  23.1830292  68.8490143  45.4393654
  23.0138168  68.8920212  43.9358673  43.7612762  56.6571007  52.0742340
  44.4013481  56.1745033  52.5973396  43.9468727  57.5779037  52.2583733
  74.1198807  20.1381168  28.1544094  74.3038635  20.9159298  27.6277313
  74.9227524  19.6193790  28.1040821  70.2234192  22.4298592  35.9511986
  70.8017883  21.9063034  36.5058250  69.7486649  22.9919300  36.5635033
  36.3948669  67.9990768  69.5438766  36.1470032  67.0749283  69.5163879
  35.5638962  68.4677048  69.6220169  69.2408752  46.3645096  14.3300171
  69.6677246  45.7435570  13.7397223  69.8083572  47.1352577  14.3179760
  84.9022522  24.3250332  81.1938019  85.3246231  23.8318424  81.8970795
  85.2802582  23.9677601  80.3902435  52.2188683  33.1724663   3.3341920
  53.0173302  33.4607849   3.7764180  51.5858574  33.0462265   4.0410089
  39.6160011  43.8208199  80.5993118  38.6886253  43.7741280  80.8317490
  39.6701927  44.5439034  79.9744568  57.8429298  66.8304214  52.8636971
  57.1283760  66.4190369  53.3499107  57.9402237  66.2911453  52.0788765
  71.4847794  50.8804398  86.3263168  71.4589081  49.9236565  86.3151016
  71.8152466  51.1212730  85.4608612  19.4924316  59.0136032  67.4578857
  18.6266308  59.3986664  67.5933456  19.9091473  59.5827866  66.8108902
  58.6925240  40.0577393  47.5073051  57.9705734  40.2134438  46.8983917
  58.3066101  39.5299454  48.2064018  55.6900673  17.4147053  22.3594723
  56.0226707  16.5402279  22.5616951  56.3632317  18.0094032  22.6902504
  45.8017654  29.2143154  62.6723518  46.5834732  29.7636070  62.7310638
  45.2038574  29.7078438  62.1109543  61.8743477   3.1944935  88.0958023
  62.5182343   2.5148664  87.8964386  62.3421402   4.0171542  87.9521637
  30.8660049  56.4805717  75.0311279  30.7832756  56.9562187  74.2045975
  29.9647942  56.2778893  75.2820663  49.1218071  69.5512848  26.0027370
  49.7801094  69.4061737  25.3231659  48.2890282  69.3482056  25.5767441
  24.2207432   6.5320759  26.8800354  24.2060814   5.7104435  26.3891811
  23.3259773   6.6331029  27.2047195  50.1394081  62.0976067  62.1274986
  49.5518074  62.8443718  62.0121918  49.7264481  61.5713806  62.8121758
  71.8554230  62.5944099  19.4440956  71.8566360  63.0625763  18.6091995
  72.6802597  62.8447533  19.8602695  43.0887718  11.6882353  12.4715967
  43.6495819  12.3659306  12.8490295  43.4511452  11.5361662  11.5987892
  57.9026985  67.8220215   6.2801552  57.5272675  67.1204453   6.8122067
  58.6544380  67.4178848   5.8468018  29.6056442  58.2570419  12.3070354
  30.0556946  58.4693565  11.4893494  29.1194668  57.4559479  12.1118193
  71.5377197  55.3773384  73.3955994  71.3243027  56.0702820  74.0205078
  70.6878738  55.0628853  73.0871811  44.3340645  57.7699089  56.5266762
  44.1101189  57.2320518  57.2861404  44.9442596  58.4237671  56.8677979
  67.0452652  36.4901123  39.5399475  67.9272385  36.7474174  39.2713356
  67.1659622  36.0789070  40.3958511  63.6173286  25.2082348  57.6051445
  63.7465019  25.1168995  56.6611061  63.5267868  24.3097382  57.9225349
  81.3044128  66.3503952  12.6736450  80.5779190  66.2846069  12.0538797
  80.9032669  66.2004395  13.5297003  21.5142746  58.0633926  39.1594772
  20.8902588  57.6842613  39.7784233  21.2711067  57.6872673  38.3135262
  77.9558258  40.6250381  80.5154877  78.5457001  40.9786110  79.8497086
  77.6735840  39.7815399  80.1618195   4.8179040  43.4498596  82.6555939
   5.1312366  42.9076118  81.9317017   4.3319597  42.8443871  83.2154999
  80.9302292  52.3986168  41.7692757  80.0251160  52.5003700  42.0636368
  81.0137253  53.0085754  41.0363312  86.7069931  21.2903652  78.8822021
  87.3434830  21.7048645  78.2997055  85.8673401  21.3990803  78.4356613
  78.7798767  19.5811062  38.2963333  78.0773392  20.0996170  37.9041443
  78.8787689  19.9399586  39.1781960  65.4640961  53.9143753  20.7497864
  64.8992996  54.6861877  20.7891273  66.2200089  54.1429253  21.2906971
  14.1933079   8.4733343   1.1707762  14.3147869   8.7130013   2.0894897
  13.8747053   9.2741995   0.7544360  55.4175262  51.0229378  46.4911880
  56.2303505  51.1511307  46.0021973  55.6748772  51.1054420  47.4094467
  33.4936867  10.6848946  17.6281948  32.8299828  11.3745480  17.6386585
  33.3578949  10.2093506  18.4477386  41.9942894  36.6220627  19.9705868
  41.4187851  37.0715637  20.5894375  42.8267136  36.5376740  20.4355392
  69.8682938  25.7133141  20.7113209  70.2800674  26.5617599  20.5475636
  69.3489532  25.5434608  19.9254017  30.1897202  35.6184731  66.2608490
  29.3715458  36.0920677  66.1107407  30.5952797  36.0697021  67.0012207
  42.5295296  35.7796974   9.5443621  42.5102081  36.1156960   8.6482792
  42.6233521  34.8325119   9.4430275  14.9842215  32.4433784  81.6156845
  15.1401234  33.0535316  80.8948212  15.0115328  32.9891434  82.4015732
  50.6449547   0.9714947  72.6888580  50.1674385   1.3813617  73.4101181
  51.5313950   0.8477596  73.0281830  82.0213547  45.0006447  46.5704193
  82.2094040  45.8381310  46.9940758  82.5385666  45.0181122  45.7651711
  45.1609535  30.2192001  49.9644814  44.8054008  29.9338760  50.8061485
  46.0493317  29.8632469  49.9467125  34.0698013  15.7219200  82.9280777
  34.9272614  15.4041300  82.6452255  33.7565422  15.0546398  83.5386810
  47.0981750   8.4208546   6.8409643  47.1360855   8.0667648   5.9524736
  46.8192062   7.6818585   7.3816061   2.5913723  64.4582443   4.0703583
   1.6820797  64.7517395   4.0131111   3.1084116  65.2481918   3.9126332
  17.3599262   6.3935084  84.2214813  18.0245991   7.0181127  84.5118484
  17.2661514   5.7853866  84.9547119  47.8116570  64.0600739  30.5413704
  48.2737083  63.8908081  31.3624001  47.7844849  65.0145264  30.4741936
  12.3275127  26.7513695  81.1271515  13.0059175  26.1368351  80.8472443
  12.3456306  26.7089577  82.0832443  44.8053741   6.4991245  46.3213692
  44.3512764   5.9228849  46.9361649  45.3205338   7.0839343  46.8771019
  44.1060677  58.7024002  67.8974152  43.9836502  58.0826607  67.1782684
  44.5863571  59.4319077  67.5057907  45.5402756  62.7280159  33.2240982
  46.0865898  61.9423866  33.2005081  45.1122437  62.7478867  32.3681641
   9.0875568   0.5812098  83.3846207   9.8466759   0.1091122  83.0424271
   9.0688038   0.3615257  84.3160782  52.7919083   3.0051951  87.0427017
  53.2484055   2.1811352  86.8730927  53.3801422   3.4901247  87.6215439
   3.1209114  63.5933151  24.6340904   3.1782637  64.4155121  24.1473351
   2.9400144  62.9317818  23.9663486  70.3990250  64.6897888  52.2396774
  70.2427673  64.5066605  53.1661110  70.8602753  63.9156189  51.9169731
  35.5804253  12.1149702  80.2904739  35.7827454  12.1246834  81.2259979
  34.6239929  12.1168661  80.2522354  46.4988518  39.8522835  15.9613085
  46.9155579  40.6508522  16.2851486  47.1171188  39.1545372  16.1783924
  82.3144150  34.0727539  46.8703690  83.1461945  34.4332237  46.5630569
  82.5084686  33.1561775  47.0664825  58.5245132  23.8566380   1.2885623
  59.3270111  23.8766499   1.8099307  58.3973732  22.9311142   1.0800545
  79.2042694  60.6325035  55.0617180  79.7025681  59.8153763  55.0465279
  79.2868958  60.9799728  54.1736488  11.1438360  43.8635445   7.7970538
  10.7000694  43.3383293   7.1311297  10.6526785  43.6954002   8.6012459
  47.6551781  37.3116951  24.0170441  47.9057732  38.1105042  24.4810867
  48.2603493  37.2648010  23.2769051  47.4117050  28.2381592  57.8272095
  46.4705276  28.3202419  57.9810753  47.7209091  27.6691761  58.5321083
   4.8369155  64.9759750   9.8425035   4.1520500  64.7480774  10.4711943
   4.3736391  65.0820770   9.0116310  32.4477615  44.6298981   8.6863060
  31.9560719  45.2715302   9.1989260  33.1892891  44.3951111   9.2441998
  84.9289093   0.2005139  62.7467690  85.7283401   0.5651204  62.3670273
  84.6224823   0.8749508  63.3529587  75.7536240  42.4292107  39.7176094
  75.3804779  43.2048607  39.2988434  76.3792725  42.7775459  40.3527908
  79.4946747  28.8200970  65.2791519  78.7136612  28.2995930  65.0911942
  79.4110107  29.5894947  64.7158966  33.7139816  13.1157227  15.2155609
  33.0880508  13.7476864  14.8619213  33.3866615  12.2650967  14.9231052
  42.9579659  56.7010880  45.3124084  42.1252060  56.9463387  44.9091759
  43.1218987  57.3870239  45.9595985  83.4527206  70.9296188  69.5004349
  83.4377518  71.3282242  70.3705597  82.7478943  71.3682098  69.0239029
  73.7927322  23.4181747  67.1160660  73.7176437  23.7632122  66.2263794
  73.9787140  24.1863804  67.6559830  85.9369354  68.5075455  60.9562340
  86.1835327  67.6850433  61.3792076  85.2823486  68.2551575  60.3050461
   0.5734877   1.3570048  18.9061260  -0.1769556   1.2282779  18.3260441
   0.8048570   2.2794278  18.7973328  21.0397892  65.9785919  83.6485367
  20.6163464  66.8224640  83.8060684  21.5359364  65.8064804  84.4488144
  74.1063309  22.9881725  30.9113922  73.5654373  22.1989288  30.8838310
  74.9072571  22.7141457  31.3582211  72.5470200  20.6914558  39.3277893
  73.1637115  20.0783424  39.7278137  71.7207565  20.5319176  39.7839432
  50.9814034   4.0416336  65.8332367  50.1562386   3.7550361  65.4418259
  50.8671570   4.9819055  65.9713287  12.8712959  58.2806854   9.0700264
  12.1498547  57.7612076   9.4248486  12.8312321  59.1067848   9.5518856
   5.9925590  55.6415863  42.7857895   5.8199754  56.2161255  42.0398979
   5.1561041  55.5920258  43.2485161  37.1300964  53.2245369  61.3445587
  36.3100891  53.2731133  61.8359413  36.9707031  52.5562477  60.6780663
   5.2467976   9.6878595  23.6897850   4.4662714  10.2284269  23.8114319
   5.9515338  10.1889467  24.1002617  43.5725708  27.2707710  83.1238556
  42.6374474  27.2431946  83.3263779  43.6310387  27.8101559  82.3352585
  13.6311169  28.8844109   1.4809879  14.3816643  28.5883389   0.9659620
  13.3990726  29.7317085   1.1008911  76.4342346  29.6960812  44.1697960
  76.5453110  28.8960800  44.6834984  77.1639252  29.6862221  43.5503693
  34.7970924  56.0133095  53.3067856  34.8128586  56.8676300  53.7382011
  33.8824310  55.8900146  53.0529594   8.6258688  64.8884201  39.9961586
   8.0936785  65.6818161  40.0555954   9.2440033  64.9595947  40.7235336
  84.7743301  34.2113266   0.2129277  84.3768921  35.0459633  -0.0353857
  84.0705948  33.7314796   0.6496651  75.4217911  61.4986267  82.5584030
  75.8766785  61.5231476  81.7165527  75.2579498  62.4178886  82.7689819
  66.7585602  62.7967262  22.7244606  67.2537384  62.5102005  23.4918823
  66.7504807  62.0340080  22.1461620  64.0690842  25.6663513  54.9296951
  63.5468483  24.8994923  54.6942635  64.5775299  25.8607788  54.1423492
  83.9006577  55.2853470  54.7872047  83.5147552  54.4598732  55.0802956
  83.5228882  55.9458694  55.3679199  75.2385025  21.8667564  88.5071716
  74.6214523  22.5980225  88.5341721  74.8094406  21.1727219  89.0076294
  23.9225121  48.9216385   6.0647860  23.2875481  49.5656166   6.3783793
  23.6373558  48.0949364   6.4539986   5.5146475  45.5538750  86.4363327
   5.6096706  44.6599350  86.7650833   4.6691585  45.5554352  85.9875793
  44.1155205  13.7122240  75.7856293  43.2623672  14.0987186  75.9830780
  44.7358551  14.4331484  75.8937225  76.8636856  56.4967995  73.6149445
  77.6040802  56.1172562  74.0882263  76.1176224  56.3785973  74.2028656
  49.6726494  60.3220367  26.7868843  49.2771111  60.6093788  27.6098137
  49.0367203  60.5703392  26.1159344  21.8520527  22.4960289  85.2995834
  22.6302681  21.9393520  85.3264465  22.0330448  23.1914082  85.9319763
  62.1229095  17.6026554  40.3796539  61.4850349  17.0757771  40.8610535
  62.8415451  17.7330513  40.9983521  86.3181992  59.5146370  88.1752014
  86.2247086  60.4669533  88.1993256  85.5630722  59.2125473  87.6704712
  12.1372957   0.2850976  82.8733826  12.9229994   0.1095968  82.3555984
  12.2868452   1.1527231  83.2490082  -0.1375355  59.5201378  44.4482460
   0.2201258  60.0804977  43.7595444   0.5969923  59.3751640  45.0446396
  11.4988852  68.1341858   0.6020626  12.2737064  67.5876694   0.4708923
  11.1247673  67.8252335   1.4271801  27.5498314   4.1854935  14.9585638
  26.9912853   4.5689330  15.6347542  27.4807816   3.2410314  15.0980453
  42.9415703  54.1933365  15.8686695  42.9676094  53.9368210  14.9468489
  42.1349258  53.8016739  16.2035732  50.4988708  66.4121628  59.5215759
  49.7322311  65.8416672  59.5765419  50.6101646  66.7500839  60.4101982
  67.7988892  21.6071281  76.6580429  68.1336288  21.1000595  75.9184113
  67.5197296  22.4375267  76.2723694   2.7216432  66.8273621  55.8516388
   2.1606293  66.2336349  56.3506241   3.2060561  66.2554169  55.2562752
  28.6961365  38.2100372  85.7082443  29.1698570  38.5808563  84.9637222
  28.4191513  37.3441467  85.4086685  44.4532585  13.6794043   7.9978395
  43.5215340  13.8526268   8.1324425  44.7350616  14.3527880   7.3786693
  85.5405426  69.7674561  29.3512688  85.8103104  69.0343323  28.7981014
  86.0146255  69.6351700  30.1722298  85.6452866  28.5169849   8.0434971
  85.9175873  28.5922337   8.9580574  86.4367523  28.7107353   7.5412259
  80.0223083  27.2948627  45.1483498  80.8818283  27.7129135  45.0964928
  80.1092911  26.5019855  44.6191864  78.8200607  57.3150406  65.1899872
  79.2818832  56.5541878  65.5422058  77.9083176  57.1833076  65.4499817
  86.3998489  27.2370872   3.6722870  85.5395737  27.1535759   3.2609789
  87.0162735  26.9496651   2.9987538  70.1448441  12.1371899  42.4112663
  70.8013611  11.6512175  41.9122200  69.9143295  11.5544968  43.1348457
  60.1395416  52.9985237  59.3944321  60.9876595  53.0671234  58.9560013
  60.2874222  53.3744049  60.2622299   4.2970128  46.8398209  39.1300354
   4.9692445  47.5025749  39.2884331   4.3122745  46.2910194  39.9141388
  81.0897369  45.8557281  11.9282198  80.3909302  46.4221878  11.6010818
  80.6327972  45.0972939  12.2918339   1.2271706  70.3363342  69.8692245
   0.8060229  70.6738052  69.0786667   0.6453488  69.6389389  70.1714783
  41.6149216  68.1681213  76.5598450  40.8562775  68.7316666  76.4078598
  42.3221741  68.5794067  76.0629883  55.9143791  21.4041500  66.0828323
  56.8280640  21.6289368  66.2585754  55.4147758  21.9205170  66.7152786
  76.9635162  14.8269930  41.4389038  76.9049988  14.3006783  42.2362747
  76.3966751  15.5798340  41.6067047  52.2360992   5.2149143  37.5861664
  51.7188263   5.7902303  38.1497917  51.7304764   4.4032574  37.5438576
  68.4045029  41.7295227  57.0002060  68.1636581  41.4302864  56.1234589
  69.3594131  41.7918510  56.9781075  77.6648636  23.5366783  24.8090935
  77.0506592  22.8286190  24.6150723  77.6942062  23.5730305  25.7651520
  13.4580822  24.0174541   4.2965078  13.4997549  24.6257801   5.0343666
  12.6498604  23.5244808   4.4378748  14.1579180  50.8829498  25.9889317
  14.8485193  50.2372093  25.8395386  13.5193110  50.4279976  26.5379562
  24.0711861   8.8628883  80.6455231  24.1943817   9.0924740  79.7244644
  24.8355427   8.3296232  80.8637466  25.0641651  25.0002155   6.3616910
  25.6317463  25.7473755   6.1723909  25.5082722  24.5357418   7.0711017
  48.1588135  12.3014116  20.9677010  47.2187119  12.3689976  20.8007393
  48.2807198  11.4096279  21.2934170  21.6743526  67.4889755  51.9871368
  21.9410706  66.9394455  51.2501755  22.4718590  67.9539566  52.2401276
  47.4081268  59.6035652  49.2266960  47.9259415  60.2922592  49.6435852
  47.6342010  58.8084984  49.7093887  63.3082542  34.3277245  51.1624451
  63.4813881  33.4446602  50.8361740  63.6281548  34.3167648  52.0645409
  31.3144779  42.3629074  87.3864822  30.7907543  42.1009827  86.6292877
  31.0259533  41.7814445  88.0899582   8.1031380  65.7184753   6.3231645
   7.4215498  66.2936707   6.6707644   8.8233175  65.7950668   6.9490285
  14.9689980  18.7672062   3.1223295  15.3247185  19.6554413   3.1494436
  14.1010466  18.8446045   3.5184374  81.2667313  35.1438789  54.1667175
  80.9648285  36.0343475  53.9873962  80.4694977  34.6592026  54.3805962
  12.6747389  55.6062622  48.8822021  12.4505529  54.9217567  48.2517853
  12.9547472  55.1297302  49.6637039   9.6611462  26.4255695  74.3270264
  10.5991602  26.2741737  74.4429626   9.5655441  26.6363010  73.3982239
  21.5541439  47.8722305  20.5560894  22.2099533  47.1910362  20.4073696
  20.7671204  47.5464287  20.1194191  38.2079659  39.5257111  70.5043335
  37.8693810  40.1599083  71.1363068  38.2238274  40.0006714  69.6734314
  83.9597397  42.6011848  69.7572861  83.2887115  43.0972061  69.2883377
  84.7345581  43.1626244  69.7313156  49.5007629  20.7691574  65.1351852
  49.3914833  19.8940983  64.7629471  50.3954201  20.7746696  65.4754715
  34.6122704  56.8989487  63.7749672  33.6576309  56.9686394  63.7687416
  34.8441086  56.7038765  62.8669891  29.9113865  54.9453850  79.2657318
  29.8867111  55.8931808  79.1341782  29.0240669  54.6517258  79.0591888
  19.7565994  64.8503723  55.0123596  19.0897446  64.9811096  54.3382339
  20.1482048  64.0029755  54.8007240  55.7215042  51.1792221  13.2573290
  55.5231705  52.0447845  13.6146688  55.2515182  50.5711098  13.8278952
  54.8421516  46.0033875  38.8505783  54.4590683  46.8798447  38.8866386
  55.6577034  46.1183395  38.3628349  10.6546354  16.3741055  23.8339233
  11.1509991  17.0959148  23.4481182  10.6552162  15.6953449  23.1590042
  21.0311871  53.6884727  88.1347580  21.0038128  52.9558563  87.5193329
  20.3992653  53.4540634  88.8144379  75.9018555   2.8533149  29.1620941
  75.1258316   3.3955238  29.0205498  76.1258011   2.9912627  30.0824471
  79.5475235  14.0913868  38.2105865  79.5940247  15.0189571  38.4422836
  80.3117905  13.7001982  38.6337891  59.2674713  20.5347748  77.8813171
  58.5722275  20.3121033  78.5004120  59.4622002  19.7114716  77.4335632
  21.9180050  64.1035995  70.3410950  22.8171825  63.8053207  70.4779892
  21.7957592  64.7998734  70.9864578  72.3427734  10.1750851  35.7901154
  72.0576935  10.6081476  36.5947380  72.0181580  10.7379465  35.0872307
  39.3156357   1.6824948  77.4462051  39.5151520   2.4990828  76.9883728
  38.8418159   1.1563646  76.8020630  10.6923532   5.8991628  62.7293777
   9.7583447   5.7433743  62.8693390  10.7248392   6.6819215  62.1794090
  44.3326569  60.9765358  81.9955978  44.7588654  60.5030479  82.7100143
  43.7978668  61.6391220  82.4328766   4.1732049  58.6976967  61.9401703
   3.8922079  59.4201088  62.5017662   4.2142472  59.0783234  61.0628586
  67.9597855  16.4278545  44.8892288  67.9776688  16.0582047  45.7719917
  68.5115280  15.8406782  44.3724709   4.6021800  65.4255295  47.5676537
   3.9024439  65.7270432  46.9882660   4.2617912  65.5713425  48.4503250
  50.4712448  67.3190079  85.6451721  51.2209625  67.8649979  85.4084320
  50.1172981  67.7276306  86.4350967   6.9425311  55.6617432  15.2959089
   7.0999274  55.8186378  16.2269535   6.0939469  56.0700264  15.1243229
  47.1817856  69.2744217  20.4743900  46.4751892  69.0979614  19.8532505
  47.8576736  68.6324387  20.2569904  40.6470451  65.8481827  88.7737885
  40.7494545  64.9686508  89.1373291  41.2917671  65.8920364  88.0676422
  76.8069458  28.5631618  62.9182854  76.9645309  29.4089870  62.4987831
  77.4019241  27.9601994  62.4725571  11.2441349  22.6638641   0.4559686
  12.1751490  22.4459496   0.5002264  10.8185415  22.0103455   1.0109597
  58.2900047   3.0659595  68.7034378  58.7901344   2.7433398  67.9537582
  58.2825813   2.3334298  69.3195343  45.5970612  48.4560432  20.0640030
  45.7814102  49.0502396  19.3365555  45.3808365  49.0335579  20.7960930
  80.9315491  51.4338264  13.2493591  80.2324829  50.8035011  13.0754948
  81.0355453  51.9095192  12.4252625  29.0369911  10.5692616  73.0034027
  29.6016178  11.0758123  72.4195938  28.8008575  11.1822653  73.6996078
   4.9488449  43.4357300  45.5376968   5.6044965  44.0480843  45.8714256
   4.3539066  43.9796486  45.0215263   2.2702084  41.1593590  51.6660728
   2.3662305  41.1137314  52.6173515   1.8926082  40.3141441  51.4226456
  57.9884186  59.2952576  16.9308891  57.3765717  59.8121681  17.4549847
  58.6107292  58.9431229  17.5672569  45.8359146  29.1732788  80.2231674
  45.1950989  28.4665585  80.1448364  45.6954956  29.5276794  81.1011887
  62.8024940  64.6788864  29.8093204  62.4440460  65.2199860  30.5128517
  62.7723122  65.2413940  29.0354328  37.4210815  44.3340683  77.4105682
  36.6395798  44.8743057  77.5273056  37.1415329  43.4522018  77.6563339
  53.5800095  59.9595680  37.7129326  53.0137749  60.2531281  38.4266777
  54.4213142  60.3823433  37.8852730  80.5761185  40.3899155  19.8241634
  80.7713547  41.3127403  19.9869690  80.6200409  39.9798012  20.6879406
  72.3253403  26.8676281  83.8717575  71.4549866  26.4913578  84.0027084
  72.4734421  26.8059425  82.9281006  32.4363632  54.1561241  80.4563751
  32.5650673  54.2004623  81.4038467  31.6045303  54.6053352  80.3063812
  12.2800341  24.2705231  13.9556017  12.2011900  23.4758224  13.4279022
  11.3761845  24.5294189  14.1352100   4.7268796  15.0572042  37.9632454
   3.8055811  15.0820875  37.7047462   5.1826153  14.7173338  37.1931648
  78.2074509  70.6691589  36.2463760  78.2248459  71.0089798  37.1410561
  77.4019623  70.1539764  36.2014656  75.3929977  22.0831757  26.7779179
  76.1887894  22.4712791  27.1416779  75.6938095  21.5925179  26.0130672
  26.0418911  43.9818726  55.7949753  25.3735313  44.5273552  56.2096748
  26.0241585  44.2403908  54.8735161  56.3794403   1.0094520  59.1705208
  55.6328468   1.4407386  59.5862389  56.0465546   0.7206672  58.3208008
  84.8099136  15.5729704  79.4401550  84.7868500  15.4550180  80.3897858
  84.9451294  16.5127621  79.3187485  25.4453468  67.8388062  29.2875633
  25.9312859  67.7067490  30.1015987  25.1253281  66.9670334  29.0555382
  20.0455494  46.2621918   2.4119358  19.8807125  45.5224037   1.8273226
  19.2052746  46.4188461   2.8427830  61.8225060  57.3936653  48.0921440
  61.1179352  57.5990753  47.4776382  61.4442177  57.5618782  48.9551849
  61.2320137   0.4899119  53.5604820  60.7554207   1.3083855  53.4219513
  60.7395744   0.0391638  54.2464561  51.1091461  13.4721308  12.1573553
  51.0309563  14.3476686  11.7784729  51.8678093  13.5293884  12.7381992
  12.9653473   2.2833793   6.4551854  13.0399561   1.4273655   6.8769741
  13.7868214   2.3860471   5.9746952  27.7579384  36.6347046  26.8246574
  27.1723557  35.9429207  27.1324902  28.1430168  36.9955101  27.6232605
  22.3942165  32.3760490  17.8249798  21.6498222  32.9749908  17.8831100
  22.1493988  31.6351871  18.3794346  47.9304314  30.7986984  57.3921432
  47.8439407  29.8567886  57.2453117  48.1303329  31.1584587  56.5279427
  43.9379082  12.6041832  87.0666122  44.4217110  13.4194841  87.1987076
  44.1225357  12.3603888  86.1595764  71.4100266  22.2363319  77.3861389
  70.6197433  22.1808910  77.9233627  71.5663605  21.3374653  77.0965958
  73.2317276  45.5989609  64.2574310  73.1074295  44.6873283  64.5214539
  74.1334000  45.6350403  63.9381714   3.6940291   0.7781309   1.5060788
   4.4781685   1.1803457   1.8796830   2.9866426   1.0397497   2.0954783
  51.4870300  51.7754974  24.5121040  52.3888016  51.4554977  24.5373383
  51.2262878  51.6848869  23.5955696  79.4101486  41.3931541  51.5115623
  79.5750046  40.5439186  51.9212608  79.6640625  42.0331841  52.1764793
  44.2881088  13.4932222  65.6957932  44.1882820  12.6832123  65.1956406
  45.2336998  13.6373501  65.7320251  81.7605591  22.0240479  38.5216637
  81.5118179  21.9340973  37.6017342  81.9096298  21.1262836  38.8183556
  59.5357018  36.0850487  24.7069988  59.2386055  36.6330147  23.9805698
  60.0733299  36.6683273  25.2427006  77.0981979  58.7234306   5.1404185
  77.7821732  58.1968575   5.5540919  76.2793884  58.3609848   5.4786868
   9.4992876  13.0328960  25.5938053  10.3580809  13.4532251  25.6388569
   9.3405924  12.7163811  26.4831104  72.3946457  60.5112267  82.2170334
  73.1729050  60.0025558  81.9894638  72.2226715  61.0456657  81.4417725
   3.2474892  37.5605240  27.0115623   2.5454173  37.5641098  26.3609371
   3.0512493  38.3053932  27.5797958  40.8491631  22.5286732  45.1200676
  40.0214767  22.4521313  44.6454010  40.7427063  21.9575253  45.8807869
  81.9766769  22.8831139  55.4076424  81.5342407  23.2160645  54.6268616
  81.4584579  23.2199345  56.1385574  68.8003464  59.0422935  13.6573105
  68.4904938  58.3619804  13.0594826  69.2599792  58.5637093  14.3471861
  39.1622696   4.4997859  45.3205833  39.1676254   5.4263878  45.0805588
  38.9292259   4.4941974  46.2489662  29.1805363  64.4392014  12.9577904
  30.0313206  64.1166534  13.2550497  29.3876038  65.0254288  12.2299929
  49.3988457  37.7036057  83.5229340  49.3442001  38.3611374  82.8294601
  49.7337837  36.9210510  83.0851364  22.0860806   7.5650606  70.5729218
  22.1139908   8.0022717  69.7218628  23.0041313   7.4873371  70.8324890
  72.7501221  28.9259624  56.2551384  72.2017593  28.7338600  55.4944687
  72.5135345  28.2557945  56.8963356  69.8367004   7.1342201  71.3546371
  68.9026184   7.3342562  71.2937012  69.8693314   6.2562509  71.7345505
  86.6204834  65.2852631  71.5181885  87.3877640  65.3329773  70.9478912
  85.9920502  65.8910751  71.1253738  50.2161903  19.1913338   9.7586794
  49.6202278  18.4466476   9.6780500  50.2962608  19.3329868  10.7019472
  14.9435349  11.7056627  31.2686520  14.5764074  10.8488693  31.0510387
  14.2591829  12.3286076  31.0240440   6.4333181  39.8907471  77.1747513
   6.4034472  38.9463005  77.3275986   5.8784704  40.0267410  76.4067154
  24.8302917  41.0864677  70.7788544  25.1728230  40.8604164  69.9140930
  23.9707203  40.6667213  70.8132172  30.5337696  25.2036095  80.5334396
  30.6718369  24.7538948  79.6998215  31.0978794  24.7397060  81.1521530
  53.2200813  46.9266968  50.9336395  53.2555122  47.4437447  51.7383995
  52.2914276  46.9067192  50.7024841  50.6350708  12.7552853  23.9976444
  50.9264488  13.0961485  24.8433037  49.8225021  13.2275438  23.8161640
  80.0165405  10.4616814  23.4556942  79.7330322   9.5841255  23.7121105
  79.5077744  11.0502405  24.0133591  83.4710236  62.7842979  83.7784500
  84.0316315  62.8187599  84.5535355  83.9845428  63.2105865  83.0922928
  51.7655487  29.2011318  77.8503952  52.1558075  29.9959927  77.4869003
  52.4536934  28.8262043  78.4000473  86.2763977  54.7817421  53.3885498
  85.3814926  55.0581322  53.5860138  86.3716736  53.9409943  53.8360939
  74.3837051  47.2304688  47.9907188  73.7946777  46.8352470  47.3480072
  75.1970825  46.7326546  47.9081078  36.4005241  52.5288658  10.5188036
  35.8996201  51.7797661  10.1960411  36.7778091  52.9217644   9.7317095
  25.9549351  50.2711372  80.3109665  25.5868530  49.9879951  79.4739609
  25.6359463  49.6269798  80.9430542  58.5318069  70.5139771  12.4592113
  58.6348381  71.4259872  12.7309732  59.0964432  70.0213394  13.0547962
   3.8787153  32.0945435  36.8917351   4.7934904  32.3718758  36.8416595
   3.8811250  31.1989326  36.5539398  17.1207104  64.8771210  66.1022949
  17.9397278  65.0076294  65.6243744  17.2720089  64.0906525  66.6265106
  48.9440079  44.0222244  18.4200153  48.6008720  44.7497787  17.9012108
  48.7442932  44.2587929  19.3257637  71.1268539  18.9666786  10.7141504
  70.3523788  18.5431461  11.0843391  71.8450470  18.3644199  10.9083414
  10.0311766  70.0339661  27.1244049  10.8537264  69.7748947  27.5397682
  10.1605072  70.9528275  26.8894501  82.9607544  12.0780373  62.2788696
  82.2208405  12.4439116  62.7635345  82.5587692  11.5945129  61.5571747
  18.7817287  11.6892042  82.7896652  17.9512081  11.3714066  83.1438828
  18.5296001  12.3454895  82.1400833  73.9362564  69.8942413   6.5634522
  74.8826675  69.8633041   6.4235492  73.5675583  69.9945526   5.6858234
  50.3838425  31.4974613   2.0974309  51.0959015  32.0607605   2.4005723
  50.8185616  30.8189526   1.5808284  25.2248745  64.5807343   1.2839471
  24.8056431  63.7356796   1.4463181  24.4969406  65.1859283   1.1422236
  58.0081444  69.7950363  51.7491341  58.7993317  70.0237656  52.2369194
  58.1353912  68.8790054  51.5022888  22.7723789  65.6708832  85.9882736
  23.5294380  65.1044083  86.1372757  22.0966358  65.3260269  86.5719528
  68.8615799  58.8760681  26.8443317  67.9783173  59.1493912  27.0920486
  69.4160995  59.6220512  27.0729313  82.0326385  42.8431358  80.9991608
  81.9498978  43.7944260  80.9325638  82.6528091  42.7062073  81.7153091
  59.9661484  19.4539299  23.9134655  60.1670113  19.2000542  24.8142605
  60.7730942  19.2782764  23.4295120  37.7039909  28.3069534  19.1877060
  38.2071075  27.6245975  18.7433014  37.1434898  28.6746693  18.5044365
  25.2104168  51.6849442  34.5736313  24.4199009  51.8650513  34.0648308
  24.9407139  51.0210381  35.2082367  33.2553329   0.5466577  54.1748772
  32.9081764  -0.2457398  54.5845375  34.0342712   0.2510707  53.7035828
  23.5399437  67.7299423  88.3683090  23.2335491  67.2194138  89.1177826
  22.8111992  67.7059479  87.7481537  26.4609375   6.6313777  42.1560020
  26.1864033   7.3037348  41.5324669  25.8491077   6.7184672  42.8869705
  59.0160141  23.3509369  26.3485508  59.7362747  23.9516506  26.1572399
  58.9391861  22.8109055  25.5619793  55.1041374  31.2802792  17.2800522
  55.3834724  30.4581089  17.6828423  54.2681007  31.4811516  17.7006798
  52.5721703  70.0201569  44.0822296  53.0603790  70.6920776  43.6064072
  51.6644058  70.3230133  44.0603218  16.0596046  31.2823219  17.8335247
  16.6464024  30.8919735  18.4812336  15.5669298  30.5418587  17.4796619
  47.3988647  36.9654388  87.9112854  47.7675323  37.1861801  88.7666168
  48.1318703  37.0597115  87.3029709  82.4320984  62.8337517  25.2338810
  82.0354462  62.1343651  25.7532597  83.2763519  62.4773788  24.9573517
  70.5271149  64.6057892  83.4378204  70.8449860  64.2239456  82.6196594
  70.0333633  63.9001274  83.8555374  15.3409290  20.2941341  84.1978989
  16.2076950  19.9253387  84.0277863  15.5145245  21.0973778  84.6887131
  18.9163151  55.4681969  75.2892227  18.0409031  55.8503456  75.3512650
  19.4114723  55.8884010  75.9924164  57.4786987   2.9347782  48.2924652
  57.6296349   2.0336938  48.0069885  57.2820129   2.8604131  49.2262840
  18.3624706  31.9264545  68.5879745  19.1552296  31.4826870  68.8893661
  18.6739693  32.7600021  68.2352676  63.0890732   5.9295168  71.2135773
  62.8026009   6.8395615  71.2909241  62.8744469   5.5380654  72.0602951
  63.0774498  60.7560349  33.5841484  63.3864479  61.4921532  34.1122437
  62.1389618  60.7079086  33.7662315  80.8638535  56.0915756  48.7646065
  80.4972153  56.8885460  49.1475639  80.8631668  55.4585800  49.4826202
   2.3323796  61.4985809  43.1511574   2.5618646  61.6735497  44.0638199
   2.5092990  62.3226662  42.6974869  25.9929981   0.7900807  74.0856934
  25.3425064   0.7263088  73.3863907  25.5437298   1.2593894  74.7886429
  77.9169464  17.4070606  33.1729507  78.3417130  16.5916691  33.4393005
  77.1542587  17.4784050  33.7469292  57.3324623  55.6181602   3.3406856
  56.6729050  56.1853561   3.7400653  58.0835953  55.6713104   3.9316208
  63.4043617  39.7681732  88.8940506  62.6489143  40.2603455  89.2154388
  63.1133919  39.4007378  88.0594482  37.2992249  60.2532845  43.1238403
  36.4876480  59.8029213  43.3578262  37.5961990  60.6521187  43.9417419
  39.5812454  60.4630280  27.0447388  39.7444000  59.6441727  26.5766735
  39.9747849  61.1377029  26.4914093  69.6231537  27.7468910  78.7605972
  69.4828644  27.9078312  79.6936798  69.5097504  26.8016777  78.6608734
  27.5737667   5.3672409  22.4019222  26.6181240   5.3158317  22.3835773
  27.8135567   5.0576530  23.2753582   6.0485086   5.6041231  14.6152563
   6.9586849   5.3506007  14.7686777   5.6943026   4.9045606  14.0662737
  82.4615555  23.3484535  72.2852707  81.8213730  23.3993988  71.5754852
  82.4124069  24.2028980  72.7139206   8.7199421  45.0599365   6.1365476
   8.5949917  45.5696373   5.3360305   9.4170895  45.5181465   6.6058688
  50.6586304  17.9951572  65.5458527  50.7278786  17.0787220  65.8134079
  50.0712395  17.9803314  64.7902222  38.2675171  59.0383682   5.3541622
  38.7804489  58.2504120   5.5337577  38.0062599  58.9503288   4.4375234
  66.9140549  27.8242722   8.8000984  67.1321869  27.5992756   7.8956504
  67.5552597  27.3472347   9.3268967  23.0561047   1.7470139  24.9168148
  22.1899242   2.1503763  24.8596935  23.0196552   1.2127206  25.7101822
  22.5859470  61.1961479  29.9548950  22.2278557  60.5704193  29.3252411
  22.8765011  61.9347153  29.4197960  20.1703014   4.8512731  13.2660713
  20.6273746   4.1787515  12.7610655  20.3688889   5.6693001  12.8104105
  77.3811493  23.0185356  69.4776230  77.3765640  22.5112514  68.6659088
  77.3725815  23.9313469  69.1896439  20.2028160  12.3087072  18.6794357
  20.3110046  13.1700468  19.0827007  19.7400532  11.7918854  19.3389645
  39.5268784  37.2898369  86.2947617  38.9607201  36.6460609  86.7204971
  40.2540817  36.7750549  85.9448929  55.9595413  12.7046728   0.8318237
  55.7159500  12.1835785   1.5969100  56.8789139  12.9280500   0.9770233
  60.2705765  45.0650406  55.5913086  61.1727943  45.1764145  55.8910294
  60.2930756  45.3121834  54.6668358  14.9971552  16.6757450   6.7598863
  14.1838751  16.2453346   6.4961505  14.7135830  17.4127312   7.3008757
  52.5593414  25.7366848  14.1256227  52.7521820  25.1191673  13.4201326
  51.7840652  26.2102718  13.8241405  10.7224855  16.0819073  71.2505341
   9.8283272  15.8924541  71.5348282  11.0031605  16.8063564  71.8096695
  45.1529541   4.4498076   2.7419465  44.9659691   4.3511276   3.6755047
  46.0986671   4.5918155   2.7007987  64.6135712  12.6653423  24.2732449
  63.6961174  12.8533306  24.4711514  65.0341949  13.5248117  24.2483463
   9.9752016  66.0245285  67.3600922  10.4885988  65.5080948  66.7388382
  10.6233950  66.3847809  67.9653168  61.4951401  20.5434055  29.9777279
  62.1624870  20.7713604  29.3304901  61.9867363  20.3888397  30.7843723
  48.5884514  44.4770622  76.3926773  49.1266785  44.2244797  77.1428375
  47.8198128  43.9092255  76.4473495  73.7112656  35.2977562  15.2138796
  74.3568344  35.3824921  14.5122433  73.2861710  34.4563484  15.0478868
  69.5716248  23.6688232  68.2506485  69.1083984  23.5448284  67.4222336
  69.5400467  22.8106651  68.6735001  85.8604126  52.1917267   3.0296645
  86.1336670  52.0506058   2.1232164  84.9355164  52.4301109   2.9666572
   0.7241446   7.3195353   2.8736668   1.0453274   7.6640515   2.0403712
   0.2518901   8.0519676   3.2695835  55.3579559  16.2226238   5.4434462
  55.4214897  16.1223373   6.3932557  54.7557640  16.9563217   5.3198218
  73.5027008  63.6392250  64.1066742  73.3217773  63.9547081  63.2212524
  74.3891220  63.2814217  64.0569839  74.9367523  26.4121971  23.6760349
  74.9770203  27.1880131  23.1168213  74.1439514  25.9553070  23.3950558
  59.6593208  17.9236298   2.8192217  60.0616341  17.9178314   3.6877506
  60.0894928  18.6454678   2.3608165  61.1599808  55.8571396  68.8318176
  60.6904297  55.7736969  69.6617508  62.0802994  55.9327507  69.0838623
  24.6860714  64.8646698  41.7236443  24.4660320  65.0892563  42.6277313
  25.6106758  65.0968399  41.6374207  82.1951065   1.0218533   2.1171610
  82.3777542   1.2321211   3.0329444  81.4251785   0.4541271   2.1507277
  21.9177761  46.3002319  10.1848431  21.8831043  47.2565002  10.1606998
  21.9250774  46.0842934  11.1173401  72.8332596  28.7420826  18.9527206
  72.0930634  29.3241081  18.7807064  73.5725174  29.3319550  19.1003132
   7.8440681  28.8673477  -0.0968110   8.7443008  28.9887810   0.2049614
   7.3191319  29.4109688   0.4906827  75.0887375  45.9088631  41.3956413
  74.7108078  45.4292450  40.6585045  75.9002151  46.2799301  41.0491829
  81.1481476  28.1301003  26.4397240  80.4653473  27.9028625  27.0708981
  81.9406509  27.7200680  26.7861938  79.5207062  43.8890381  22.8538628
  80.2209625  43.2428207  22.9448071  78.7493668  43.4601173  23.2244072
  16.9127159  43.2175598  58.3689003  16.0635929  43.5589790  58.0884476
  17.3387623  42.9396019  57.5580635  44.0285950  68.6411743  81.1303864
  43.1601105  68.4182510  80.7953186  44.3324623  69.3458099  80.5582199
  75.0994339  16.1227818  11.8405628  75.8027191  16.3875122  12.4334669
  75.3285446  15.2305336  11.5805035  26.5701237   6.5614443   8.3728476
  27.0625744   5.7421832   8.3224955  26.4478302   6.7101455   9.3104849
  70.8911972  24.6581497  49.0068665  71.0077133  25.5732727  48.7515182
  70.0883789  24.3858185  48.5624008  23.3720226  25.5731487  16.7457829
  23.0113297  25.2049561  15.9392052  22.6040573  25.8292885  17.2565212
   3.0360365  63.8119164  50.4012375   3.6097152  63.0695114  50.2116127
   3.6207559  64.5696793  50.4124794  79.5408173  60.7940292  67.6269150
  79.0020065  60.1341972  68.0634155  79.9346161  61.2932396  68.3424149
  46.1291656  46.7108345  14.5066032  45.8663216  47.2409630  15.2590036
  45.3568726  46.1828079  14.3041439  44.7009201  40.2385979  30.8497066
  44.6978874  39.2821388  30.8121834  45.5340729  40.4593201  31.2660828
  75.6561813  35.1397820  27.9043427  75.5778275  36.0699234  27.6923656
  76.1625519  34.7710152  27.1805820  22.0501213  19.2762623  47.2368546
  22.8535213  18.8976536  47.5938301  22.0225601  18.9689693  46.3307381
  20.7087936  25.6169243   5.0156598  20.2311001  26.4222794   5.2142682
  20.1489983  24.9172153   5.3522162  27.0925961  64.8407440   9.0537243
  27.5355301  64.2202988   8.4748516  26.6043015  65.4134674   8.4622946
  35.8274117  67.3664322  65.9193344  36.0727463  68.1900330  66.3409119
  35.2969818  67.6308212  65.1676865  19.7763691  53.2786674  44.5429382
  19.7768497  53.2148170  43.5878677  19.3603859  54.1209908  44.7264633
  46.2683678   4.8147020  28.5365486  46.3508034   4.5230227  27.6286068
  46.1518440   5.7627168  28.4739227  59.9339066   9.9745502  41.9060822
  59.2813950   9.8775682  42.5996666  60.5965996  10.5551729  42.2801743
   6.2951059  45.1493988  53.4347191   6.2739806  45.2551689  52.4836159
   6.4840426  44.2205849  53.5682793  46.4924774  44.8848839  32.8798027
  47.2866783  44.7345848  32.3670769  45.7870598  44.5314331  32.3378716
  51.3051376  60.8030586  33.6662216  50.6385651  60.7705345  32.9800339
  51.4719238  59.8854866  33.8818054  44.7937126  55.5273743  40.1579437
  43.8436661  55.5259895  40.2747383  45.1297455  55.9761887  40.9337540
  56.9099159  39.7369652   1.7393327  57.5586319  39.2592773   2.2562594
  56.6128769  39.1050262   1.0846208  69.3889999  28.7343235  81.9290161
  69.3288574  28.0076027  82.5490875  70.2022095  29.1818867  82.1627045
  60.1531944  46.9546623  70.3969727  60.7952576  47.5045395  69.9479523
  59.8603706  47.4848824  71.1381531  38.8129044  13.1059055  67.0905380
  39.2380867  12.5531969  66.4348145  38.0108490  12.6350813  67.3169556
  46.0005531  15.2566738  16.4249096  46.5505981  15.1509056  15.6487064
  45.9743195  16.2020054  16.5728683  56.0058479  52.2691383  83.7048492
  56.4650230  52.5947037  82.9306412  55.5014000  51.5203514  83.3869171
  66.6191483  26.6821251  84.6110001  66.7100067  27.5156841  85.0726852
  65.9231110  26.2227402  85.0808182  59.1766777  69.0790100  75.5454102
  58.4118996  69.4104233  75.0747604  59.1911316  69.5793076  76.3613358
   8.9104185  26.5754642  66.7925491   9.6080942  26.2312317  67.3502121
   9.3331966  27.2615108  66.2759933  76.3398056  31.9202232  11.7032804
  76.2606506  32.7597733  11.2503786  76.8726425  31.3817425  11.1181698
   1.2402203  43.4099464  66.5912628   1.0934591  43.5973740  65.6641388
   1.5317382  44.2433929  66.9608841  40.0616379  30.5578403  67.8198853
  40.8241463  30.7066441  67.2607193  39.5598717  29.8810482  67.3655548
  67.9676514  37.7527771   3.5569544  68.2454834  38.2419853   2.7825418
  67.0428085  37.5618629   3.4005902  52.6608658   7.0120354  55.2767982
  53.4306450   6.8524013  55.8228645  52.8920898   6.6447697  54.4236412
  45.8550873  57.0477943   3.1713135  45.1397705  57.3307152   3.7409742
  46.4310837  57.8101044   3.1135299  83.3437805  41.1309090   7.5558772
  83.1384430  40.4095268   6.9611692  82.7769318  41.8467789   7.2687435
  61.5481682   9.4719563  61.4620972  61.7327461   9.7906666  60.5785904
  60.9417305  10.1162310  61.8273010   2.7096279  23.0723820  40.6873360
   2.7939126  22.8147602  41.6053543   2.8683925  24.0163231  40.6879234
  72.6682816  17.8667545  27.6900806  72.2493591  17.9330788  26.8319798
  73.1919403  18.6646652  27.7632771   1.4517854  61.0192680  75.2993088
   1.9717185  60.9415817  74.4993973   1.9455589  61.6289749  75.8476486
  33.9638443   0.8209892   0.9610470  34.6670074   0.4203320   0.4499000
  34.3235779   0.8970539   1.8448113  86.0945358  14.1219492   2.8952093
  85.6210938  13.5397024   2.3010085  86.3173828  13.5697107   3.6446123
  64.6914749  30.4252396  56.6134720  64.5156937  29.5578499  56.2488213
  63.9705276  30.5789547  57.2240829  59.0706367  59.8928757  61.5984039
  59.7147102  59.7580719  62.2935524  58.9463043  59.0244980  61.2154007
   5.8228736  30.2170048  80.5075150   5.8014979  29.5316334  81.1753845
   5.7577453  31.0345325  81.0011215  18.6894188  15.4335670  21.3475800
  18.5068932  16.2696400  20.9187450  18.2085400  15.4782619  22.1740112
  13.0936489  40.0539856  14.4650307  12.2725830  40.4844780  14.2267923
  12.8317652  39.3509026  15.0594435  79.2339478  14.7293568  69.0826569
  80.1573029  14.7324581  69.3349152  78.7602615  14.8459244  69.9062271
  80.9624100  44.7326736  84.7695236  81.1265488  44.7478638  85.7124176
  81.5581665  45.3911018  84.4120636  68.3445053  44.3837395  16.7255306
  69.1420746  44.3079758  17.2493401  67.6481018  44.0709953  17.3029823
  48.8806190  32.1561241  61.5401535  48.3642921  31.5626965  60.9947319
  49.7749863  31.8205757  61.4789085   3.1948631  31.3415184  58.0215073
   3.3983099  30.4377785  57.7804832   3.8162451  31.5489502  58.7194252
  43.2946548  31.1791210  86.4553986  43.1376038  30.5853214  85.7212524
  43.3908043  30.6025963  87.2134247  79.1556854  16.2295341   7.7258053
  80.0582504  16.0511856   7.9899993  79.2184372  16.4592190   6.7986927
  59.3971329  69.3710251  15.6710911  59.3732376  68.7906494  14.9102859
  58.4823685  69.6119461  15.8173761  62.0285263  27.5563641  78.5868530
  62.4529266  26.7950649  78.1912003  61.9079475  27.3132343  79.5047760
  71.6577530  29.8314800  49.2927132  70.8420029  30.2850857  49.5049095
  72.2986908  30.1920948  49.9053955  55.3179054   8.3505373  78.4297485
  54.4841728   8.0502977  78.0678329  55.7697830   8.7531977  77.6881943
  47.1172638  24.9131184  38.8421440  47.8957558  25.4619579  38.7475014
  46.6024551  25.0898418  38.0547600  74.2351303  59.1747322  88.1827545
  73.5525589  59.5621910  87.6348572  74.6946259  58.5694656  87.6007309
  42.9343948   3.6579866  58.7799950  43.1280289   3.7272854  59.7148399
  43.5753975   4.2311649  58.3594971  74.3095245  46.8153648  28.0338421
  74.4525604  46.8952904  28.9769135  74.1358109  47.7100449  27.7412624
  69.5998917  50.5939255  25.3645802  70.0579071  51.0201035  26.0890312
  69.7925186  51.1420670  24.6038780  16.9487858  48.1663971  21.1474705
  16.3110600  47.4970551  21.3954964  16.5501270  48.6116867  20.3997936
  11.2849617  69.1865005  71.5528107  11.6448355  70.0627518  71.4152985
  10.3721189  69.2559052  71.2732925   6.7833247  48.3132057  48.2242012
   7.5147924  48.5137672  47.6402817   6.8657432  47.3755302  48.3979988
  86.8526077   0.7662399  29.5362320  86.6205902  -0.0075645  30.0496769
  86.0378571   1.0185357  29.1017704  68.3621750  22.7350616  50.6383553
  67.8600006  23.4565296  51.0172195  68.9004745  22.4124336  51.3611107
  40.1027985  42.4443359  70.2404861  40.1702538  43.1494713  70.8842773
  39.1738396  42.2136307  70.2343979   6.7139711  36.9968491  78.3405838
   7.1583695  36.8351059  77.5083694   5.8245621  36.6702080  78.2046051
  43.0528603  66.3469162  17.4025211  43.8850937  66.5697708  16.9854469
  42.3871307  66.7026367  16.8138809  38.0365448  61.1928673  78.5912018
  38.0468369  61.0583305  79.5388489  37.9316978  60.3144341  78.2257080
  31.7690620  42.8392448  42.8810081  32.1563530  41.9896812  43.0919113
  32.4475517  43.4749107  43.1086349  72.9382248  51.3827400  37.3017082
  72.1576004  51.4241943  37.8540955  73.3062439  52.2655182  37.3404961
   9.7782583   2.3940642  87.1421204   9.3182392   1.5881710  86.9072800
   9.4162989   2.6368153  87.9943466  78.0242538  23.1644020  60.2365341
  78.5097961  23.4373550  61.0149765  78.6195145  23.3423195  59.5083542
  77.0525436  69.2121582  33.1129227  76.7389450  68.7566071  33.8941765
  76.3343582  69.7975082  32.8725052  70.7430573  33.7816734  54.4697952
  70.6503983  33.0276985  53.8874168  70.2314911  34.4730949  54.0497017
  16.4574852  67.3500366  63.0772629  16.9343548  67.3213959  62.2477989
  15.8207626  66.6382980  63.0121727  38.1596565  47.3417282  40.7934380
  37.4394684  47.7668495  41.2590904  38.3033333  47.8904190  40.0223808
  72.3864975  38.4706612  29.0619984  72.4565964  39.0250244  29.8391743
  71.9275513  39.0136490  28.4210873  38.7106934  65.3285065  14.8890667
  38.1444473  64.5597610  14.8210011  39.3525810  65.0945663  15.5595026
  84.7648163   6.3628216  50.2397995  84.8542480   6.6800327  51.1384735
  84.4044495   5.4808397  50.3318710  16.7055264  60.0524635  19.6156750
  16.2640724  60.6721649  19.0348835  17.1688042  60.6036491  20.2463894
  34.2239685  71.1834564  57.6571541  35.1241341  71.1064835  57.9733963
  34.1539154  72.0879059  57.3517303  57.7197495  69.0042572   3.7851343
  58.2154541  68.2409744   3.4886398  57.7665405  68.9639587   4.7403402
  24.1954765  23.4320183  72.4077988  24.8801727  22.8667412  72.7654114
  24.2923107  23.3544388  71.4586792  79.1700897  32.6483879  36.4142685
  80.0287399  33.0655136  36.3439484  79.3602905  31.7560158  36.7036285
  57.0318336  26.5729675   2.5448871  57.2866440  25.8905392   1.9239241
  56.6728172  26.0947533   3.2923164  10.2022142  44.8920403  51.8186569
  11.1341991  44.7209358  51.9541473   9.8652868  45.0888634  52.6927109
  21.4729557  43.7174683  48.1955261  20.8148193  43.0224686  48.1875763
  21.9887943  43.5679283  47.4032021   8.3278933  17.8735180   0.4445974
   9.0646992  17.3311138   0.1632675   7.8635850  17.3336754   1.0843006
  50.5039330  11.4504814  61.6152725  49.9283524  11.9586620  61.0437012
  50.0914574  10.5881491  61.6650543  10.4609642  37.9576569  40.1253815
  10.1831160  38.6425934  39.5171928  10.1307631  37.1463165  39.7394676
  77.4370804  37.9510612  64.2611542  78.1548538  37.7482681  64.8610840
  77.8038330  38.5985298  63.6590729  29.8331356  66.2038803  28.5555573
  29.2054234  66.9060974  28.3849792  29.6548519  65.9370956  29.4573727
  77.6989594   3.4231203   3.6543016  76.7994308   3.1046298   3.5791762
  77.7649765   4.1123900   2.9934077  27.4205074  67.1109619  45.7010727
  28.3358631  67.3831253  45.7665100  27.3420944  66.7440414  44.8204765
  52.2754402   9.9591656  24.5467415  51.5093575   9.7318897  24.0197735
  52.6387367  10.7346869  24.1191750  57.5153580   9.6630545  30.1267681
  56.6799774   9.8554764  30.5526085  57.9934616   9.1340322  30.7653465
  78.8968048  56.1018105  11.2392807  79.7581787  55.6898918  11.1715517
  78.7952423  56.2926865  12.1717424  70.8534470  62.8472404  25.2203426
  70.8079376  62.9817200  24.2737293  71.6077881  63.3659172  25.4999542
  13.6884661  65.7249985  39.6891251  14.0518456  65.8966446  38.8203773
  14.3655109  66.0251923  40.2955284  71.8873596  58.9246635  38.9019279
  72.2920074  58.0852814  38.6830101  72.4174500  59.2654305  39.6224213
   0.8042319  19.6785908  58.1324005   1.5903164  19.8696957  57.6207542
   0.6757108  20.4573631  58.6739044  61.4071617  14.5341272  35.0145226
  60.9241486  15.3529997  35.1257782  60.7691154  13.9292192  34.6360893
  27.0681992  56.4630699  69.6736755  26.4207306  55.7611427  69.7393570
  26.5476933  57.2617569  69.5876236  14.2767315  11.3318224   8.9317245
  14.3419676  11.0129900   9.8319035  15.1743708  11.3003492   8.6008406
  49.4411621  13.6273088  36.6473923  50.3480301  13.3251648  36.6977310
  49.0961304  13.2182655  35.8537483  70.0879211  15.5146122  35.3291740
  70.9794159  15.8629980  35.3197289  69.7954483  15.5803213  34.4201202
  55.6393509  13.2704582  54.5836143  55.6174545  12.3901653  54.9588966
  55.9123039  13.8330612  55.3083229   0.8859795  59.3412514  22.6451073
   0.4857460  58.6697769  23.1975250   1.7623399  59.0054283  22.4568310
  56.0753822  50.1607170  63.8820763  55.8934555  51.0398903  63.5501289
  56.9012909  49.9137573  63.4660072  54.8040161  52.4656372  62.9839630
  54.6349831  52.8903847  62.1429825  55.5370369  52.9555435  63.3566666
  55.2016106  58.1099815  76.9487457  54.8839073  57.5708237  77.6730423
  54.5603485  57.9756241  76.2509232  10.3341837  58.5830231  54.0598831
  10.2907953  57.9031944  54.7323265   9.9744797  59.3623276  54.4836006
  32.7769508  10.0226851  86.5383682  33.7096291  10.1938505  86.6689224
  32.3351631  10.7037783  87.0454865  62.1073112  67.6533279  55.9833069
  62.1738815  66.8333206  56.4725800  61.4149628  67.4939575  55.3418350
  56.8342972  51.9366112  33.7793388  57.7680855  51.9640274  33.5707321
  56.6460075  51.0077438  33.9134293  76.4994354  45.3220520  58.2469978
  77.2483292  45.1838379  58.8269043  76.6186447  44.6821289  57.5451965
  47.2789078  59.2205162  69.5303955  46.9371071  59.7867928  70.2222977
  47.0045319  59.6439323  68.7169647   1.8851619  16.0545330  77.9366379
   1.6736050  16.9570503  78.1752548   2.5400400  15.7838802  78.5801544
  35.5246544  60.1896172   4.4673691  35.2453117  60.9506187   4.9763646
  35.6326942  60.5236282   3.5768650  37.4150238   5.9864116  15.3681221
  37.5648346   6.5671849  14.6221390  38.2014503   6.0794430  15.9058104
   0.7981856  62.2438240  21.9835682   1.6110734  62.5823708  21.6082954
   1.0007123  61.3375168  22.2155724  68.9528961  20.0263233  17.7440548
  68.1211624  19.6412640  18.0200500  69.2200470  19.5030327  16.9883881
  38.6375504  34.5875015  72.5786591  39.3694382  35.1654167  72.3628159
  39.0144081  33.9333000  73.1670761  34.6811943  62.0671692  66.7956848
  35.1499939  62.9016991  66.7912827  34.0172234  62.1690292  67.4775848
  21.9977970  45.2930489  85.8154068  22.4422188  44.7779198  85.1420822
  21.3704128  45.8298111  85.3311462  72.3191986  26.4689922  63.7952690
  71.6769028  25.7706261  63.6688766  72.0509644  26.8967953  64.6084518
  16.5683937   2.5612159   9.0992832  17.1869793   2.5775094   9.8295698
  17.0278206   2.0862262   8.4067926  70.3634109  23.3326168   5.8605680
  70.8232803  22.7936172   5.2169619  69.7314529  23.8340073   5.3453326
  43.2069664  16.1460094  43.4928856  42.4168243  16.3219070  42.9820366
  43.8171196  16.8373413  43.2359695  64.3728333  48.7076149  56.1718330
  64.1470566  49.6361160  56.1157990  64.0255737  48.3275604  55.3648643
  44.9058037  21.2287102  12.4399652  44.1441078  20.9129963  11.9537764
  45.6560822  20.8490105  11.9826431  11.1406164  64.3992920  65.6720581
  11.2802553  63.5371513  66.0637817  10.5201292  64.2414093  64.9605103
  55.9040642  28.5455132  17.9895153  55.4938736  28.1209030  17.2360687
  56.8355141  28.5737305  17.7707996  46.2052498   7.5823150  81.0373764
  45.8560905   8.1951170  81.6845169  45.4548531   7.3645306  80.4844666
  78.1267471   8.9957972   4.9847488  78.9622650   9.2829113   4.6163697
  78.2843170   8.9486179   5.9277115  75.1185455  28.4343662  47.6626701
  75.3794174  28.2282047  46.7650757  75.8823013  28.8710766  48.0397568
  51.5881920  46.4378967  74.7600403  51.7741814  46.9528351  73.9748764
  51.1058922  45.6762619  74.4382706  25.5567131  13.9661932  80.3889236
  26.1790066  13.3534088  80.7806854  25.6472874  13.8294039  79.4458847
  59.3482323  64.4072647   2.3546891  59.0332527  63.5053215   2.4140027
  58.5634613  64.9430847   2.4698489  13.8821726   2.4393833  17.0436935
  13.0114088   2.2938011  16.6738167  14.4778214   2.3374374  16.3013725
  79.2819519  16.6203995  38.9384384  79.0611572  17.5456276  38.8315010
  78.6384964  16.2916145  39.5662079  35.4012451  70.1569366  34.1315842
  34.4547043  70.1732330  34.2730942  35.5001793  70.0532303  33.1851768
  31.8433437  49.5906563  40.5242577  32.3014412  49.0825310  41.1937256
  32.0435371  50.5022545  40.7367210  43.9400558  27.6323681   3.5864882
  43.3262901  26.9239235   3.7804742  43.5712204  28.3967285   4.0291471
  39.4616661  59.4427185  34.1179161  38.9127388  59.1953430  33.3737984
  40.3579445  59.3125954  33.8080978   4.1359797  22.1570759  54.6589241
   3.9210036  21.4520130  54.0482674   4.4354401  22.8745499  54.1005440
  32.4672318   5.1142936  70.2294617  32.5955086   4.3007059  70.7171631
  33.1151047   5.7170196  70.5944443  67.9782410  61.6018486  25.0216217
  68.1205292  60.6589241  25.1045609  68.8508911  61.9629517  24.8656673
  37.1766205  44.1134911  45.5958519  37.9106865  44.4359283  46.1187401
  37.1722527  43.1682205  45.7464333  48.0355263   9.8765373   4.4731841
  48.9888420   9.9294491   4.5411592  47.7633057   9.4232149   5.2710733
  74.5792389   1.3317519  27.3664055  75.0614929   1.7751555  28.0643005
  74.1336975   2.0373313  26.8974934  11.7040930  52.4927063  50.0157127
  11.3481760  53.3618431  49.8308868  11.2107468  51.9051743  49.4433098
  78.2448578  53.8761101  72.1129227  77.3590088  53.5447006  72.2601395
  78.2114258  54.2699966  71.2411575  36.8797531  57.2031403  44.0195312
  37.5357475  57.8951225  44.1035728  36.8303490  56.8126945  44.8920822
  72.2747345  22.4086475  59.9240532  71.5867081  21.7434006  59.9415016
  72.4618683  22.5353355  58.9939117  45.5444527  25.6458645  66.1509857
  46.0968552  26.4064827  66.3313828  45.0944366  25.4750481  66.9783554
  51.9548378  34.6043663  29.1479549  52.8443985  34.4380417  28.8360996
  51.7076187  35.4324074  28.7363014  57.3146744  18.9315338  23.7318439
  58.1200562  18.5887547  24.1192665  57.5713959  19.7701626  23.3484001
  50.4321976  70.5153732  41.6628418  51.2903328  70.4807205  41.2401886
  50.5273972  71.1811295  42.3439713  29.1519070  67.1881027  64.9510345
  28.9475460  67.2644806  65.8830414  28.8769741  68.0248489  64.5761948
  70.6757889  19.0088940  46.5340652  69.8115387  18.5991020  46.5710602
  70.5817947  19.7081947  45.8872452  16.9302006  23.3934021  83.5707245
  16.8974476  24.3390598  83.4261856  16.9838276  23.2981625  84.5216599
  79.7798462  13.1538696  85.8600159  79.5103073  13.1014318  86.7769852
  80.0363159  14.0679169  85.7376556  28.2119751  47.1257973  16.7167721
  28.6240864  46.2702255  16.8367424  27.7606106  47.0583649  15.8753729
   5.4481750   2.2326913  56.5020065   5.5217428   1.5036240  55.8861504
   4.5361629   2.2103465  56.7917786  82.3894119  45.2808189  43.8215103
  83.2547684  44.8745041  43.7735825  82.5665588  46.1973801  44.0331001
  56.8234482  37.1811523   0.3550400  56.5513268  37.3976440  -0.5367631
  57.7763939  37.1072807   0.3034028  66.6719666  36.3076897  14.2100248
  66.5246429  37.0954666  14.7334137  66.0104446  35.6882591  14.5181332
  85.8260193  39.8677368  70.9330750  85.9092102  39.8282013  71.8858337
  85.8920746  40.7997894  70.7253571  40.6477737   1.3045865  83.8969803
  40.9496956   0.7928486  84.6474457  39.7069664   1.4075533  84.0401993
  11.2330999  12.4100351   2.3224390  11.9328260  12.0995750   1.7477826
  10.4797907  12.5234241   1.7428709  14.0563831  52.8654327  77.9230347
  14.6028976  52.4838829  77.2360306  14.6799812  53.1882820  78.5735168
  49.2898331  61.7553558  35.7226143  50.0992622  61.8047867  36.2311554
  49.2708549  60.8583069  35.3891907   6.7717013  65.5205994  15.9666328
   6.9682345  64.6400681  16.2864342   6.8425126  65.4509964  15.0145969
  15.0038490  56.1701088  64.3292313  15.6806784  55.5506477  64.6020126
  14.3461323  56.1272278  65.0233536  28.6735630  49.7706604  68.3977814
  28.8542690  50.2190552  69.2239227  27.8835030  50.1947899  68.0628891
  63.9668465  62.9887505  86.4045258  63.9800911  62.3229294  87.0920868
  63.4264717  62.6076469  85.7124405  43.3857994  39.5129814  61.1860123
  43.3898811  39.9582863  60.3387108  43.2888527  40.2176971  61.8264885
  84.8880081  25.7553024  34.7664070  85.1039963  26.0242443  33.8735161
  85.7304764  25.5232124  35.1570587  58.4078026   9.4947071  44.2848587
  59.0616226   9.7670021  44.9287567  57.7682457   8.9930449  44.7903633
  14.0421257  45.4489098  57.0883560  14.5128565  45.1702042  56.3028831
  13.1190929  45.4231377  56.8362083  84.7573929  63.2589340  86.1226730
  84.6245804  63.8936958  86.8267136  85.4111252  62.6511612  86.4683304
  84.2213211  35.3950920  25.5226231  84.4075394  34.4750099  25.7097073
  84.2261124  35.8196716  26.3804932  68.3368073  71.1761551  31.6431293
  68.0610123  70.3468170  31.2527905  67.8094635  71.8382950  31.1962414
  84.8359299  44.9709740  67.7657242  85.4407959  45.3434944  67.1241684
  84.1462860  45.6287651  67.8548203  68.4685287   2.0892081  50.4459953
  68.1900482   2.8154500  49.8880920  67.8664322   1.3770138  50.2303734
  77.9454269  34.0753288  31.8549290  78.1826248  35.0025711  31.8410168
  78.1187286  33.7703857  30.9643078  32.1656456   0.5986874  19.5288734
  32.4055023   1.5149028  19.3901329  31.7402725   0.5896620  20.3863163
  43.3921890  58.7383041  47.0513535  42.6392288  58.7977333  47.6393585
  43.5532455  59.6409264  46.7764626  46.9268608  58.6922531   8.0110369
  47.6786499  58.5535431   7.4350095  46.1696930  58.6716728   7.4257979
  76.6723557  22.1099949  82.1203690  75.9042435  22.3904495  82.6179428
  77.0362396  22.9206295  81.7644348  66.6690445  71.5270004  49.5557327
  66.8177643  70.5896149  49.6799355  66.0975647  71.5793991  48.7896347
  68.6240616  39.5788383  78.8569565  68.7356949  38.6712608  78.5739899
  67.7541885  39.8230133  78.5408325  67.8743057   3.3640110  75.2010345
  67.0178680   3.1712246  74.8194809  68.4871216   3.2755430  74.4710541
  25.0609837  10.0552425  84.7814789  24.2059307  10.0107708  85.2094269
  25.6858006   9.8300028  85.4707565  33.8295135  32.8858299   8.4892197
  33.0952721  32.2995758   8.6720638  33.8264961  33.5076370   9.2169409
  27.7681732  38.8830757   9.1395016  27.8287792  38.6349220   8.2170162
  28.6763821  39.0116272   9.4131136  58.3835526  59.9533920  85.0831604
  57.6332932  59.5280113  85.4983597  58.0483360  60.2618866  84.2413177
  44.2517624  40.8661728  45.2468834  44.2091599  41.1236191  44.3259392
  43.9828796  39.9475250  45.2514572  27.7104321  66.4751968  16.5183010
  27.7293587  65.8129883  17.2092133  28.3060303  67.1587448  16.8253117
  55.7865601  19.5908279  76.6302719  55.1318970  19.4985371  75.9380798
  56.1253395  18.7049160  76.7591858  44.3550034  50.0633049  71.6236267
  43.5034485  49.6738014  71.4252014  44.7204971  49.5037498  72.3088608
  19.8654041  39.4794121  54.9136200  20.1930275  40.0716515  54.2367554
  19.1085892  39.0523148  54.5123062  10.6736403  23.6328182  60.5881042
  10.1778097  23.7537136  59.7783089  10.2913589  24.2625351  61.1992912
  63.3904228  60.0185471  30.4618702  63.6907463  60.6836243  29.8424282
  63.1439552  60.5130997  31.2434711  64.9265137  28.9765472  31.0161057
  64.7544479  29.2572880  31.9148884  65.3879013  28.1431255  31.1096821
  74.3033752  24.7469273  84.4552536  75.0137558  25.3126831  84.7577591
  73.5105820  25.2670155  84.5864410  51.7908058  22.4078617  54.2751274
  51.4387665  22.9587555  53.5759735  51.8654747  21.5388870  53.8807373
  86.9701691  17.4896164  18.8228893  86.5041733  16.7466354  18.4394016
  86.3240891  17.9107571  19.3898621   8.9998255  22.0837955  67.5748672
   8.3299561  22.5230045  68.0988846   9.8286867  22.4237881  67.9119492
  43.2772141  70.8224716  31.4169388  42.4456291  71.2381592  31.1891251
  43.4762344  71.1498260  32.2941284  84.7284851  55.7357483  42.3126373
  85.6575394  55.8918686  42.4821205  84.7021713  55.3941154  41.4188652
  53.8602028   7.3599000   4.0242758  54.0610542   7.8497434   3.2268143
  53.8460236   8.0223255   4.7150893  52.9258614  51.2872696  47.3742294
  52.6568909  51.7687645  46.5918922  53.8644066  51.1417961  47.2550697
   8.8703613  60.1406746  84.6263962   8.6504383  60.2827110  85.5470963
   9.8261557  60.1846466  84.5989151  11.5041075  43.4080391  41.1254616
  12.1817198  42.7365608  41.0467949  10.8325472  43.0071259  41.6772804
   7.6979704  53.0729103  39.6906967   7.6062913  53.2365799  40.6293335
   8.1681442  53.8378563  39.3589897  82.7875137  30.9481869  14.6752348
  83.4968033  31.0084133  15.3151627  82.0684052  30.5347729  15.1529398
  49.5603905  37.8288918  22.0043430  49.8879738  38.6955223  21.7637825
  50.2806206  37.4269371  22.4900761  49.2076569  47.5688248  28.3791866
  50.0297966  48.0002708  28.1464386  49.1466560  47.6663170  29.3294525
  64.1878891  43.4669838  33.2167282  63.8849411  42.6208420  33.5461197
  64.3870544  43.9732208  34.0043144  63.5514412   0.9356060  48.7372475
  63.0189896   1.6038156  48.3057137  64.1734390   0.6546979  48.0660934
  30.9540348  57.2962074   2.5560396  29.9971466  57.2846909   2.5775828
  31.1786461  58.2096863   2.3790133   5.8361192  40.5481262  47.4989319
   6.6713629  40.9787674  47.6809998   5.4442115  41.0714493  46.7998123
   5.1455102  35.0792198  61.0180206   5.2079492  35.1218758  61.9722290
   4.3520641  35.5715866  60.8076668  37.7888985  63.8075142  45.0306854
  38.0215034  63.2469635  44.2904739  38.1031990  63.3317108  45.7994919
  53.6225166  70.8351746  48.8426399  53.6604614  71.0715790  47.9158707
  52.7998810  70.3543243  48.9336777  73.9872665  36.8961182  72.7236862
  73.3924408  36.2266808  73.0617218  74.6150055  36.4105682  72.1884995
   2.7289681  11.8126612  55.1406937   2.8240471  11.6173067  54.2084770
   2.5173047  10.9696722  55.5416908  62.9892693   9.7461271  78.7465363
  63.7006226  10.2516670  79.1397781  63.0723343   9.9068985  77.8065948
  39.7766151  52.6509857  63.4886589  39.0277748  52.0625725  63.3925209
  39.5969772  53.3684921  62.8810844  14.6351528  13.7739019  11.7882109
  15.5624371  13.9219580  11.6025906  14.5212498  14.0707312  12.6910677
  74.7712326  70.7182541  19.0057106  74.3687286  71.1294174  18.2407436
  75.6111603  70.3885651  18.6862621  50.6499786  30.1464462  61.5242043
  51.1913452  29.7805347  62.2236748  51.2771530  30.4264355  60.8575020
  16.6354313  28.3159962  76.5004044  16.6968060  29.0345192  75.8709641
  16.0269718  27.6963100  76.0979156  42.6171074   9.9304333  74.5709991
  41.9484215   9.4855947  75.0917740  42.1230927  10.5126553  73.9937668
  61.1128426  19.6256027  18.1356945  61.2330742  20.3483543  18.7516556
  60.7786255  20.0413494  17.3409081  56.0690804  12.3169994   5.5148482
  56.5589218  12.4507561   6.3262653  56.5707550  12.7906561   4.8513713
  60.9288750  26.7425537   1.5235391  60.1992340  26.4844589   0.9602931
  61.5984459  27.0601120   0.9176833  84.2526474  69.9069290  85.5437317
  84.1303558  69.1863861  86.1618652  84.8096313  69.5410843  84.8565903
  18.3944778  47.4102745  76.9660873  18.2003422  48.1423492  77.5514221
  19.2676697  47.1188698  77.2284851  76.8098679  63.2532654  59.0203323
  75.9497986  62.9305534  58.7513046  77.1569672  63.6879921  58.2413788
  29.5665779  33.4186630  16.4304104  30.2446632  32.9458237  15.9478598
  29.9092751  33.4854126  17.3216648  45.3347015  63.2390594  59.8501282
  44.4822693  62.8039780  59.8328552  45.3067589  63.7896729  60.6326103
  42.9725189  46.4832077  18.1641541  42.4879570  45.6591911  18.2134628
  42.3407440  47.1491776  18.4354172  77.3345108  37.1080856  67.6237411
  76.8582535  36.2891083  67.4870377  76.6498032  37.7668076  67.7398911
  15.5543756  62.3356667  18.5375309  14.9097528  61.6288147  18.5051041
  15.6081238  62.6523552  17.6358356  85.0979691  36.5665131  82.0053406
  85.8694153  36.5642319  82.5719910  85.0270386  37.4712524  81.7009583
   1.6213528   2.0186858  13.5898743   1.6979246   1.1274617  13.2491570
   0.6958724   2.1097121  13.8166609  55.0511551  65.4905090  25.1103420
  54.0991249  65.4576035  25.2041016  55.3169174  66.2491684  25.6299973
  26.6850338  46.6064835  72.3107147  26.3052616  46.0407715  71.6384277
  27.2885857  47.1749763  71.8324203  38.0858383  33.8198471  20.7144871
  37.9707146  34.5271416  21.3490849  37.3088608  33.2715111  20.8234158
  19.9949112   2.1869626  81.1035309  19.9759426   2.8177271  81.8232574
  20.1247940   2.7213509  80.3200836  66.2703934  57.8353195  29.4829407
  66.4606552  58.4880257  28.8091393  65.3205032  57.8755608  29.5939541
  80.5983810  69.1121368  29.3592033  80.5103073  69.1667557  30.3107777
  80.8098831  68.1939621  29.1905518  67.3402786  48.7183228  12.8279018
  66.4422379  48.8303108  12.5161095  67.3058624  48.9669151  13.7516174
  65.0836945  50.9712334  17.0384293  65.2531891  50.5750656  17.8931541
  65.1874313  51.9113770  17.1853905  69.5798798  37.4134445  27.4094276
  70.3533554  37.9216805  27.6536961  69.3708572  36.9041252  28.1924572
  39.1226768  45.0848656   1.1496303  40.0085754  45.4248238   1.2755095
  38.7886086  44.9525299   2.0368264  22.4033737  51.6401062  51.3896790
  21.9032307  52.4462852  51.2625351  21.8592510  51.1100044  51.9720497
   3.6103146  37.8677254  81.0838928   4.1550293  38.5697746  80.7280273
   4.1911502  37.3911171  81.6769409  41.0222931  53.2176628  41.1738472
  40.9214668  53.6019936  40.3030128  41.9654579  53.2362480  41.3361130
  43.5740738   6.2527847  36.4636307  44.2512703   6.8576794  36.1607475
  42.9502373   6.8069925  36.9325829  56.4636993  50.0321426  59.9673767
  56.7613029  50.6848907  59.3336678  55.5566330  49.8535728  59.7192345
  30.4232121  11.7944565  81.3891449  30.8998280  11.7687025  82.2188416
  29.9499416  10.9629927  81.3588791  26.3514843   5.5602093  73.7658386
  26.6923008   6.3911266  73.4347000  26.8775558   5.3789062  74.5446854
  64.0672607  30.3796539  41.8251190  63.8308411  30.8462887  42.6267357
  64.6347122  29.6677837  42.1208687   0.8487695  32.4981155  77.7541656
   0.4409782  31.9182091  77.1110077   0.2389495  32.5040359  78.4919434
  70.8740540  19.9120636  83.7744446  70.6367722  20.4381599  83.0107956
  71.8127365  20.0622540  83.8864594  15.4078827  45.1692505  16.5069084
  14.8266640  45.7983322  16.9343109  14.8612165  44.7521553  15.8410120
  80.1908798  55.1848145  66.3976135  80.7928467  54.6209869  65.9118500
  80.4410858  55.0688591  67.3142242  53.9039841  54.2785873  20.0338173
  53.9724884  53.7554092  20.8324566  54.8073006  54.3743973  19.7320347
  28.6572800   0.1232308   1.8654176  29.0160179  -0.5882327   2.3958507
  29.4253979   0.6100048   1.5666225  57.3097801  32.3799210  49.0192261
  57.7017097  33.1374321  48.5847168  57.5811272  32.4613304  49.9335442
  78.2264786  63.7605858  75.3445206  78.3940048  63.9920807  76.2580795
  79.0667725  63.8934860  74.9057999  73.2257767   1.2798833  56.0658188
  73.9018250   1.6064613  55.4720726  73.3335190   1.8011802  56.8613510
  84.7937927  21.2646103  76.8747025  85.2647781  20.5540714  76.4393387
  85.1796417  22.0633755  76.5150833  34.9275780  68.7198181   4.1565170
  35.8148766  69.0609589   4.0444841  34.9258766  68.3408661   5.0355101
  11.6255436  65.9066010  86.9114227  11.0271101  66.5540237  86.5386505
  11.0761337  65.3777618  87.4899597  66.6863480  51.2680702  62.6719856
  66.6445160  52.2119713  62.5185699  67.4807663  50.9866371  62.2181931
  57.6422997  40.0574913  28.1900673  57.1821289  40.0517578  29.0293789
  57.9942551  40.9445457  28.1159401   3.4838903   1.1001076  59.5455589
   4.1711197   0.4963365  59.2637634   2.7185946   0.5427991  59.6868439
   5.4841890  55.0946732  23.8536777   6.4037189  54.8289337  23.8626747
   5.5097976  56.0485687  23.9288979  81.9592133   5.7270451  12.8302202
  81.5024796   6.0830646  12.0680656  81.4493866   4.9550762  13.0759382
  58.1121216  16.1210289  69.2503433  57.9211960  16.0399380  70.1847916
  59.0657616  16.1905041  69.2058716  52.9559631  47.2728310  71.1439209
  53.4621925  46.8479347  70.4515076  52.9178696  46.6231537  71.8458481
   3.2495255   7.1932459  79.3601074   3.9626937   7.0918517  79.9904556
   2.5672925   7.6594553  79.8432617  44.0600128  62.8225632  69.6437302
  43.7118454  62.4052582  70.4316788  44.9383011  63.1100540  69.8931122
  12.8722010  36.9307671  76.6887589  13.7759695  36.6734238  76.8709946
  12.3563023  36.4861412  77.3613586  78.1487503  37.9724693  20.9220123
  79.0593109  38.2602730  20.9873886  78.1048279  37.1899948  21.4715900
  79.6703339  65.0308838  33.2961082  78.9140244  65.2248230  32.7423782
  79.9507599  64.1578979  33.0213623  53.9046822  57.5170250  52.1881866
  53.0070152  57.4922676  52.5195732  54.1610756  58.4364777  52.2595787
   1.6966649  47.6888504  41.0513382   1.4507210  46.9330482  41.5847359
   1.4263133  47.4537315  40.1637230  22.9944324  48.6854057  23.3684750
  23.9322758  48.5235329  23.4708385  22.8593025  48.7199593  22.4214916
  78.1903000  66.2544403  55.3003578  78.9320679  66.7598114  54.9677658
  78.5732727  65.4232025  55.5807419  71.9631577  29.7698212  82.0563583
  72.5032501  29.5903492  82.8259811  72.1647491  30.6774235  81.8286514
  12.3181782  58.1994896  19.4668903  12.3858347  57.4196739  20.0178356
  11.7418699  58.7879868  19.9545078  31.4678364  71.3718262  32.6856499
  30.7245712  71.7664261  33.1418037  31.9712677  70.9407425  33.3762741
  53.7926102  26.3703518   6.7538700  53.9285126  26.1597843   5.8300610
  53.3464966  27.2171707   6.7433910  16.6271935  39.2566032  16.7592258
  15.7164173  39.5507469  16.7732868  16.7861214  38.9270020  17.6437244
  55.0993919  63.3099136  53.4749374  55.9945221  63.2428398  53.1425552
  54.7277069  62.4382668  53.3395958  47.1148682  42.7900963  25.4370995
  47.4955139  43.0414276  26.2786293  46.3333282  42.2880402  25.6681194
  27.9664249  63.5728455  27.3704910  27.1107807  63.4309082  26.9655704
  28.3854160  64.2340088  26.8195457  46.4823875  59.3325691  10.6567335
  47.0009155  58.6311378  11.0508842  46.4031677  59.0834312   9.7359257
  10.8271618  43.3620720  70.6331558   9.9233818  43.2104454  70.3567047
  11.0523148  44.2139282  70.2591553   5.3425226  24.4565525  82.1154633
   5.9809523  23.8128166  82.4224472   5.6221600  25.2803841  82.5146332
  33.0116501  64.8086090  78.5756531  32.7495346  65.6769104  78.8815613
  33.7666168  64.9716644  78.0102615  59.9230766  40.1979408  25.0302925
  60.5199699  40.3908768  25.7532921  60.4433212  40.3538589  24.2420864
  10.6354084  45.2841911  32.0864639  11.3422527  45.1256294  31.4607944
  10.5771933  44.4737778  32.5925026  25.6484470  35.1578827  72.1474152
  25.7973499  34.3913155  71.5938492  26.4968262  35.6001358  72.1773529
  74.8225327  64.3791428  78.0865631  75.5864334  64.8388519  78.4349213
  74.6304398  64.8248367  77.2615204  61.9332924  32.4352112  12.2716513
  62.7686653  32.6021385  11.8351688  61.7358780  33.2513504  12.7311945
  36.8369560   9.3098307  46.1463547  36.3597069   9.5282784  46.9468231
  36.3359985   9.7292490  45.4468117  53.2515182  58.5644608  61.0604095
  52.7874985  57.8959312  60.5564423  52.6536636  58.7835884  61.7751045
  52.1364059  48.8025436  44.4216156  51.4142303  49.4101219  44.5814362
  51.7377586  47.9346352  44.4852371  28.9690819   7.9862800  14.9282036
  28.9513817   7.6006660  14.0522928  29.0542564   8.9271326  14.7740183
  39.6844215  57.7203941  56.3068199  39.3516731  58.5794601  56.5666542
  40.3750954  57.9128571  55.6726608  69.9867172  24.4271488  12.4397249
  70.2733231  23.5362644  12.6407499  69.1376572  24.5093231  12.8739824
  44.0925140  47.9933357  16.2738743  43.7114983  48.8212166  16.5665684
  43.6688423  47.3291931  16.8176098  24.0547695  49.4681129  51.2729492
  24.8020649  49.7315636  50.7359428  23.4577465  50.2153778  51.2356606
  79.1568527  34.5023766  79.3099823  80.0079575  34.0718689  79.2292862
  78.7739563  34.1291199  80.1039047  32.9533844  33.5525017  76.6305847
  32.7516747  32.6169472  76.6136475  32.7078438  33.8345451  77.5117188
  69.8888168  62.8742638  54.4238396  70.7695084  63.0932426  54.7282562
  69.5948486  62.1837044  55.0179291  34.2180862  55.0299530  16.3252163
  35.0871010  55.4312592  16.3266792  33.7705688  55.4250298  17.0734634
  75.4957199  45.7493629  75.1620255  75.8194351  46.1495972  74.3550262
  76.2663574  45.6922073  75.7268982  36.2774811  52.8887749   3.4721467
  35.6156425  52.6424561   4.1183076  36.7460861  52.0749016   3.2870646
  72.0828629  43.7727318  21.3052769  71.9268036  44.1626663  22.1654091
  71.5050278  43.0100479  21.2796535   6.5559173  24.0017967  11.2048502
   6.3719511  23.6300659  12.0675230   6.7167268  24.9302082  11.3734446
  84.0691452   7.9820805  77.3610611  83.5054703   8.4592152  76.7520905
  83.4612503   7.5362639  77.9509201  85.7624512  14.6465483  29.8024330
  85.3453674  15.2180481  30.4471493  85.6440659  15.1003399  28.9679909
  25.6650867   5.7070265  33.6167564  25.3456745   6.3285923  32.9626427
  26.5999069   5.6215806  33.4295654  21.9478893  37.2845802  24.1154308
  22.2862072  37.7285576  23.3378353  22.5174198  37.5790367  24.8261795
  53.3687820  57.3130722  45.1690292  53.4070282  56.4366913  44.7859764
  53.2611275  57.1596909  46.1077080  61.0772057  60.6966743  18.7949753
  61.8358765  60.3510094  19.2652645  60.3408928  60.5525436  19.3893661
  77.5425491  70.1717682  45.8782730  78.4036636  70.5806808  45.7916489
  77.7246704  69.2323151  45.9006119  83.0442581  39.4585037  42.4517822
  83.2605820  40.3562965  42.1999893  82.8887939  39.0078163  41.6217575
  14.2526999  35.8691597  66.3533554  14.6011477  35.4338493  65.5753326
  14.2728443  36.8010559  66.1356430  71.7108917  16.6411495  53.1707687
  70.9141083  16.5271912  52.6527214  71.6570969  15.9638729  53.8450356
  82.4998093  29.7263050   0.6929826  82.4025574  30.6058636   0.3280866
  81.7004623  29.2689819   0.4319667  71.5287323  23.9760628  87.6287384
  71.6495819  23.0919781  87.2822952  70.7422485  24.2999306  87.1896744
  23.1330891   8.7088346  33.6025467  23.3666782   8.4574499  34.4961205
  23.9498005   8.6284027  33.1098557  65.6663361   3.3285322  14.8807335
  66.2775955   2.5920293  14.8932247  64.8040924   2.9259491  14.9841404
  57.7211647  38.6823654  51.4045258  57.3407593  39.4589958  51.8148537
  56.9771156  38.2366753  50.9995728  28.7500839   2.5452588  50.2173729
  28.3852787   2.6875904  51.0908089  29.1969566   3.3654122  50.0078850
  61.8707848   0.0343159  50.6956825  62.4589958   0.4754781  50.0828094
  62.0416946   0.4564053  51.5376244  78.1407928  16.4476471  66.3542404
  78.8406830  17.0864277  66.4896622  77.4773788  16.6777153  67.0047684
  85.3656311  47.8896484  46.3550377  85.5695038  48.1983681  45.4722214
  84.4392548  48.0991554  46.4740601  39.8271713  48.9788818  79.7331619
  40.3306274  49.6696892  79.3024063  40.4891701  48.3807793  80.0799408
   4.0101848  68.8923721  51.4999962   4.8193293  68.9359741  52.0095215
   3.3180008  68.8115158  52.1561775  82.1641312  70.1972733   8.5326252
  82.2969437  70.9470367   7.9525766  83.0486679  69.9049225   8.7525187
  54.3251762  41.1852493  39.6159706  54.3831558  41.9572525  39.0530510
  55.1966705  41.1055908  40.0037613  31.1428146  45.4636688  83.0432892
  31.9104290  45.0617523  83.4500656  31.3532677  45.4913940  82.1099243
  61.9610825  44.5580215  80.7623215  62.1178246  45.2120628  81.4434204
  61.0076256  44.4976501  80.7031097  52.3265266  31.7024384  85.9162827
  52.0027885  30.8016548  85.9123611  52.2553024  31.9785767  86.8300095
  80.6355820  30.0958271  60.0117111  80.3629532  29.3022785  59.5510750
  81.5324326  30.2491817  59.7144203  77.6305084  12.3817177  75.4205780
  78.3452988  11.8172464  75.1261520  78.0662842  13.1672106  75.7512360
  34.5278397  42.9883614  24.0570755  34.3939972  42.0627518  23.8532085
  34.5033951  43.4269028  23.2065945   0.8310133   5.5736804  21.8634415
   1.3796868   5.1324816  21.2149563   0.3781303   4.8629680  22.3173332
  70.0844193  16.2035007  81.0172882  69.6824493  15.3937550  81.3318710
  70.9054337  16.2685642  81.5050659  20.6415730  31.7690926  38.2132912
  19.8699856  31.6911125  38.7743645  20.7220230  30.9113560  37.7961044
  51.7420235  19.6850796  28.0624695  51.0561066  20.2350883  27.6839981
  52.5501060  20.1779690  27.9199963   1.1781567  26.7605133  21.8654747
   0.8086132  27.1961021  22.6335449   0.4424365  26.6804752  21.2583981
  82.2159729  31.1864662  38.9731216  81.7269974  30.8423233  38.2256584
  82.7417755  30.4464207  39.2765961   1.6481185  42.7836227  60.1314735
   0.7712743  42.5570183  60.4413567   2.0586998  41.9410400  59.9372826
  16.6266594  53.7914391  75.9069214  16.5570316  52.9567528  76.3702545
  17.3973274  53.6915932  75.3480530  39.7761307  21.9889297  22.5798874
  39.6458206  22.9263515  22.4367352  39.8966064  21.6270428  21.7019615
  58.6556931  41.8860588  16.7082443  59.4788399  41.4565773  16.4754295
  58.5048561  42.5138397  16.0015831  66.9671783  17.0941830  29.1658401
  66.8890686  17.8862476  29.6975937  67.5019226  17.3597507  28.4176769
   2.8672695  47.3808479  46.1590691   3.6797919  47.0654411  45.7633972
   3.0771170  48.2627411  46.4664192  53.7556915  67.4382629  73.3386230
  54.6939392  67.4084320  73.5257874  53.5927505  68.3438644  73.0748672
  20.7717609  18.6018791  36.1529160  20.8764725  19.5518112  36.0990906
  20.0442734  18.4072475  35.5620575  23.3591537   4.0436087  66.7460175
  23.4241753   3.7393899  67.6512527  22.8785572   4.8693247  66.8047714
  25.5232697   1.5813603  11.6443462  26.2424755   0.9570678  11.7404394
  25.3693352   1.6259995  10.7006598  32.8084221  41.7133636   3.1320050
  33.6072502  41.2466774   2.8864238  32.5048828  41.2686005   3.9233847
  69.2934265  29.7110119  65.1143112  69.5630951  28.7944107  65.0564117
  69.8783951  30.1712513  64.5124588  29.7120190  59.0773125  21.6685543
  28.8710194  58.6395378  21.8001080  29.8361855  59.0772591  20.7194424
  77.2376328  48.7985229  76.6358795  77.8159256  49.2233849  76.0023956
  76.7282791  49.5155067  77.0136642  84.0084152   8.0181780  72.6024170
  83.9828110   8.5835724  73.3743668  84.9307251   8.0034895  72.3467789
  36.5209007  30.5682220   2.3662217  36.3535347  29.6258640   2.3797271
  35.6868668  30.9558296   2.1009259  11.5104246  66.4204941  15.3502684
  11.4346495  67.1660614  14.7547722  12.1461258  65.8415909  14.9295721
  55.0285606  51.1399040  16.5445728  55.0089111  50.6271553  17.3526173
  54.1321869  51.0966225  16.2115917  58.0105171  35.4635696  48.3171234
  58.3932228  36.2862587  48.6220055  57.7401772  35.6442909  47.4168510
  58.6618195  56.4264717  66.7695999  58.5755653  57.3678055  66.6190109
  59.4242096  56.1697922  66.2508392  30.5998516  19.3058014  16.7997684
  30.5885525  19.9069862  16.0550003  31.0849762  19.7747097  17.4787464
  67.0169754  44.3004684  14.4365635  67.5624542  44.3355293  15.2223425
  66.2196426  43.8520088  14.7183132  27.4300194  58.3382874  42.1898422
  28.0819607  57.9728394  41.5918007  27.2414646  59.2076340  41.8364029
   3.8705912   8.7179775  13.5325251   3.1431019   9.2921448  13.2931013
   4.5501876   8.9103632  12.8864841  50.7136078  45.8823242  60.6230736
  50.2452354  46.4623260  61.2234497  50.3657303  46.1010094  59.7585564
  80.7073975   6.0996628  77.2610626  80.0659409   5.6150675  77.7806168
  81.4094467   6.3053045  77.8783722  50.5811882  39.6271477  48.2102280
  50.5396423  40.5720520  48.3574142  49.6694641  39.3382950  48.2496262
  61.5947227  44.6943588  32.2392845  62.3294525  44.2056580  32.6101990
  61.1182098  45.0250130  33.0007553  51.6802864   0.1479838  65.9576797
  51.9376221   0.9782777  66.3584595  52.2233238  -0.5076581  66.3952637
  65.6265106  31.1528473  63.9348412  64.6711426  31.1823330  63.9861183
  65.9175644  31.2275658  64.8436508   6.3697557  63.0388184  73.7439423
   6.2707481  63.9145241  74.1175232   7.2057195  63.0699959  73.2787247
  83.4247818  33.1160393  58.5562515  82.5069122  33.3740730  58.6409073
  83.6534348  33.3371162  57.6534348  25.8432560  53.5644875  49.3485870
  24.9567280  53.2298393  49.2132759  26.0377445  54.0568047  48.5510750
  51.5230522  41.8531418  78.5137329  51.2357063  41.9843636  77.6101608
  52.4777374  41.9084091  78.4718857  26.5913734  27.7378883  80.1030045
  26.0287609  27.0944290  80.5338898  26.0091076  28.1989231  79.4991455
  46.4674568   2.8741951  87.9657440  47.1225662   3.0932150  88.6283875
  46.9493599   2.3703876  87.3098602  66.4245148  53.4013596  73.0104141
  65.8463821  53.0483170  72.3341370  66.8187103  52.6289482  73.4156647
  78.0609665  31.8240337  67.1184464  78.4333191  32.6924896  66.9655762
  78.2071304  31.3529758  66.2981033  13.4655972  60.8647003  18.6121063
  13.1607676  60.2518997  19.2812748  13.0639009  60.5530319  17.8010979
  54.9748230  56.4195023  49.9049721  54.6891479  57.0044785  50.6067047
  55.6679153  56.9040184  49.4565239  57.1820831  22.0458679  45.9269867
  57.3594360  22.9854965  45.8836555  56.7296677  21.9257717  46.7619286
   3.4804959  62.8744164  84.5447388   2.6073737  63.2620125  84.6052170
   3.5531285  62.3247871  85.3250351  32.7615433  19.2419968  86.5189209
  33.0598450  18.9252377  85.6663284  31.8516293  19.5009747  86.3732452
  67.8578796  53.0037079  22.3635292  67.9454803  52.9137306  23.3124561
  68.7447357  52.8735275  22.0277138  48.9824142  44.8480034  81.7928696
  49.4071503  45.5727310  81.3339539  48.6703339  45.2330894  82.6117401
  74.9539108  28.3390541  37.6333008  74.8117523  29.2528572  37.8802567
  74.7257309  28.3037128  36.7043686   1.4373841  19.8456440  44.2454872
   1.6330168  20.7808456  44.3034248   0.7590327  19.7840652  43.5729675
  75.6031876  30.6006813   6.9750986  75.9862976  31.3083191   7.4934692
  76.1900406  30.5088272   6.2245002  57.5176964  46.6448097  48.2117233
  56.6027336  46.9087753  48.3086739  57.5624199  45.7808533  48.6213760
  40.5844231  67.7803192  11.2037992  39.8904495  67.3815155  10.6788330
  41.0638390  68.3331833  10.5867624  84.5471420  52.6380539  83.7685013
  84.5959702  51.8528976  83.2231750  85.2574005  52.5343819  84.4017639
  54.4465523  37.5476494  68.3251877  54.4204025  36.8397713  67.6814041
  54.2575226  38.3382111  67.8197021  45.9912834  66.6425858  27.5639782
  45.3909302  67.0121002  26.9164715  46.3056259  67.3994522  28.0585175
   1.7853351  45.4246254  26.6979942   1.1481663  45.9017868  26.1664257
   1.5743079  45.6668549  27.5996723  56.8058624  57.4925385  39.4235229
  57.4377136  56.7823410  39.3111992  56.8116341  57.6717758  40.3637733
  86.4864044  70.3345871  42.6750069  85.7935791  70.7214661  42.1397057
  87.2268906  70.9332809  42.5775986  86.0526657   1.9958001  74.0733032
  86.2613831   2.9298470  74.0882492  86.7212677   1.6100032  73.5073013
  85.1141281  65.8724899   1.5364460  85.7641983  66.5431747   1.3270962
  85.0720978  65.8698959   2.4927189  43.3385735   1.4105514   9.2887096
  43.5027618   2.1163170   9.9141455  43.4486504   0.6080903   9.7987804
  17.6401806  69.9474945   8.5025816  17.4548607  69.0204468   8.3526678
  17.3288383  70.3851547   7.7102766  64.8534698   2.1686301  75.3551483
  64.4773788   2.2965765  76.2260132  64.1258316   2.3285546  74.7541504
  73.2421341  70.8096085  21.3929882  73.3482437  71.7308044  21.6304302
  73.9336624  70.6464005  20.7516003  52.9518890  65.3782425  87.4240646
  52.3896751  65.6504898  88.1493454  53.2968788  64.5273972  87.6947708
  81.0451126   6.4389925  45.9318504  80.8642197   5.8887739  45.1697655
  81.8856125   6.8524117  45.7346878   1.4208195  37.3692627   8.7111645
   0.7228742  37.9984932   8.8933077   1.1461092  36.9337807   7.9042439
  15.8266287  -0.1635851  17.3040676  15.8891306   0.7395387  16.9931126
  15.7207174  -0.0837148  18.2520313  12.4791145  42.6932068  29.2240467
  12.4210033  42.6166763  28.2716827  11.9617357  41.9591751  29.5553303
  24.2909641   1.3115780  72.0421829  23.3894997   1.2085268  71.7372665
  24.4110565   2.2580922  72.1191254  62.7543106  35.9604874  35.2492867
  62.7083054  35.1537743  35.7624397  63.6866684  36.1757278  35.2244759
  63.8616486  64.0116653   8.2948198  63.8212395  64.8591385   7.8516641
  64.7883835  63.8946342   8.5038414  63.7255974  28.9962826   3.3531675
  63.9871559  29.1260490   4.2647486  62.8213081  28.6867962   3.4051914
   5.9232588   7.5644426  59.2473679   5.9245677   8.2662315  58.5964279
   5.1034803   7.0952997  59.0921288  26.4098415  18.6551113  69.4506607
  26.9856434  19.4082203  69.3183212  26.9291363  18.0458717  69.9754410
  10.8682060  43.8725548  86.0443115  11.3172436  44.0102882  85.2102661
  10.1365519  44.4894981  86.0271606  30.1303310  61.0798950  86.4495544
  29.4282856  61.6292953  86.1009521  30.0100231  61.1110878  87.3986511
  79.5531921  14.9040155  43.0714798  79.2327118  15.6785870  42.6093521
  79.2198792  15.0022469  43.9633789  34.1463814  49.0733948  53.3300552
  33.8242264  49.9702415  53.4201317  34.0173264  48.6845245  54.1951294
  60.1184006  56.6014595  80.1977310  59.8215866  57.0210800  81.0052261
  60.2660446  57.3269806  79.5910568  61.1776047  43.8568687  50.9951401
  61.9297066  44.3018761  50.6045761  61.5622597  43.1754799  51.5464859
  27.4050674  12.4666557  81.7653656  28.0625896  12.1413927  81.1504669
  27.3948421  11.8188286  82.4699554  64.5479660  18.6739140  25.3444538
  65.4631805  18.9065590  25.1879482  64.1112289  19.5113163  25.5001869
  27.8673611  48.0776405  88.6995163  27.4252529  47.6534195  89.4349136
  27.2161903  48.0805016  87.9979477  69.2695618  53.3248062  28.7278996
  68.8514175  53.0896301  29.5562000  69.7930984  54.0988655  28.9351826
   6.1254268  45.8036003  66.7262115   6.1030393  46.0511017  67.6505890
   6.2912812  46.6243629  66.2624588  76.1837158  18.7499161  54.7686272
  76.3942947  18.7686157  55.7021904  76.7283401  18.0470295  54.4142799
  36.1698265  41.3894844  19.3266335  36.5304718  41.4550934  20.2108612
  36.5525513  40.5875473  18.9707565  79.1082306   9.7651205  77.7668152
  78.5663910  10.5216761  77.9910202  79.0018539   9.6662922  76.8206863
  -0.0048243  68.0986404   0.8247662   0.8720348  67.9153290   1.1620305
   0.1134335  68.8530121   0.2475566  77.4199677  65.2996902  45.3038864
  76.8498840  64.7537537  45.8453636  77.1162415  65.1489639  44.4087524
  66.1240311  58.5037193  24.1430111  66.9711609  58.6950836  23.7405453
  66.2529068  57.6644363  24.5848579   8.4379807   1.6948818  64.6997375
   9.3078651   1.8153533  65.0805511   7.8733621   2.2828698  65.2014465
  72.6983185  13.4599400  51.9489174  73.2597656  14.2063913  52.1582489
  71.9628754  13.8405972  51.4688568  56.6435394  66.9972000  33.8526955
  55.8435059  66.5955734  34.1916237  57.3217049  66.3367157  33.9943962
  51.4988480  44.6945267  17.2393589  51.1109161  44.4863548  16.3894138
  50.7699966  44.6330833  17.8568020  21.9457874  59.6972008  13.7330837
  22.3950520  58.8527641  13.7694378  21.7581482  59.8288536  12.8037338
  22.2472153  63.8403816  51.4948845  21.4831429  63.2825623  51.6407013
  22.9931850  63.2946320  51.7437172  79.4471741  41.7881126   6.0963445
  78.9581985  41.6996956   5.2782278  79.4476166  40.9074860   6.4714847
   7.8947339   2.6451151  24.3747520   7.7232051   3.0291519  23.5149117
   7.0431542   2.3187580  24.6655006  31.2406502  54.7160835   1.7543781
  31.2299690  55.5757141   2.1752772  31.1621914  54.9061432   0.8195234
  61.0386467  30.3047161   9.0726728  60.4918709  30.2526703   9.8566122
  60.7649002  29.5582123   8.5397329  86.4364471  55.9539528  26.5308990
  85.6832428  55.4625778  26.2030735  86.0736389  56.5247459  27.2082462
  33.2387657  60.0184326  58.8777542  32.7826614  60.8585587  58.9265938
  34.0674362  60.1689873  59.3325844  13.4879761  58.2255936  69.4305496
  13.6964760  59.0333862  68.9612656  12.8994932  58.5018349  70.1331253
  46.9919701  53.2563095  43.3025284  46.4737511  54.0260086  43.0675049
  47.0759392  53.3057442  44.2547569  29.7423820   4.2635136   1.8350360
  29.4293079   3.4289494   1.4861532  30.6927280   4.2270160   1.7266660
   5.2576408  20.3577576  82.6277618   5.0154405  20.4890060  83.5444641
   4.5649428  19.7994843  82.2745819  40.2092552  59.8223000  41.3012848
  40.0576782  59.4660873  40.4258614  41.0287247  60.3106689  41.2225609
  64.9679489  64.5878143  81.5109482  65.3649521  63.8555527  81.0393372
  64.6917496  64.2126236  82.3471146  58.1587486  22.4117241  14.3556290
  57.7471123  22.4633312  15.2182550  59.0917473  22.3057327  14.5414152
  60.7559052  44.1705742  62.1515121  60.6435890  45.0539436  61.8004036
  60.7551308  43.6042328  61.3798332  22.7268085  34.7265778  15.7922363
  22.4766769  34.7363892  16.7161236  22.2566853  33.9781303  15.4247570
  63.8162804  53.3387032  10.1099234  62.9619560  52.9188156  10.0096655
  64.4477921  52.6326790   9.9722309  80.4010162  51.5350418  77.8588791
  80.0646057  52.4285622  77.9273071  80.7583923  51.4808884  76.9725494
  45.2036591  63.7759933  39.3753510  45.6327896  63.2205124  38.7245674
  45.8755646  64.4078445  39.6313667  71.3227234  67.7699203  75.6737976
  71.7378693  68.5436707  76.0548477  71.7041702  67.0335541  76.1518097
  55.4087448  25.3506927  58.0192986  56.1613655  24.9303417  58.4353485
  54.6558342  25.0540352  58.5305214   1.4874095  38.6558533  50.8928490
   2.0349491  38.2798309  51.5820847   1.4242684  37.9649086  50.2334251
  77.2971954  33.5902519  18.5170994  77.5385742  33.8744087  17.6354980
  78.1116943  33.6429710  19.0171490  55.2652893  31.3452320  37.0068626
  54.9418678  30.5130520  37.3519783  54.4747314  31.8572922  36.8364334
  37.6136131  36.9549713  81.2074356  37.9367599  36.4636726  80.4521637
  36.6604424  36.9011154  81.1381989  10.3759108  59.3252907   0.5577863
  10.2362251  60.2459602   0.7793503  10.8264322  59.3478050  -0.2864624
   8.4118528  44.5569839  13.5796585   9.0543442  44.8732452  14.2148094
   8.9335356  44.1074562  12.9148245  -0.0513970  22.8073750  25.7701893
   0.8074059  22.7531261  25.3509674  -0.0890295  23.6955757  26.1250324
  61.3341942  26.8207951   7.2625051  61.9055901  26.7682953   6.4963579
  60.6031990  27.3698559   6.9789395  83.3061981  33.5107803  67.9295273
  84.0035095  32.8981438  67.6957397  83.0326080  33.8919716  67.0952148
  26.4259872  48.0903397  77.9814224  26.2110023  48.6505928  77.2356796
  25.5809002  47.7543945  78.2800903   5.3275108  35.4884186  40.6989365
   5.5814595  34.6343956  40.3490982   4.8687639  35.2864151  41.5143967
  36.4091949  32.2781334  46.1567078  37.3649292  32.3181534  46.1220627
  36.2198067  31.4437027  46.5857620  83.1410904  50.2849655  46.1150208
  83.3869858  50.6365662  46.9706764  83.0397186  51.0573692  45.5588264
  69.5065231  23.6745319  45.6296005  69.1180420  23.8014355  46.4951706
  69.2556229  22.7844296  45.3826256  78.1520615   4.5760093  44.5976295
  79.1065292   4.5095725  44.6259918  77.8439178   3.7017250  44.8361816
  13.9791088  54.7003479  22.6036892  13.8273439  54.6751709  23.5484467
  14.6792669  54.0644531  22.4565506  53.2210541  64.5145035  42.5045242
  54.1492691  64.2963257  42.5884895  53.1536446  65.4080353  42.8410988
  32.8787727   4.8541203  39.3371964  32.6479340   4.1435695  38.7388115
  33.2761841   5.5201206  38.7761765   3.5875103   2.4886100  21.6097126
   4.3784528   2.5965018  22.1379185   3.6135833   3.2160003  20.9880581
  23.8241405  37.7043762  26.3375187  24.0241108  36.7683067  26.3329105
  24.6800232  38.1319885  26.3665810  50.2720909  25.7218819  40.8808670
  50.2541847  26.4834747  41.4604263  50.0452042  24.9844284  41.4473610
  34.9600410  66.2242279  21.4309120  34.9987907  67.0278931  20.9124050
  35.7954254  66.1997528  21.8975639  29.3393841  39.9550552  29.7294712
  30.2402363  39.8450737  30.0337772  29.3570595  40.7624054  29.2155552
  24.6486053   1.9498595   4.6124763  24.8882637   2.8650374   4.7582345
  24.8053513   1.5240678   5.4553075  24.2654667  49.8993683   9.6141081
  25.0281563  49.5811844   9.1311016  24.6345768  50.3948555  10.3451910
  31.5705490   1.0510280  16.4384232  30.7556267   1.0041983  16.9383640
  31.9890537   1.8582195  16.7376366  62.9990311   4.6757655  45.3162079
  62.8721313   4.7059832  44.3679390  63.4719009   5.4825668  45.5204048
  12.0608206  67.7606506  49.4673500  11.9825726  68.5902557  49.9383736
  11.1716547  67.5701218  49.1684952  78.5273132  55.3791771   8.1986685
  77.5897827  55.5550003   8.2783689  78.7287445  55.5650368   7.2815452
  84.7235031  23.5514965  41.1363792  85.0851974  22.7417889  41.4966354
  84.9291229  23.5109386  40.2024040  82.5467300  25.6840458  73.6888962
  82.5786896  25.3655243  74.5909805  81.8579483  26.3487186  73.6938477
  60.0894585  17.1903954  47.9916191  59.8494034  17.8748550  48.6162148
  60.6784668  16.6157856  48.4806213  55.7281075  27.3574734  73.3788376
  54.9518318  27.7087479  73.8149872  56.2095680  26.9071217  74.0728149
  66.7569580  33.5938759  79.5399094  67.4855270  32.9821167  79.6456299
  67.1661835  34.4029770  79.2331238  52.7473068  37.7872047  27.2882214
  53.6719894  37.9294243  27.0858173  52.5908279  36.8704147  27.0618591
   3.2629335  41.8437996  86.9499741   3.6262681  41.0715942  86.5164795
   3.8869612  42.0423965  87.6481018  29.8818264  69.4614410   3.1401932
  29.6032887  68.5636673   3.3208821  30.6956959  69.5635986   3.6335621
  68.8421402  59.8494797  33.0185127  68.0450897  59.8782349  33.5477676
  68.5850983  60.2278328  32.1776733  71.4682236  57.0721169  55.2727661
  71.5148392  57.9956627  55.0255356  71.5410538  56.5984001  54.4442024
  14.2079802  47.0170937  85.1125336  14.4698887  46.6083870  84.2875519
  13.3383160  47.3761406  84.9364624  86.3943939  37.7621422  17.7689552
  85.4550400  37.8293648  17.9402237  86.4855194  37.9852066  16.8425789
  55.9634056  59.0830116  14.7980499  55.7403030  59.8400497  15.3396664
  56.8934822  58.9330559  14.9674759  21.1833820  58.8648796  19.4601460
  20.5736637  59.0046692  18.7356224  20.6411572  58.5093193  20.1642780
   0.3281192  17.0051594  88.0349045  -0.5764444  16.7436123  87.8628845
   0.4733306  16.7758141  88.9528046  48.1879768  51.7836723  53.8397408
  47.8294029  50.9006577  53.9288864  49.0922775  51.7067986  54.1439781
  81.8738480  20.0652790  52.5472908  82.2617798  20.8904324  52.2559776
  82.5232773  19.4008465  52.3170738  13.0258312  64.3534317  84.1407928
  12.3971405  63.7057114  83.8223038  12.6578484  64.6563950  84.9708786
   3.4291027  36.7792702  18.7354031   3.2239723  36.8754997  17.8054066
   2.5854383  36.8731613  19.1777229  33.0825615  67.1688385  23.9281864
  33.2872849  67.7517090  24.6593399  33.9349442  66.8553619  23.6258583
  25.4036427  16.1640797  12.3925819  25.6623611  16.0120583  11.4836340
  26.2210865  16.1059990  12.8871946  16.4807606  11.3936005   5.0171680
  16.0520344  12.1777210   4.6742697  15.7736568  10.8920832   5.4230194
  77.2281418  60.7013435  41.5955086  76.5772171  60.9556808  40.9414101
  77.0725708  61.2936783  42.3311501  66.3247299  11.6898289  20.7565155
  67.1213455  11.2303791  21.0221004  66.1951141  12.3549080  21.4326096
  19.7697601  22.8769131  31.6326370  19.1097832  22.2119026  31.4366207
  20.5635319  22.5611801  31.2008133  49.9195709  69.5235443  35.9410286
  50.6218071  69.0077286  35.5447617  49.8193779  70.2777863  35.3602333
  79.9510422   1.5483468  86.9179688  80.2247467   0.8896767  87.5563049
  80.5039139   2.3070984  87.1046753  12.5823679  53.2100372  41.7397766
  12.3411427  52.2944603  41.5992126  11.9619827  53.7059135  41.2054901
  22.2221012  48.9823608  11.1033907  22.2009182  49.4899940  11.9146194
  22.8400536  49.4518852  10.5431089  69.7213440  66.9995880  63.5235939
  70.0268402  67.8960571  63.3848457  69.4820328  66.9687729  64.4498825
  65.3801498  11.5094137  61.0055275  66.2648315  11.7856426  61.2448235
  65.3779144  10.5629253  61.1483078  31.4320107  49.3251915  69.7457428
  31.4023876  50.1969337  69.3515091  31.1122055  48.7405739  69.0585938
  44.5802422  39.4583778  58.2111092  45.1989708  40.1553307  58.4294434
  45.0650749  38.8849754  57.6174927  10.0811110  66.0767822  51.5135422
   9.5543451  66.8320236  51.2520752  10.0304203  65.4795074  50.7672729
  69.9861298  11.1133337  72.0930710  69.5391312  11.7835207  71.5760880
  69.6900177  11.2659788  72.9904251  68.0578079  65.5182419  19.1009159
  67.4578476  66.2579651  19.1962013  68.7101059  65.6487122  19.7891884
  23.6100903  37.2051125  71.9015884  24.2409439  36.6281433  72.3321228
  22.8955574  36.6249962  71.6386490   7.5275793  30.1308498  13.5553055
   8.2827787  30.2752666  14.1254358   6.9774404  29.5140457  14.0381432
  14.9155798   5.1049719  32.8785820  15.0585489   4.8100038  33.7779083
  15.1651840   6.0290165  32.8870544  10.9428720  48.2530861  45.1969490
  11.7650604  47.7775841  45.3158302  10.7228985  48.1242065  44.2743263
  47.1482391  56.9160461  85.8567047  46.4908714  57.4959831  86.2411118
  47.7163048  56.6787949  86.5896683  53.9369049   5.6090097  44.0852699
  53.8493958   6.1473856  44.8718605  54.3958168   6.1705475  43.4605217
   4.7578783  27.9487705  17.9339466   5.4807754  28.3292885  18.4328022
   4.0196323  27.9500103  18.5432281  84.9028549  28.6679707  54.4128227
  84.7588806  28.8385067  53.4820061  84.2500992  29.2075157  54.8589439
  61.4307899  55.9989433  63.2547760  60.6461754  56.5169334  63.0750656
  61.8325119  56.4271202  64.0107651  50.2282906  51.0336609  62.1505394
  50.2173996  51.9084358  62.5389786  50.4282913  51.1843109  61.2266693
  76.9652634   2.7117977  86.4369431  77.7199402   2.7807269  87.0216980
  76.7232056   1.7861780  86.4663849   5.0623250  47.8394394  42.5386467
   5.9228272  47.7757378  42.1242676   4.5563097  48.4040184  41.9543266
  51.1733093   6.9577551  39.8574219  50.3790741   7.4739022  39.7195473
  51.4186020   7.1336751  40.7657814  34.6894379  16.1141376  86.3507614
  35.4701118  15.7773170  86.7904510  34.9815979  16.9227695  85.9300613
   2.6832488  14.5760193  50.4786644   2.6366153  13.6320953  50.3267899
   2.9891181  14.9376230  49.6468468  27.4019985  37.5209465   2.7392943
  26.8975658  37.1936646   1.9945346  28.0881424  36.8664551   2.8700047
  20.4455719   0.6427460   9.2088099  20.3399124  -0.1303632   9.7632189
  19.5591755   0.9907163   9.1115923  48.6433907   2.2574782  74.7757645
  47.7130432   2.1187794  74.9531021  48.7651024   3.2030699  74.8610611
  87.0340347  39.0257149  54.7932091  86.3042221  39.2548981  54.2178192
  86.6320038  38.9048462  55.6534386  78.1287231   9.9636946  41.3487091
  77.8400803   9.2879152  40.7353249  77.4827042  10.6637955  41.2551498
   0.7113968  22.4563446  83.8657532   1.1786953  22.0251980  83.1502228
   0.7752810  23.3901215  83.6652222  76.8314209   0.2816054   3.3931334
  77.3893661   0.6737844   4.0647912  76.0657578   0.8546664   3.3532252
  17.2691116  37.1814079  84.2477188  16.9768982  37.3878822  85.1355362
  17.8026085  36.3930740  84.3484268  63.3486176  52.9898643  68.7175064
  63.5115891  52.8169327  67.7902679  62.4189339  53.2138138  68.7595825
  67.0276947  14.4007626  26.7039089  67.5108719  15.0999451  27.1442642
  66.2030258  14.8088980  26.4401207  17.6539650  58.3506393  57.3978920
  17.1422729  58.7826767  56.7139740  17.0386162  57.7447166  57.8107338
  31.9218750  66.2373505  52.5758438  31.4940701  66.6308441  53.3363571
  31.2108364  65.8176956  52.0915451  27.6867905  52.7653008  68.4328842
  28.2868309  52.6203918  69.1644440  26.8181877  52.5986595  68.7989349
  52.9756927  28.4391079  22.5241642  53.3904114  28.2850857  21.6753330
  53.4962616  29.1369534  22.9219685  20.6307487  36.8698959   5.2177138
  19.9242649  36.9332199   5.8604441  21.4318104  36.8685646   5.7416682
  54.7134819  -0.1583216  15.4672604  53.9569855   0.2907972  15.8444023
  54.8295364   0.2479462  14.6083603  67.3951035  19.9072170  70.0134659
  68.2016525  20.4192543  70.0728455  67.2102509  19.6460323  70.9155960
  58.3115387  41.6801147  72.2952957  58.4239082  41.9064522  71.3720551
  57.6519623  42.2960663  72.6143417  16.8086967  60.6236763  72.3727875
  17.0247097  60.0422668  73.1018524  17.2706356  60.2491150  71.6227570
  61.0894432  42.3139687  67.6810608  60.3240700  42.5752869  68.1930695
  61.1210098  41.3611374  67.7667847  43.5314255  54.5347290  63.2580070
  43.0613327  55.0264893  63.9313660  43.0068207  54.6515923  62.4659424
  31.8198509  39.6624794  17.7025776  31.9903183  40.4260674  17.1511154
  31.7801018  40.0135803  18.5921745   7.9566073  69.1052399  21.6988544
   8.1010151  69.9772034  22.0663643   7.2008295  68.7655182  22.1780415
  18.4316597  12.8436098  71.0301056  18.6472549  13.4692945  70.3385315
  19.1878796  12.8648148  71.6165466  37.3854218  71.3182373  57.9243088
  37.6296959  70.7795258  57.1717491  38.1846466  71.7958603  58.1464691
  74.6096191  60.6472511  52.9302940  73.9046783  60.0183983  53.0846901
  74.7795029  61.0324440  53.7899399  43.0598793   1.8875188   1.5972193
  43.5514870   1.6996598   2.3967595  42.7089233   1.0389969   1.3269005
  58.6457787  52.2514267  64.3224792  58.3848801  51.7360649  63.5592155
  59.4602013  51.8450737  64.6188354  41.7691498  19.4201450  82.7144318
  42.3578415  19.1439095  83.4168320  40.9190521  19.0523415  82.9558640
  25.5765133  49.1437607  16.8421040  26.3110504  49.7277832  17.0307980
  24.9128857  49.7121468  16.4512501  26.0143814  46.6897392  74.9701920
  26.3782215  46.5305176  74.0992737  26.0876045  47.6364670  75.0909424
  58.0567436  18.2142067  73.9868774  57.3272552  18.8161449  73.8394089
  58.3000908  18.3524971  74.9022369  74.9697800  67.0986862  47.0192719
  75.6877747  67.0000534  47.6445656  75.0849915  66.3729553  46.4058647
  70.1347198   8.3331823  63.9517670  69.6890030   8.3042850  63.1051674
  69.5391693   7.8838077  64.5514526  84.9566727  29.7231941   1.7537854
  84.9777069  28.8058605   2.0263464  84.2877808  29.7545452   1.0697992
  76.1732712  25.5392494  32.4754753  75.6636124  25.0472336  33.1192131
  76.9030609  25.9041195  32.9759865  57.7706490  51.1589890  25.5444565
  58.4767380  51.6365128  25.1089840  57.4587746  50.5389252  24.8852978
  70.8958664  20.9901390  73.3285828  71.6850739  20.4800358  73.5107269
  71.2087555  21.7464294  72.8322372  53.2770691  23.6107407  70.3736420
  53.7904968  24.0914135  71.0229263  52.9426804  24.2869072  69.7843933
  17.6495705   8.5479727  22.0333080  17.6197414   8.2801800  22.9518013
  17.8644276   9.4802904  22.0625057  84.9496231  22.0495605  72.4036789
  85.4720764  22.7320290  72.8249969  84.1857910  22.5116081  72.0582886
  67.0681763  21.6311188   5.7814898  67.7768784  22.2704353   5.8539481
  66.4906693  21.8291473   6.5187140  74.5579224  51.3040237  16.3009815
  73.9577713  51.6726913  15.6528044  74.5553818  51.9383469  17.0178204
  75.2213287  23.7720966  34.3396530  74.2837982  23.7313290  34.5283470
  75.4048080  22.9633961  33.8615646   3.4014568  14.6835480  85.3221130
   3.4984477  14.3115702  86.1987305   2.4763675  14.9225111  85.2643356
  68.1218033  30.0206871  53.9999504  67.4048157  30.6251984  54.1915894
  68.8452301  30.5855808  53.7283249  79.9082718  71.2596893   3.3920622
  79.3125916  71.3231354   4.1386323  79.5327835  70.5706253   2.8439429
  72.1249008  66.2687225  85.1959076  71.5048523  65.7054443  84.7327728
  72.8579636  65.6919937  85.4109192  38.8467102  10.5460262  82.9346542
  38.2105751  11.2380934  82.7540817  39.6906509  10.9273233  82.6925583
  80.5764160  17.9527016  66.1688080  81.0480270  18.6377659  65.6949997
  81.0794830  17.1557961  66.0011978   2.6433270   9.0459709  60.9191818
   3.1505797   9.6218653  61.4912605   1.8872925   8.7893105  61.4471703
  35.0395889  11.5391531  88.2739792  35.4052963  10.7048855  88.5680695
  35.2345085  12.1499491  88.9847336  79.7001877  67.9810715  49.0340271
  80.6205826  67.7983246  48.8450584  79.6457977  67.9734955  49.9896507
  43.7717972  60.6963692  18.4050732  43.6703339  59.7837257  18.6752930
  44.4783936  60.6779099  17.7596188  17.6487217  48.1004906  63.0208054
  16.8867207  47.7961502  62.5278931  18.2199039  48.4930077  62.3605690
  55.9252319  15.2001400  56.7247620  55.9400597  15.9917355  57.2627106
  55.6370964  14.5099573  57.3221359   1.3630980  49.8466911  26.1786156
   0.6580832  50.3154869  25.7320576   2.0256624  49.7091789  25.5016155
  83.1717911  13.2438087  36.9180832  84.0186768  12.8249073  37.0715446
  82.8297043  13.4205399  37.7944221  84.1960602  60.3354187  86.3767242
  84.8027954  60.0645065  85.6877289  83.3871002  60.5505867  85.9124908
  50.3432465  40.0651016  12.5505095  50.6072693  39.6698952  11.7196455
  49.7147484  40.7436600  12.3039608  59.9070511  64.9352722  31.6616039
  59.5974808  65.0868607  32.5545845  60.0844154  65.8107834  31.3177280
  52.5836029  41.9657631   9.9450798  53.3200645  41.4640503   9.5956011
  52.9824181  42.7590523  10.3026695   8.2551012  16.0903072  32.6182251
   8.7278252  16.1645050  33.4472389   7.3372664  16.2274017  32.8527832
  79.3560104  11.4002218  34.1814995  80.1983566  11.1811218  34.5798454
  78.7745209  10.6862354  34.4428902  18.2373714   2.7451820  11.1750479
  19.0576687   2.3241670  11.4321260  18.5012150   3.6070263  10.8528023
  14.5573368  56.6326599  78.3625183  15.2942686  57.2121010  78.1690979
  14.2237434  56.9423447  79.2045670  20.8205795  64.3130646  18.1434555
  21.1026745  64.3389587  17.2291355  20.7784615  63.3804398  18.3547916
  84.5563202  66.0528030  30.2700157  83.8705826  66.4931564  29.7679329
  84.8635178  66.7156830  30.8884430   3.0821176  49.8541794  13.4274559
   3.7636874  50.2946320  12.9198160   3.2745726  50.0836754  14.3365908
  28.9981556   0.7118524  11.4663687  29.0150871   0.7356716  12.4231224
  29.4495163  -0.1010479  11.2389956  72.3251801  61.8651352  32.3184891
  71.7475510  61.5519981  33.0145645  72.9138031  62.4811440  32.7547073
  14.4936752   4.2782674  82.7211990  15.1996212   3.9966395  83.3030548
  13.9471989   3.4998205  82.6134186  83.3015442  22.8531723   4.6650910
  82.3539886  22.8800793   4.7979779  83.6674271  23.2009277   5.4783735
  69.8224869  61.2277412  27.5706654  69.9440765  61.8135262  26.8234692
  70.4206848  61.5636406  28.2381744  25.4796810  38.9675217  11.2740297
  25.9537926  38.6517143  10.5047989  24.5595207  38.9534607  11.0107050
  56.7139053  51.5688896  49.0062447  57.0457230  52.4578819  49.1320534
  57.0408897  51.0819130  49.7626610  68.0542526  47.1247063  47.9368477
  68.0265427  46.3714828  47.3468361  68.9393768  47.1112709  48.3009987
  30.5738850  60.6351929  69.1333237  31.0295353  59.8885803  69.5221481
  31.2743225  61.2289085  68.8629227  30.9430561  49.0059624   8.6287041
  30.5914917  48.1646423   8.3374691  30.1690521  49.5392380   8.8097172
  42.9805374  66.2919159  34.6100655  42.6899910  65.6870651  33.9274483
  42.5824623  65.9559021  35.4130974  85.8848114  41.4530754  65.2665939
  86.4714661  42.1795998  65.4769058  85.4261246  41.2705078  66.0866623
  32.0387764   7.6339293   8.3927097  32.6167030   8.2209120   7.9051833
  31.3262119   7.4393005   7.7839351  54.0276108  48.9298592  88.4924927
  54.1182137  49.8587303  88.2798309  53.3129425  48.6247864  87.9335556
  21.3783550  44.6490440  31.2784309  20.7528744  44.0613213  31.7022076
  22.0355339  44.0658684  30.8986206   5.3255658   1.0710672  88.1859131
   5.1499257   0.1301338  88.1910629   5.0525231   1.3704377  89.0531235
  45.4851646  48.3929558   1.4220283  44.5691490  48.3862801   1.1443491
  45.5302010  47.7340927   2.1149230  48.8561325   2.3880382  43.0724411
  48.1963425   2.4214978  42.3797722  49.4004593   3.1609461  42.9222679
  59.2215424  31.5211239  24.3710194  59.8449593  32.2089729  24.1376781
  59.2987366  31.4403534  25.3216763  79.2020264  50.1506538  60.6079712
  79.0173721  51.0417480  60.3111839  79.8173294  50.2622452  61.3326645
  61.7585487   4.1278052  50.4762306  61.5636177   4.7535486  49.7786064
  62.6104164   3.7617159  50.2384605  63.9199982  19.0894508   4.4217134
  63.9716301  19.2688293   5.3605366  64.3578949  19.8349590   4.0109878
  60.7425499  21.9324398  16.6497498  59.9265213  22.3943539  16.8420086
  60.9839249  22.2279167  15.7718763  48.7034988  29.4590530  22.9891376
  49.2793312  29.7967167  23.6751652  49.2017937  28.7476444  22.5868530
  79.7544174  64.2746277  27.3856564  79.4814911  64.4127808  26.4786530
  79.3578262  64.9999237  27.8682404  25.2400112  20.9043064  18.6018238
  25.3494663  21.7245865  18.1207905  26.0605431  20.4322147  18.4600983
  51.6674957  56.7827187  59.2908974  50.8077354  56.5825844  58.9207726
  51.9035873  55.9982986  59.7860489  13.1248398  70.9158859  32.1502609
  13.4880505  70.1447296  32.5857239  13.8840923  71.4718018  31.9749756
   5.3094449   4.0197134  76.1090622   4.5374975   4.4927917  76.4197464
   5.1692314   3.9250329  75.1669312  46.6469040  71.7118378  49.3587112
  46.4583855  71.3507080  50.2248955  47.3442001  71.1543884  49.0133781
  35.6378860   6.5085869  80.5492630  36.2032776   7.2714324  80.6702194
  35.1671562   6.4254456  81.3785553  35.2075348  47.5352592  74.3397751
  35.4466324  48.1492462  73.6454544  34.4308701  47.9217606  74.7443008
  38.0721512   2.4669104  59.7915115  37.7239494   1.8426390  60.4281197
  39.0126114   2.4898424  59.9682693  16.8575230  62.8923531   9.7229519
  17.6736641  63.3789864   9.6074696  16.3981762  63.3575363  10.4221230
  46.7571220  20.6541481  24.7870655  47.5949364  20.2373371  24.9884892
  46.2873993  20.0062294  24.2619038  69.9709778  30.9392109  24.1608543
  70.4639664  30.1637745  23.8927174  70.5022430  31.3333855  24.8526802
  68.9005661  34.7941704  60.7545586  69.7894135  35.0676346  60.9812813
  68.8390503  33.8930435  61.0714493  73.5271072  47.4912529  70.6805878
  73.4066849  46.9121780  71.4331894  74.4102478  47.8442116  70.7888489
  28.3531513  12.1040802   8.2866678  29.0745487  11.9901743   8.9054117
  28.3455677  11.2945452   7.7759552  20.0642223  59.6407852   5.0449505
  20.7278805  60.1439285   5.5167923  20.2716808  58.7272263   5.2414379
  69.1784058   7.8116922  61.2145462  69.5994110   8.6610689  61.3469925
  69.6268082   7.4377995  60.4560127  72.7135925  63.8329887  61.4365654
  73.0165787  64.1665115  60.5920563  72.3328629  62.9784546  61.2339592
  64.6489258  28.8061047  65.0094681  65.5504303  28.8262863  65.3305893
  64.6690063  28.1891308  64.2779160  27.3694210  50.9741287  18.2013149
  27.6868763  50.1580963  18.5880241  28.1017399  51.5836029  18.2934017
  62.5962143  36.5228577  55.6262589  63.2634468  35.9113770  55.9379082
  61.7669029  36.1358032  55.9067230   7.8733783  52.6833687  59.5207901
   7.0244374  53.1234398  59.5640450   8.2500916  52.9708710  58.6891289
  44.7338409  34.3693199  66.4415436  44.0398979  33.8806953  65.9989090
  45.5290909  34.1481361  65.9568939  60.8077812  38.5783272  53.5449677
  61.2692070  38.4819298  54.3780479  60.6185493  39.5145798  53.4829140
  53.3108673  13.6365852  42.3911781  53.0621796  13.2425833  43.2273293
  54.1062737  14.1318092  42.5869179  62.5305099  54.2805710  17.9200668
  62.2972908  53.8321381  17.1072006  62.4685516  55.2115364  17.7063026
  83.2497864  66.5360489  67.5512772  82.6569977  65.8424530  67.2618408
  84.1204529  66.1407700  67.5074158  12.4261627  33.6132202  63.8624992
  12.0064631  34.3829460  64.2466965  13.3640547  33.7800980  63.9559898
  23.3084450  37.1580467  68.2972717  23.2002163  37.3458252  67.3649292
  22.9260273  37.9155846  68.7401352  13.8312511  32.5250168  21.4720650
  14.5550985  32.6821594  20.8657780  13.8934174  31.5934124  21.6829643
  19.5494537  49.6249504  21.1654015  18.8720531  48.9548492  21.0741692
  20.3645344  49.1727638  20.9476891   4.2000322  61.1003189   9.3828373
   3.3916759  61.0856552   9.8952589   3.9306509  61.4137192   8.5194445
  43.8803024  57.5435677   7.9634833  44.2886009  57.0573997   8.6798391
  43.6370125  56.8719597   7.3263140  38.0993156  68.4886093  74.8492966
  38.0730667  67.8930359  74.1004028  37.1886292  68.5516129  75.1372375
  14.1501684  44.0576477  24.6211491  13.6533079  44.7477684  25.0605774
  15.0446119  44.1629753  24.9453526  34.5750084  62.1530762  51.8821487
  33.6179657  62.1606140  51.8977661  34.7984543  61.5181770  51.2015533
  73.6280136  59.4124832  76.1030197  72.8520279  59.6590652  75.5997467
  74.2106552  59.0064240  75.4612427  56.6411018  18.5661736  65.5193558
  57.5941696  18.6406479  65.4709625  56.3337631  19.4695873  65.5943069
   3.7551997  36.9500618  84.7134705   3.8999546  37.8328094  85.0541077
   3.3416820  36.4790039  85.4368973  51.4763260  10.0475225  42.4977760
  52.2252846  10.3559599  41.9877167  50.7156487  10.2518349  41.9538460
  36.8753853  47.0555344  17.2445259  36.7227859  47.6569061  16.5156250
  37.6413536  46.5466652  16.9788609  52.6278267  22.8606300  43.5107498
  53.1444817  22.0794411  43.3131599  52.8376427  23.4715443  42.8043556
  50.5667229   4.6281238  15.0224028  51.0910683   5.2947159  15.4661913
  50.4913979   4.9431205  14.1216612  43.0501671  39.9147530   5.6183991
  43.1997795  39.9596748   4.6740317  43.7517700  40.4441528   5.9975014
  48.4476776   1.9194024  15.1277409  47.6044426   2.3328969  14.9427967
  48.4389648   1.7700520  16.0731773  83.3393936  51.0085182  80.8714600
  83.3906250  50.5116577  80.0549164  82.4465179  51.3531609  80.8864899
  40.5609627  59.7613106  46.2358513  40.0572586  59.1033630  45.7566681
  41.4043922  59.7928848  45.7843437  71.3365326   6.4809341  19.3374748
  71.5360184   7.2491488  18.8024216  70.5224533   6.1374745  18.9693069
  12.3627863  52.0555038  75.2926788  12.7201548  52.1373329  76.1768799
  13.0101366  51.5321198  74.8201904  31.1010933  50.4372864  17.7243748
  30.9667263  49.8656311  18.4802780  30.7220230  51.2758102  17.9878387
  82.5330811   2.0684040  26.2530403  83.3073120   1.7982072  25.7592773
  82.8505325   2.7553151  26.8392239  34.3253326  38.7098770  55.9969521
  35.2220345  38.6875420  56.3311005  34.0051346  39.5817375  56.2284050
  46.7836037  41.0970726  72.0932999  46.8024368  41.0269508  73.0477448
  46.1242104  40.4596252  71.8192749  24.6279240  45.7863388  44.1008072
  23.6831226  45.7490692  44.2497787  24.9047565  44.8701286  44.0883522
  18.1150360  23.7833385  78.8987732  17.5770359  23.3354378  79.5515900
  18.8749447  23.2130203  78.7825394  82.2933807  55.0440445  88.7241364
  82.8086243  55.2320290  87.9396515  81.3931122  54.9703102  88.4074249
  46.3546715  17.9689693  64.2579803  46.4740601  17.6292362  65.1448593
  45.6187210  17.4678402  63.9065857  56.5718117  54.6516418  78.1956177
  57.3850441  54.5577278  78.6916656  56.8500671  54.9736900  77.3382416
  84.1339951  33.4621964  75.0386734  84.6521835  33.8700981  75.7324524
  83.4790344  34.1216164  74.8097153  78.4834595  66.5486450  28.5048676
  77.9869690  67.1767349  29.0294838  78.6208649  66.9916229  27.6675396
  34.8958626  62.4485474  89.4249725  34.0018539  62.3080788  89.1131287
  35.4496460  62.1967735  88.6859436  18.7277241  56.9331703  10.6791935
  17.7930126  57.0424385  10.5042419  19.0784931  57.8237534  10.6717730
  24.8105812  62.1615829  59.5441437  25.7187614  61.9317322  59.3476524
  24.5849991  62.8250809  58.8921318  81.4553986   6.9310141  67.3098068
  81.9064484   7.2837319  66.5427475  81.3566132   7.6814847  67.8956985
  23.9906921  31.1124668  81.0085983  24.8141384  31.4485359  81.3624725
  23.7185040  31.7706108  80.3690796  52.4025002  54.5252113  81.0229492
  52.1389503  54.1186829  80.1974106  53.3545685  54.6010818  80.9593506
   9.6994009  20.5557003   1.5528349   8.9131136  20.9601097   1.9194913
   9.4816732  19.6259842   1.4860952  70.9175797  16.6982727   5.0422893
  70.9468918  17.6025066   4.7296672  71.7734680  16.3371716   4.8114352
  31.5297680  36.1228867  68.6433716  32.3163071  36.0723152  69.1865387
  31.1683254  35.2367516  68.6621780  13.4279566  41.1565933  33.4342194
  14.0022697  40.4747162  33.0857315  12.5638361  40.9457436  33.0805626
  51.6576424  26.4561558   4.4527774  51.1344452  25.6887360   4.6842146
  52.4478264  26.0950184   4.0510111  80.3794708  25.8152180  51.2256775
  80.4525375  26.5703373  50.6419945  80.7360535  26.1216011  52.0594711
  57.0641327  13.1115427  62.8616219  57.8793907  13.5995693  62.7458000
  56.6597176  13.5013008  63.6367149  48.2045822  22.6362324  39.8364716
  47.9033089  22.4199467  40.7189026  47.6734886  23.3902016  39.5801468
  60.3340912  46.2568169  44.4504585  60.6345787  45.6741638  45.1479225
  59.4457588  46.5019875  44.7092819  51.4469986  59.8128395  17.1964111
  50.6796799  60.3848419  17.2125759  51.9075699  60.0068016  18.0127964
  41.4699821  24.8106918  82.6365738  41.0722008  24.7498703  83.5050812
  41.8330688  23.9393616  82.4778824  73.2199554  32.1467209   8.6399517
  74.1695099  32.2636070   8.6700983  73.0408630  31.8721771   7.7406278
  46.6221809  38.5391808  81.3555984  47.4978256  38.8719635  81.1587753
  46.0507469  39.3020935  81.2680588  16.4017506  47.3493423  32.4388008
  16.0440578  46.4960899  32.6842499  15.9757519  47.9674568  33.0326805
  69.0303192  27.3612938  88.4903717  69.7359390  27.5048218  89.1210327
  69.0428238  28.1410866  87.9353943  49.3381805   5.0821962  73.1251373
  49.4588394   4.5700836  72.3255005  48.4423714   5.4139271  73.0642166
  64.9455490  33.8864059  60.8969994  64.2805405  33.8019218  61.5802689
  65.7770844  33.8891525  61.3711128  55.6730270  56.7873230  32.5961876
  56.5403633  57.1887283  32.6493988  55.6373520  56.1938210  33.3463287
  56.9346428  15.9141455  64.8140869  57.3610268  15.8082857  63.9636650
  56.9792976  16.8541584  64.9890518   7.7288504  59.5231285  89.2132797
   8.6364098  59.2389565  89.3219681   7.5301976  59.3439369  88.2942200
  19.8247223  64.5164871  78.5852432  20.3483829  65.0989609  78.0350266
  19.8381157  64.9273911  79.4496613  55.9557915  47.2418365  72.2177963
  55.5122910  46.9145317  71.4352264  56.8544273  46.9227486  72.1349335
  86.7369690  23.7521095  31.0694866  86.2862930  23.4949913  31.8738556
  86.2980957  24.5576305  30.7960606  49.6032181  27.9025230   6.3894234
  48.8274078  28.3575897   6.7169347  49.3855019  27.6787910   5.4845605
  39.0962677  60.9427032  19.0445786  38.3675613  60.4110374  19.3648167
  38.6847992  61.7462883  18.7264996  46.4996147  36.4821281  62.8743629
  45.8949127  37.0278473  63.3771133  46.1817398  36.5398712  61.9733353
  46.4849548  65.5482635  12.5799122  47.2700310  65.9981003  12.8922091
  46.1154861  65.1398926  13.3628292  31.6297684  44.7406845  80.1543808
  31.9905033  44.0579300  79.5887375  31.3774185  45.4413452  79.5530243
  38.0107002  63.4914780  18.0909996  37.3577194  63.8871117  18.6683369
  37.7587242  63.7774315  17.2129517  14.5329456   8.6067286   4.3072605
  14.4585676   7.7048936   4.6193404  13.8388777   9.0777578   4.7683816
   8.2374640  55.1113434  48.7951431   8.1313429  54.7877655  47.9005661
   7.5247478  54.7005577  49.2845535  14.4782858  66.1585464  34.3184166
  14.3574238  66.1804352  35.2677040  15.2678480  65.6329803  34.1895561
  22.4210358  51.2050705  70.6986237  22.0357838  51.5079460  71.5208664
  23.1481133  50.6434784  70.9673309   0.7467746  34.2538643  30.4582024
   0.1192173  33.6037521  30.7740440   0.2169801  35.0305061  30.2782650
   1.6617142  44.5296555  63.9248085   2.2990685  44.9963379  64.4653778
   1.6534280  45.0092278  63.0964508  17.7210865   3.8759358  83.0715179
  17.5126343   4.4271760  83.8257828  18.6760406   3.9028814  83.0117874
  54.2330513  26.5081043  46.6620407  53.8095474  25.6503925  46.6967468
  53.5490417  27.1237869  46.9252892  51.6472969  16.0731449  42.0868607
  52.2994843  15.3809376  41.9785385  51.1162605  15.7876711  42.8303223
  34.3953171  51.5677719  67.1004639  35.0154762  51.1769371  66.4849319
  34.9135437  52.2073441  67.5889511  35.3411598  67.8715210  76.9614105
  35.3394547  68.6324997  76.3807831  35.9569778  68.1023026  77.6569214
  57.6332703  41.9666328  32.2881927  56.7091751  42.1338425  32.4734383
  58.0555382  41.9776230  33.1471481  70.6652298  27.2571392  66.0238419
  69.9824066  26.6508770  65.7367249  70.6311569  27.2209663  66.9797516
  22.3281460   1.3541150  21.6926250  22.4891338   1.1199368  22.6066685
  22.8067265   2.1735826  21.5674629   8.3274717  49.0774994   6.2015586
   7.4641891  48.8513184   5.8554139   8.6690531  49.7273483   5.5873513
  18.3178959  59.7806702  81.3041992  18.1815224  60.1479530  80.4308472
  17.4624481  59.4306831  81.5531006  47.5285454  66.5949173  51.1083488
  46.8986740  66.2853470  50.4574585  47.8519440  65.7971954  51.5270233
  50.3267746   8.5950785  54.1213799  50.6519966   7.8109121  53.6791763
  50.3943939   8.3896608  55.0538292  34.7807693  15.5622444   1.2003779
  35.2014961  14.7380133   1.4450490  35.2598114  15.8547573   0.4250153
  17.5058098  16.8570824  16.8990002  17.2285748  17.6894188  17.2818699
  16.9747734  16.1986732  17.3470268  11.8402042  60.4737206  10.7819729
  11.2551298  61.0394249  10.2780905  11.5356207  60.5582085  11.6854782
  17.3448467  52.4876099  43.1493187  17.9992065  51.8165512  43.3435364
  17.2855167  53.0040207  43.9530830  59.6292572   3.7060463  46.5992737
  58.9496002   3.7995648  47.2667694  59.2093582   3.9923854  45.7881470
  55.3393555  49.8424034  72.1997375  55.0350609  48.9553566  72.3915329
  56.2940712  49.7734489  72.2002106  81.1447830  49.1200600  84.6382294
  81.2934723  48.3066902  84.1559830  80.7152252  49.6975441  84.0071793
  56.8470879   0.3038625  47.6130829  56.5887566   0.1131091  48.5148087
  56.1032448   0.0147218  47.0845718   3.5223687  56.1693878   2.1922002
   4.3495779  56.5123901   1.8541082   2.9382441  56.1622925   1.4339257
  38.2997551  35.3544350  64.3009415  38.7451019  34.6604004  64.7869568
  37.4458809  35.4345436  64.7260513  49.5141258  55.6191978  17.3335629
  48.8719749  56.3235397  17.4217625  50.3548241  56.0700340  17.2547836
   3.7374532  43.9515228  78.5000458   3.5274148  43.1339149  78.0487900
   4.6939864  43.9690018  78.5312042  76.6176224  64.5364761  22.1726494
  77.5033417  64.2179871  22.3466969  76.3000565  64.8382492  23.0237179
  19.6328259  25.5393066  24.5038090  19.2979507  25.0638447  23.7435284
  20.5806694  25.4105911  24.4683628  69.2264633  69.3411484  59.2307281
  69.7840729  68.5865021  59.4199867  69.7820740  70.1000595  59.4084549
  73.7948990  20.3743916  57.5051994  73.4769058  20.9789982  56.8347092
  74.4713745  20.8666973  57.9702301  59.2132378  70.0290680  68.7225418
  59.4621086  70.4550095  67.9022522  59.4655342  69.1134720  68.6031494
  19.1767654   9.6649809  62.6284180  19.8857479   9.2969332  63.1557846
  19.5329552  10.4853859  62.2873955  46.8938713   0.7827500   0.5785249
  46.1109962   0.8351688   0.0302585  47.3456993  -0.0050786   0.2761880
  13.1157780  54.4057999  17.5450497  12.5547600  53.6709137  17.7929058
  13.3900127  54.7893677  18.3780575  29.8796482  20.6733055   3.4857340
  30.2062664  20.9344349   4.3467588  29.0718040  20.1945038   3.6711235
  28.0087204  44.9937401  53.8693886  28.3306694  45.8506927  54.1490517
  28.6518250  44.3728828  54.2117119  46.0087814  18.0412292   8.2418642
  45.9418335  18.7652225   7.6193004  45.1991386  17.5452843   8.1204357
   7.8692303  38.9516068  82.8518143   8.6662140  39.0250626  83.3768387
   8.1811924  38.9054146  81.9480591  21.9093571  45.1468391  43.7114716
  21.1933670  45.6763420  43.3604469  21.9986725  44.4233742  43.0911064
  48.9888725  41.9715958  27.4570885  49.2674332  41.4701576  26.6908016
  49.2877083  42.8637619  27.2810955   3.1231668  59.1628990  83.2600327
   3.0166564  58.2276077  83.0864792   3.9006803  59.2163544  83.8157730
  86.3927078   9.4832430  58.0766754  86.5628967  10.0636454  58.8185654
  85.5898438   9.8257818  57.6838531  79.9500351  38.3710556  47.9695930
  80.2760544  39.2242622  48.2559166  80.5548782  37.7402115  48.3600197
  73.6231766  19.8040028  68.0714188  74.1655579  20.1197376  67.3486633
  73.9184036  20.3074570  68.8301010  41.4135590  45.0466690  67.5710144
  40.8326569  44.4474030  67.1023331  40.8945084  45.3497696  68.3159637
  35.4993248  46.3216782  38.9906998  34.9788589  45.7028427  38.4784546
  35.1825562  47.1832085  38.7193069  50.3487892  69.2466202  72.1685257
  49.8576965  69.1878967  71.3490067  49.7420006  69.6606598  72.7822189
  72.4383240  46.9810867   0.3070957  71.5553284  47.1326180   0.6441337
  72.8224945  47.8552628   0.2403217   5.7057085  34.8982658  22.0330715
   6.4971976  34.9558372  22.5682926   5.0470662  34.5250854  22.6188679
  20.4084606  33.0464096  11.1657915  20.2157097  32.3477364  11.7910414
  21.1823578  33.4813690  11.5237341  61.1698914  61.5239639  27.8371391
  61.5122223  62.3949699  27.6361637  60.4771080  61.6810684  28.4786987
  77.2391205  56.9968300  32.8498039  77.1495361  56.8078423  31.9157333
  77.5041580  57.9159737  32.8838577  20.2367916  32.2686424  65.2411270
  20.4719982  32.1275368  66.1581879  20.8374729  31.7074699  64.7507172
  86.2008972  12.5039349   5.1404386  85.9669495  13.3338308   5.5560975
  87.0890121  12.3236790   5.4486375  85.3651428  12.4597387  38.4429054
  84.9722061  11.8323793  39.0497475  85.7343597  13.1393852  39.0068130
  17.0087509  15.8910093   8.4201641  17.1759872  14.9913025   8.1394672
  16.3775444  16.2270222   7.7838426  48.0784721  64.6874771  54.8329315
  47.3090668  64.3425217  54.3798828  47.7860565  64.8199615  55.7346916
  59.1320496  51.1643715  83.1094742  58.4884033  51.5426521  82.5104294
  59.9081955  51.7149200  83.0059128  12.0939846  43.9123573  88.6564560
  11.8708286  43.9059906  87.7256546  12.1931486  42.9882202  88.8853073
  78.1990128  70.3097992  61.1081429  77.9876556  70.3371811  60.1749687
  78.8597488  70.9925766  61.2242012  38.7242241  40.6164703  80.0964813
  38.7809792  40.4330215  79.1587372  38.5908203  41.5629425  80.1477280
  63.1072083   6.9004073  31.4148083  62.4840889   6.5506477  30.7779236
  62.6221428   6.9177890  32.2398186  13.9845457  10.7051773   6.2379913
  13.0964661  11.0255661   6.0801997  14.0956450  10.7648716   7.1868458
  28.7234974  66.4098282   1.0164329  29.2424278  65.9304504   0.3705703
  28.0183868  66.8101654   0.5077254   3.4698119  25.2514973  57.4847221
   2.9159656  24.5831375  57.0812607   3.7448606  25.8069267  56.7552834
  47.9137421  40.1048317  66.0980301  47.3194580  40.6694298  65.6037674
  47.7361755  40.3145447  67.0149384  73.3639603  54.2135239   8.3665991
  74.0143127  54.7758675   8.7873650  73.5416107  53.3398056   8.7148666
  43.3184700  45.9959984  81.5876083  42.7014656  45.5017090  82.1272507
  42.8310318  46.1957207  80.7883911  43.2342110  49.5875015  63.1595383
  42.3263168  49.3924904  62.9273148  43.2578278  50.5396500  63.2548752
  57.0713120  66.5393372  68.6423187  57.8387108  66.2518768  68.1476517
  57.1760559  67.4878464  68.7170715  53.4779587  10.5137825  40.8972359
  54.1184845  11.2208061  40.8193130  53.7526894   9.8687992  40.2455063
  51.9384422  10.1543655  47.5670509  52.0588112  11.0496807  47.8835220
  52.0471382  10.2190638  46.6182480  73.6388245  65.3473587  31.5114727
  74.3350983  65.1800842  30.8762989  74.0274887  65.1241684  32.3572578
  60.0160027  46.5043297  60.9866066  60.5006256  46.3272133  60.1803818
  59.1169853  46.6589127  60.6966095  36.7839928  45.8423805  88.6149292
  37.6897430  45.5566368  88.4957504  36.4046516  45.1945839  89.2088013
  28.4324532  49.7249832   2.9291675  27.6509666  50.0550766   2.4858301
  29.1218719  50.3456535   2.6931553  77.6788101  14.0660095  34.7539215
  78.2905807  13.5624428  34.2168999  78.2322311  14.6830645  35.2326698
  82.0145569  61.8357735   7.5207787  82.5838623  62.4322433   7.0346217
  82.5303879  61.0348320   7.6137257  76.2684250  67.7708817  11.2456007
  76.2343979  68.6366806  11.6523752  75.8508835  67.1906128  11.8821402
  55.4708748  47.9125175  52.8906288  54.6406708  48.3866959  52.9370193
  55.2180367  46.9901161  52.8521271  70.6258240   1.2219037  83.6760025
  69.6687317   1.2359046  83.6730270  70.8790817   2.1406782  83.5868607
  32.1668472  44.3296204  85.5912399  31.8866634  45.0895119  86.1014328
  32.0411339  43.5858917  86.1805649   3.2114739   1.9491507  68.7164536
   3.1123865   1.5131918  69.5628281   3.6395571   1.2981764  68.1603928
  44.0873070  68.7819138  20.0770588  43.7719765  68.1522675  19.4287205
  44.4992485  69.4732971  19.5588665  79.8266983  53.6989098  50.4400063
  79.7573624  53.6857643  49.4854126  79.2272491  54.3929863  50.7141533
  65.7001190  34.8381271  72.2138138  66.4822769  34.2948494  72.3103180
  65.9460373  35.6816368  72.5936127  77.2161255  21.8213596  47.6380653
  76.2734985  21.7640038  47.7942276  77.4891586  22.6095715  48.1075439
   4.6676049  56.2335052  20.7438869   5.0290060  56.8488274  20.1059189
   4.9110498  56.5995255  21.5941792  80.8278275  39.5607185  84.5995102
  81.2287521  39.5305595  83.7308426  81.4222488  40.1020470  85.1189880
  17.0274792  43.0081673   4.6761665  16.2587013  43.5741425   4.6062660
  16.8677235  42.4829369   5.4602861  78.5721512  49.7215881  78.9084091
  78.1661911  49.5925484  78.0512161  79.3191910  50.2946205  78.7358093
  44.5588341  36.5131721  28.3649597  45.3836975  36.8120651  27.9822159
  44.4694061  35.6086426  28.0648518  39.4212189  14.3231182  77.8860016
  39.7212563  13.6477041  77.2777100  38.6163254  14.6596909  77.4921799
   4.1223617  66.3853302  15.5271177   3.6466925  66.8944702  16.1834297
   4.9519911  66.1644821  15.9504080  16.7424488  68.7291031  85.7977905
  17.2714367  69.2240295  85.1721344  15.8559799  69.0726395  85.6864777
  66.7168427  38.2888222  84.6556625  67.0017471  39.1708870  84.8944626
  66.2739182  38.3997345  83.8143845   0.3819054  63.6359520  25.6170864
   0.7132071  64.4170761  25.1740074   0.9972079  62.9439583  25.3746452
  62.9116402  53.9307671   4.6343160  62.1712418  54.2440720   4.1148167
  63.1911201  54.6950760   5.1382561  -0.0072279  48.9405365   9.0134783
  -0.1101432  49.6647873   9.6308098   0.9341626  48.9016685   8.8446436
  85.9503250  10.7949715  50.7037849  86.5853043  10.0793266  50.7335892
  86.3590317  11.4989347  51.2074013  59.4930038  35.0462952   8.4264202
  59.7408257  34.4803162   9.1575041  59.0128250  34.4713593   7.8305063
   7.8580985  24.6347294  71.3840637   7.6953440  23.8662739  71.9310760
   8.8096800  24.7379055  71.3930206  61.0586662  19.8000565   8.2137098
  60.5384598  19.0562706   8.5176897  60.4476089  20.5368290   8.2165613
  49.9836388  52.7110367  13.8357048  49.2586060  52.8808441  14.4371443
  49.9282722  53.4146614  13.1891155  74.9159470  25.6527462  42.6186638
  75.0406799  25.1625156  43.4312820  75.5864716  25.3107815  42.0273170
  80.9305267  13.7856255  74.1656723  81.3946915  14.2675114  73.4811554
  80.9404907  14.3733711  74.9211121  17.9675083  34.8586693  37.8020668
  18.7968216  34.6532898  38.2336807  17.4300098  35.2507820  38.4902344
  73.3889236  53.6849251  41.1241989  73.2569046  52.8936348  41.6463737
  74.3069611  53.9154739  41.2666168   2.5309446  48.0458260   8.6995792
   3.0652475  48.1559258   7.9130492   3.0161753  48.5051727   9.3849888
   7.6179929   8.0428495  13.8652515   6.8338923   7.4945803  13.8938675
   8.1321049   7.7653279  14.6234741  42.4706802  68.3585663   5.4921141
  42.0142975  67.7900162   6.1123543  42.3137894  69.2444153   5.8190575
  14.9918995  47.7427597  70.8281479  15.6378460  47.1340981  71.1866379
  14.9310007  47.5092354  69.9018707  15.1397333  44.2859154  45.2271004
  16.0071945  44.1356888  44.8513680  14.5358057  44.1514015  44.4967499
  72.9514389  55.5996742  48.2282104  73.5167618  55.7365532  48.9884071
  72.0633698  55.6096725  48.5852470  29.1448936  16.8824997  14.2900419
  29.0625801  16.6592407  15.2171946  30.0580730  17.1508560  14.1884604
  37.6690063  58.7996292  77.4553146  36.9201775  58.2609558  77.1997452
  38.1223145  58.2800713  78.1192474  58.3872871   3.6032989  74.5084686
  57.6168289   3.2842157  74.0385666  58.6891747   2.8485465  75.0138855
  46.9260368  56.4400063  41.7325668  47.4514580  56.5622063  40.9418526
  47.5229073  56.6482887  42.4513130  31.5133514  16.6149292  16.3632298
  31.8997307  16.2609501  17.1642570  31.1515846  17.4614067  16.6255856
  53.4268951  25.6846828  63.3109016  52.9806519  24.8394871  63.2585144
  52.8009605  26.3091431  62.9441795   7.1451406  36.4034615   0.0020043
   7.2473016  36.7494240   0.8886304   7.2728615  35.4595909   0.0970098
   2.3100109  21.3551807  86.9224625   3.1930161  21.6592464  87.1324081
   1.8056440  22.1577606  86.7893829   8.0885820  70.0418777  51.3077240
   8.2198153  69.2777710  50.7463455   8.1194572  70.7875595  50.7083588
  38.7451706  10.8063698  20.8750782  38.8445015  10.2615862  21.6558304
  37.8217850  10.7195301  20.6383247  54.6355095  62.6206093  72.5277405
  54.6317558  63.4495964  72.0491943  54.7926254  62.8704071  73.4383163
  51.2711525  48.0263062  40.1879082  50.6827202  48.4498787  39.5629578
  52.0768394  47.8751411  39.6936913  19.1052952  14.1923265  87.3294754
  20.0309753  14.4336252  87.3629608  18.6437206  14.9690781  87.6454468
  66.2399445  32.3060112  66.9254608  66.9698563  32.7713051  66.5168533
  66.5588455  32.0804253  67.7993240  48.4099846  36.9777031  29.7969570
  48.7363777  36.5398903  29.0108147  47.9497070  37.7496414  29.4675808
  42.1509056  43.9838982  85.2968750  42.8281898  43.6891899  84.6880569
  41.3341713  43.9021416  84.8044357  67.6537933  58.9793015  38.5616074
  68.4865723  59.4413109  38.4654007  67.3203583  59.2614594  39.4133339
  66.0822525  19.6854362  27.9528999  66.1197510  18.7368679  28.0755463
  66.8101425  20.0233631  28.4746494  57.6626701  27.5340328  54.6161995
  57.5844193  27.6733093  53.6724281  56.9697266  26.9072533  54.8240776
   5.9427199  21.8535175  80.3474731   6.8919525  21.9665546  80.2983627
   5.7986994  21.3941917  81.1748199  18.9977818  71.0976486  16.9884968
  18.3062687  70.9511642  17.6339302  19.2548943  70.2189026  16.7093258
  35.8601074  50.8652573  56.0332489  36.4728928  50.7510910  55.3068237
  36.2613373  51.5396996  56.5813141  38.4191666  48.3700752  88.7281952
  38.7282753  48.5364876  89.6186981  37.9126434  47.5608635  88.7977829
  75.6834259  18.2943573  34.4530678  74.9602432  17.9564438  33.9248199
  75.3170624  19.0569439  34.9008141  32.4613228  39.4766121  86.6203766
  33.0200005  39.3580551  85.8522186  32.9686661  39.1097755  87.3444366
  20.3767738  49.5415344  69.2931061  20.5696602  48.6044044  69.2645264
  20.9599476  49.8855743  69.9696884  20.9799576   4.2571750  56.0474892
  21.8737450   4.5896378  56.1302299  20.6426659   4.6719637  55.2535019
  14.2475777  10.1541843  27.7946644  13.9178534   9.2804441  27.5846825
  13.4913568  10.6144705  28.1586685  31.2604618  52.2258606  48.5967293
  30.3433304  52.4256897  48.7842712  31.6732597  53.0816956  48.4810715
  17.6665745  43.4214478   0.4766553  17.1663704  43.0690346   1.2127477
  17.0056019  43.8017883  -0.1018658   4.5506639  66.0514832  50.2521057
   4.5896316  67.0078430  50.2422180   5.3899722  65.7814178  50.6247368
  51.6452026  62.2653618  37.2126465  51.9008865  62.9926109  37.7800674
  52.2775459  62.2881813  36.4944191  20.1804771  62.0921249  51.3574104
  19.2525787  62.3076591  51.4511375  20.1876392  61.2785759  50.8531113
  57.1614227  21.3174286  59.3178482  57.0572014  22.1634693  58.8824310
  57.3027725  21.5377102  60.2385674  80.5236969  42.2148094  74.6195450
  80.7074509  41.4240074  75.1265945  80.5777664  41.9319725  73.7066879
  62.0628815  50.3463097  16.3157005  61.2832642  50.8906250  16.2054634
  62.5867538  50.5169334  15.5329609  51.6126595  56.3895760  62.7454910
  50.8164330  56.4162025  62.2148781  51.5619507  57.1731110  63.2929726
  69.6113358  59.6882057  76.0220490  69.6670990  60.4429512  76.6081161
  70.2880783  59.8456764  75.3636780  50.1435356  48.8796577  22.7192860
  49.9765091  48.8478889  23.6612663  49.4351501  48.3647270  22.3329334
  39.2000923  62.2981720  52.4653587  38.2787323  62.3913269  52.2231827
  39.4019470  61.3789825  52.2905121  75.6126480  17.2055016  45.0642052
  74.7004242  17.4741669  45.1732864  76.0811691  17.6582737  45.7654343
  73.9589157  12.3880301  14.6668396  73.2990723  12.6515045  14.0254173
  73.7341537  12.8790388  15.4571714  48.1117325  68.8655548  37.9618721
  47.1660500  68.8288879  37.8184509  48.4792023  69.0341873  37.0942535
   5.0221043  46.5133629  15.7441788   5.7745800  46.5915794  16.3306026
   4.3185654  46.9817238  16.1935120   4.2896471  37.1134720  56.1189041
   4.9942670  36.4656029  56.1164474   4.0793190  37.2420998  55.1940002
  65.3051071  63.7984238  77.9013138  64.5039825  64.0399094  77.4364319
  65.1229095  62.9284592  78.2565536   3.8363118  56.1727219  54.2749596
   4.3118277  56.7926979  53.7220116   4.2066932  55.3190002  54.0508842
  77.9963226  27.5870457   4.2194076  78.8178940  27.9239941   3.8620148
  77.4227142  28.3520660   4.2635436  26.0487652  68.6832352  74.0201111
  26.2085018  69.2515640  74.7735825  25.9540977  67.8080521  74.3960495
  10.9575911  31.3315773   2.4506645  10.8306551  32.2683792   2.6007440
  10.8940392  30.9387684   3.3212364  56.9012756  50.1291428  66.4897995
  56.8199501  51.0543060  66.7215042  56.6590424  50.0917778  65.5645142
  11.4206190  51.9264450   7.3844323  11.7188988  51.0358429   7.5690670
  11.1822901  52.2815781   8.2407684  80.1319809  23.2246304  23.7581501
  80.0574188  22.2706547  23.7335415  79.3114777  23.5188789  24.1536503
  84.5783463  53.0672684  27.2654686  84.8191299  53.7691536  27.8701267
  83.9964218  52.5023270  27.7738323  77.3160706  62.2618828   7.9217830
  77.9295578  61.5719795   7.6689839  77.7004242  63.0648613   7.5700321
  70.4955826  54.6664886   7.6007905  70.3029861  55.5924377   7.7483015
  71.3824921  54.5491409   7.9411516  75.9261475   7.7173924  44.4056015
  75.9346848   7.0531683  43.7164230  76.1625061   7.2402697  45.2010345
  64.1817856  49.5030632  47.7397461  64.6338959  48.9365692  47.1145134
  64.8788071  50.0241737  48.1382942  47.6931992  12.6034040  39.0332489
  48.4344597  12.1852350  38.5951843  46.9818573  12.5601215  38.3942261
  44.6664314  42.3642464  41.7821083  44.1267548  41.9093552  41.1355362
  44.1701851  43.1546440  41.9948120  68.8969193  64.8163834  16.7004108
  68.6115723  65.1241837  17.5606823  68.6845398  65.5359650  16.1060028
  54.5983162  13.2064257  64.5149536  53.8493500  13.1320782  63.9235535
  54.4408989  14.0163879  65.0001450   4.2546568  31.9477940  65.8011398
   4.2990789  31.0273724  66.0601349   4.1895242  32.4262886  66.6275940
  33.4789047  20.9685421  77.3806458  33.5426102  21.9235840  77.3723068
  34.2851067  20.6784382  77.8073959  12.4359217  37.4836311   3.8196781
  12.0034409  37.4785957   4.6735902  12.0043983  38.1884995   3.3367953
  33.5642967  62.8461494  40.1528091  32.9032516  63.0070953  39.4794960
  34.3617897  63.2460403  39.8059311  14.4278660   0.9856877  74.5660400
  14.6305170   0.0536258  74.6462021  13.8969345   1.1825929  75.3377762
  29.3215771  49.8669434  31.0139580  29.2289505  50.8179588  31.0707150
  29.7166996  49.6145515  31.8484707  37.7956314  46.3865166  62.1919327
  37.1564026  46.3048859  62.8997116  38.6448708  46.3004417  62.6250763
  27.5515652  17.5403748  10.4551601  27.9511471  18.3496361  10.7740049
  27.9199715  16.8553600  11.0130711  38.0222244  10.9046021  76.4804459
  37.6800232  10.6671658  75.6186142  38.5205536  10.1367044  76.7601471
  61.2290459   1.0141772  16.1566429  60.7711487   0.4403720  16.7708988
  60.7444725   0.9222275  15.3362951  20.8704529  63.4697609  39.0420341
  21.4200172  63.4341240  39.8249397  21.0007973  64.3534088  38.6979256
   9.5089035  68.8441391  46.3137283  10.3055658  69.2378769  45.9580154
   8.8521624  68.9723129  45.6292610  66.0591583  48.4783401  45.6675797
  66.5042419  47.6842384  45.3717232  65.2258682  48.4754829  45.1965637
  26.4582767  64.1332779  72.8236160  26.1841984  64.1824188  73.7394180
  26.9556370  64.9382248  72.6789322  85.4057236  17.6726971  76.2721252
  86.0540009  18.3346672  76.0317917  85.4610672  17.6185608  77.2261963
  77.0246048  15.8344545  15.0644989  77.6240158  16.5717678  14.9491081
  76.2207718  16.2297897  15.4018345  58.5632439  10.1248837  37.5816689
  58.7087135   9.5620213  36.8212357  57.7036438   9.8637400  37.9120102
  61.3074036   6.0036540  29.7455654  60.6318359   5.4273815  30.1029854
  60.8619843   6.4960036  29.0560551  46.0901337  26.4721813  23.3427105
  45.3655853  26.8064079  22.8139820  45.7944031  26.5759201  24.2471504
  17.8105431  64.4231567  86.1329041  17.4138317  65.0320816  85.5099640
  17.8139496  63.5818443  85.6763840   6.7906055  70.9410248  19.5600491
   7.0093975  70.2209320  20.1515160   7.4506860  70.8920059  18.8685856
   8.6359282  59.9639778  77.0712051   8.5633278  59.5851669  76.1951523
   8.8823481  59.2276001  77.6308975   4.0204864   4.0295510  27.3015671
   4.2103825   4.1777058  26.3751640   3.2074771   4.5095654  27.4591541
  10.4568214  29.0125313   0.9900047  11.0388727  29.0374527   0.2305134
  10.7024059  29.7809086   1.5052879  47.9218102  47.2179489  19.3757153
  47.0379372  47.0063286  19.6760769  47.8116035  48.0055695  18.8430424
  73.2827530   6.5310736  82.2498856  73.4272232   7.1955662  82.9235382
  74.1364746   6.4262309  81.8298950  31.4135227  25.3801632  69.3260498
  31.9291649  26.0911255  68.9454193  30.5508728  25.4660969  68.9202423
  42.6806831  49.1519814  27.0901451  42.1388550  48.8615913  27.8238564
  42.2259865  49.9208717  26.7462082  75.6185532  47.5736198  30.5430222
  76.2851334  46.9112968  30.7253113  75.9868469  48.3860130  30.8903122
  63.6917038  33.0342712  33.4963875  64.3399353  33.6382637  33.1341362
  62.8655205  33.2986984  33.0917511  81.0080032  13.1846743  44.5845184
  80.7965622  13.6898289  43.7994461  80.6778870  12.3054171  44.3997002
  61.9646187  63.8791847  50.2338104  62.4356956  63.2403870  50.7688408
  62.6222496  64.2111282  49.6226120   9.5130968  52.9834213   1.3158828
   9.6767082  53.1551361   2.2432325   9.5398865  53.8470650   0.9040167
  36.3106766  46.6276321  48.0658340  36.7319221  47.2004204  48.7066879
  35.5298309  46.3012695  48.5130539  29.0461655   7.2716632   1.2200702
  28.7376862   6.3697491   1.1327604  29.9990730   7.2059722   1.1577231
   5.5511694  53.5410957  73.9363861   5.5557289  54.4769096  73.7352371
   4.6666794  53.2521553  73.7118378  54.7456245  59.2794685  81.1400375
  54.3592644  58.8164635  81.8833923  54.4083214  58.8207512  80.3705978
  81.6650238  20.0585766  41.5559654  81.7631378  19.1819706  41.1842575
  82.5615616  20.3503819  41.7212105  22.3975430  37.6480217  75.9782715
  23.1750355  37.7164879  76.5323944  22.0806522  36.7558899  76.1194000
  48.9418106  25.8664551  23.0835819  48.0802040  26.0262432  23.4687290
  48.7605400  25.6692429  22.1646271  72.3116226  17.0411892  82.3239365
  73.0468140  17.6524296  82.3699036  72.7077942  16.2090473  82.0654449
   4.3343883  48.2098465  34.9937401   4.3975749  47.4006500  35.5011215
   3.5520389  48.0939903  34.4545403  71.4694748   8.9111900  56.1484756
  71.5847778   7.9638424  56.0745201  72.3587418   9.2546978  56.2346725
  63.6700706  71.5771027  84.5273209  64.2219467  71.0894928  83.9158401
  62.7924347  71.5293579  84.1482239  51.4914513  23.0032825  79.6671143
  50.8691483  22.6752510  79.0179901  52.3480835  22.7355194  79.3343811
  60.6761475  24.9165382  33.4175987  59.7856102  25.1473637  33.6819763
  60.5658531  24.1651478  32.8349495   8.2804537  60.0294266  41.9847031
   8.9372120  60.7255669  42.0016632   8.5226603  59.4899292  41.2320328
  87.0031281  64.4611206  41.1389847  86.0849304  64.6295624  40.9273720
  87.1585007  64.9569244  41.9428902   7.2575030  13.0350714  10.4114180
   7.0406737  12.7189140   9.5343428   7.1104040  13.9799299  10.3685846
  80.9786301  32.9053383  56.8843651  80.3233261  32.3679199  56.4393959
  81.3184128  33.4832840  56.2011681  26.8448353  51.2494812  61.9493065
  26.6032124  51.0074234  62.8433151  26.7446098  50.4409447  61.4468613
  70.6511536  53.9634476  15.3090410  70.5181808  54.8857269  15.5280056
  69.9031601  53.7383690  14.7557955  84.2689133   8.7861252  13.2496223
  83.7457581   9.0261860  14.0144148  85.1750793   8.8368530  13.5537968
  36.4249496  62.0758972  57.9344368  37.3678169  62.2091980  57.8371201
  36.2270927  61.3361893  57.3600502  17.0403137   5.9947114  77.2272263
  17.9293880   6.3418851  77.2996597  16.5808334   6.3525314  77.9868774
  41.8774338  30.2589359  15.5959892  41.6786613  31.1139545  15.2143269
  41.1540298  30.0923710  16.2002869  33.5337296  35.5457649  87.6063385
  33.6239815  35.5456963  86.6534042  34.2496948  36.1012344  87.9146957
  78.6394882  24.0574989  64.4904480  78.1873016  23.2539768  64.7475586
  78.8815765  23.9138432  63.5755768  76.9122620  36.2013321  40.3479614
  77.4733734  36.9658470  40.2179604  76.0251007  36.5588417  40.3847466
  64.3913956  41.7109222  10.7260513  64.1305237  42.3049812  10.0222960
  64.2596436  42.2169456  11.5278072  84.9311142  37.6724281  75.3169785
  84.7444916  38.0777626  76.1637955  84.7201614  36.7472496  75.4425964
  14.5110073  45.1717758  64.0372467  14.2613258  45.6029434  63.2199402
  14.2676382  44.2550316  63.9084740  42.7205124  54.5429726  35.1865005
  42.7126007  55.4083710  34.7775269  42.7772942  53.9315605  34.4522095
  58.7858543  17.3624096  56.4838219  59.3053207  16.5661812  56.3724251
  58.7239075  17.4772625  57.4320831   6.2205119  57.5497437  70.4197769
   5.7818284  56.7110100  70.5623016   5.7627339  58.1606483  70.9972458
  42.0164719  57.1291542   2.1280949  42.0137825  56.2438164   1.7642233
  41.2449112  57.1579208   2.6938686  31.7907810  16.0158119  74.4894791
  31.3850288  16.5402985  73.7991867  31.3531857  15.1663427  74.4333878
  62.9825325  30.6934662  79.5795746  63.6795044  31.0899143  79.0568008
  63.4183769  29.9975109  80.0714188  12.8486080  34.4258728  27.2617989
  12.6585608  34.3552551  28.1972809  13.8005552  34.5153694  27.2168751
  17.7880325  49.8719025  78.2540817  18.6824341  50.1701622  78.0887985
  17.4466038  50.4868774  78.9032898  84.1624908  59.8989105  26.7730408
  83.2652435  59.8811569  26.4400711  84.5285110  60.7148666  26.4317589
  65.9910736  22.2906494  88.4916916  65.7062073  21.9546185  87.6418839
  66.8086777  21.8263187  88.6710052  63.4158249  16.6666832  44.0046692
  62.7107811  17.2645416  44.2530861  63.9652023  17.1779575  43.4105148
   2.0768511  52.6068420  60.9800491   1.3787794  51.9537239  61.0286942
   2.4886503  52.4543724  60.1295166  19.5375843  55.8143196   7.9868832
  19.4943504  55.8743019   8.9412231  18.8310871  55.2125397   7.7524700
  68.4079208  71.6023788  55.5690918  68.1619339  71.3578262  54.6769485
  68.4880905  70.7686768  56.0324974   5.5501509  41.5907288  80.8816910
   5.9654865  41.9544182  80.0997314   5.6165142  40.6424942  80.7691040
   2.6673722  70.6280594  14.4796867   2.7393863  70.0165405  15.2125483
   3.5298696  71.0396423  14.4255390  47.6769676  58.8002930  21.3052139
  47.4056015  59.6293068  20.9110966  48.3746605  58.4802589  20.7333431
  85.6855698  20.3799629  36.9125443  86.4093399  19.8355045  36.6027718
  86.1102982  21.1033077  37.3736420  70.4777985  55.8521767   0.5142960
  71.1213837  56.5392303   0.6874702  69.6814957  56.1543007   0.9511641
  45.4221230  25.1219234  57.6830902  45.2718887  24.2395802  57.3437805
  46.3723297  25.1820583  57.7816658   3.2155483   1.6604364   8.2264252
   3.5233119   1.6124319   9.1315269   3.1056066   2.5966535   8.0601654
  54.0595055  14.7067270  85.7476120  54.2439232  14.1151800  85.0180283
  53.2101669  15.0930042  85.5339661  31.8454380  39.2586403  30.4442787
  32.4798050  39.9479790  30.6407967  32.2384720  38.4624443  30.8018112
   9.8503447  51.3421669  67.2793579  10.0688019  51.4720383  66.3565063
   9.3500042  52.1221733  67.5191116  75.7675018  41.6649704  62.9272461
  75.5006332  40.7528534  62.8129845  74.9712677  42.1699600  62.7622299
  81.8598709  15.7819195   8.8276548  82.1491013  16.3272781   9.5592031
  82.6143188  15.2271051   8.6295910  68.8015213  43.5719681  80.7042770
  69.6888885  43.9055061  80.8367767  68.8539963  43.0674706  79.8925095
  54.5964050  25.3429928  72.1788406  54.8308563  24.9720631  73.0295258
  54.4636421  26.2749386  72.3522873  42.9645042  20.3897171  79.7194595
  42.5820351  21.2351151  79.4844055  42.2884712  19.9578915  80.2417068
  58.4865189  37.9738960   3.0667515  57.9689865  37.9358025   3.8710775
  58.3047218  37.1441765   2.6254473   0.2042333  69.9343491  88.1664047
   0.0791487  69.9430695  87.2174530   0.0301379  70.8351822  88.4392242
  17.3905430  46.1646080  14.6272230  18.0963898  45.7261162  15.1023397
  16.5884666  45.7836342  14.9846659  57.1032906  17.8942947  84.3632126
  57.9847183  17.7194462  84.0334473  56.9802780  17.2575626  85.0672531
  10.2610817  50.3936234  53.4101372  10.5649805  51.3012390  53.3995438
  10.3879051  50.0880814  52.5119209  65.2978897  43.4594498  23.9450779
  66.1707764  43.2451935  23.6158524  64.8066330  42.6412315  23.8714466
  46.5400009  39.8660164  74.6164093  46.9256783  39.1215363  74.1546326
  45.6690025  39.5633888  74.8733215  52.2290192  12.0943222  63.4914551
  51.4678116  12.2078066  62.9223175  51.9133034  11.5415754  64.2063217
  39.1415634  34.9742012   9.2330008  38.2906265  34.8007507   8.8304367
  39.2155075  35.9285393   9.2350035   3.3532293  45.6463394  65.5206451
   4.2882886  45.4946938  65.6581192   3.0094171  45.8306160  66.3947525
  59.1335945  34.2701263  63.6605568  58.2264938  34.5614166  63.7530365
  59.4534607  34.7262840  62.8822021  32.5233994  28.6395798  86.1064072
  32.1827507  27.7729187  86.3279572  31.7465782  29.1965733  86.0560226
  21.2134800  24.4548798  60.4297600  21.5298653  25.2381191  59.9795685
  20.2722340  24.5987072  60.5277519  61.6874504   9.5211458  33.5822372
  62.2963943   9.5177107  34.3207550  61.9600296  10.2689524  33.0505257
  12.0463152  10.2024937  81.2832642  12.6059399  10.8780098  81.6663208
  12.5720806   9.8284740  80.5762177  22.2119217  56.6931686  58.4459419
  22.4251328  56.2926979  59.2887955  22.3060398  57.6336746  58.5970001
  19.1807137  10.0657835  69.9944458  18.3991814   9.5205383  69.9041748
  18.8657665  10.8690720  70.4088974  77.2832184   1.2908492  16.8260002
  76.9102859   1.5232085  17.6763897  78.2066803   1.1174804  17.0087509
  21.5235043  39.9438019  74.8381042  20.7335911  40.3719444  75.1682053
  21.7534008  39.3091927  75.5168152  63.2346802  66.9441376   7.4561491
  62.4636612  67.4419250   7.7281237  63.4592400  67.3009262   6.5967855
  83.1445160  51.1443138  48.9124832  82.1889954  51.1224785  48.8601837
  83.3696747  50.4130707  49.4876480  81.4334564  25.0252533  63.9002762
  81.0018463  25.5795784  64.5503998  82.1930618  25.5345459  63.6176796
  33.9030685   4.2227745   4.7890954  33.8168602   4.7135148   5.6063924
  34.8298721   4.2971878   4.5616641  59.4481049  18.8531113  42.4600945
  58.8232079  19.5781155  42.4497643  59.9076233  18.9448528  43.2947540
  58.0238800  40.2428703  59.4711685  57.2479477  40.2675133  58.9112053
  57.9503708  41.0258141  60.0169029  62.0997849  45.8991318   9.0713491
  61.6454773  46.6707001   9.4097481  61.4799690  45.1809883   9.1991587
  59.5488777  61.7667618  39.8661880  58.7860909  61.9349899  40.4194374
  60.2905502  61.7771568  40.4712067  77.3391647  22.7902527   2.5309956
  77.4323273  22.8551636   1.5805544  78.1879272  23.0693035   2.8744657
  71.7783813  62.0920639  50.8920135  72.3268280  61.3288918  51.0736771
  71.4542389  61.9479027  50.0029793  81.7237778  26.0850754   7.7827911
  81.2526245  26.7051086   7.2261949  81.0882034  25.3917103   7.9603176
  40.8944550  38.7320595  71.0932770  40.2152824  38.2092171  70.6671448
  40.4634895  39.5611572  71.3008881  39.7498398  50.9823036   9.9030447
  38.9032631  51.0207443   9.4580078  40.0187187  50.0667458   9.8276348
  18.6634979  63.5071983  43.8757668  18.5685215  64.2511368  44.4705467
  19.3259602  63.7882309  43.2445793  58.3158836  66.6526642  10.9258442
  58.9078522  66.8184662  10.1921453  57.4826508  67.0365906  10.6528006
  33.7556152  58.1731415  37.4356346  33.4758720  57.8216858  36.5903816
  33.2569008  57.6714897  38.0805054  68.3858566  32.3770714   7.5699296
  68.8768387  33.0637054   8.0212631  68.2258606  32.7322922   6.6955996
  70.1738586  19.4472713  43.5154495  69.7651749  18.7244186  43.0393333
  71.0308380  19.5521374  43.1021461  29.6543331  54.1178017  12.8495789
  30.3751202  54.0712471  13.4776945  29.2998085  53.2290001  12.8255358
  59.0565109  26.9738598  27.1795769  59.1962585  27.0317116  28.1247501
  58.4453316  27.6840744  26.9839115  67.3633270  16.8519745  79.5869370
  68.2576981  16.5112038  79.5726166  66.8636627  16.1930962  80.0690689
  54.5579300  11.0693884  83.4460449  55.1187935  11.2809362  84.1923065
  54.0241623  11.8535156  83.3177109  75.3736725  10.5066013  74.2221527
  76.2521362  10.2265100  73.9651031  75.5206223  11.2540350  74.8017960
  24.3711185  22.7285156  10.7967262  24.1430740  21.8413696  10.5188761
  24.8867989  22.6048069  11.5935955  48.7589302  19.8254185  41.3173714
  49.0748596  19.3013992  42.0534554  49.2470512  19.4967422  40.5624237
  22.8551521  23.8304768  87.5275650  22.7360611  24.6048450  86.9776535
  23.5416374  24.0794621  88.1464157  18.0681038  56.4926987  84.2377548
  18.4498158  55.6237335  84.1135559  18.8082752  57.0937347  84.1532974
   3.6866183  18.1692657  61.5420418   2.9470224  18.3840733  60.9736328
   3.6598303  17.2156086  61.6198387   0.8064091  43.2995491  82.2390289
   1.4133215  44.0222893  82.3988342   0.8451127  42.7732658  83.0376282
  68.8294296  66.6851959  66.2009811  69.2740631  67.5055389  66.4144440
  67.9139404  66.8416748  66.4325409  80.8500366  68.4217300  79.0679550
  81.3190460  69.2559586  79.0499268  80.5897217  68.3130264  79.9826431
  13.3707981  50.9325752  85.0467987  12.4836655  50.6315155  84.8503571
  13.8837137  50.6845856  84.2776108  18.1376457  11.4041843  21.4299202
  17.5906582  11.6697540  22.1691818  17.9511280  12.0510044  20.7494297
  67.9292984  12.2192755  60.8290482  68.7018280  11.7325048  61.1162605
  67.6878815  12.7535601  61.5856781   1.4907104  59.8652420  39.9355011
   2.0662615  60.5083427  39.5215073   2.0701568  59.1395531  40.1675529
  86.0803299   9.3705215  84.8419342  86.8679810   9.8578033  85.0835724
  85.7893906   9.7754879  84.0248718  57.7292976  28.4759521  66.1141281
  58.4228401  28.9134121  65.6203003  57.8475113  28.7802219  67.0139465
   3.4596758   0.3341937  19.2299137   3.4080195   0.5869198  20.1517029
   3.9340501  -0.4971710  19.2357197  84.9705734  17.5332527  15.1889658
  85.0108719  18.2244339  15.8499336  85.8838654  17.2846909  15.0463552
  65.0445862  46.3779716  73.7112579  65.6176224  47.1404495  73.7918167
  64.3317413  46.5479698  74.3270264  24.0162830  67.5785522  23.9070053
  24.1113796  66.9388580  23.2013264  24.8146286  67.4827347  24.4263268
  48.3598938  53.4100037  69.7452850  48.7762833  52.6451988  70.1426773
  47.5068588  53.0918045  69.4497986  62.8736801   8.9673748  36.5377808
  62.2150955   9.3982639  37.0826073  63.7104301   9.2249384  36.9247437
  40.6181564  57.4773865  25.5080853  40.2545815  57.6193886  24.6340828
  40.3213844  56.6004753  25.7513733  56.4567337  50.9275131  87.9516830
  57.1597900  51.4395943  87.5520325  56.8077812  50.0385361  88.0038147
  50.1858635  60.1320801  69.1519012  50.5223160  59.3029633  68.8119125
  49.2376518  60.0074539  69.1917953  42.1987991  31.4677792  46.6930809
  42.8090630  31.5562172  47.4251938  41.7928696  32.3310318  46.6140251
  69.3478851  60.1606216  79.6178284  69.8134155  60.3015594  78.7934189
  69.6070175  60.8994026  80.1685410  24.5576630  15.9560833  84.2544022
  24.2529392  16.8445206  84.4389343  24.2866135  15.7927036  83.3510361
  44.3151474  54.0743637  21.0529156  44.3084679  54.2775803  21.9882717
  45.2427254  54.0630531  20.8168907  17.1216488  35.5521469  68.8275528
  17.0214710  36.4207726  69.2170258  17.6846962  35.0785904  69.4398880
  12.1293602  41.7419319  82.0795517  11.3363752  41.3956184  82.4887848
  12.3340626  41.1151962  81.3856201   6.0703440  70.6624374  28.4577522
   6.1061420  70.9776535  29.3608513   5.5662131  71.3290787  27.9911938
   4.1974869  61.6812668  67.5710526   4.1836638  60.7245522  67.5981369
   3.2790763  61.9313049  67.4698868  33.2197113  36.1971436  12.2743235
  32.8188629  37.0644913  12.3314276  33.8867111  36.1958733  12.9608660
  65.0044937  60.1417694   7.6828208  64.7648315  60.7791405   8.3555412
  64.5473175  59.3405418   7.9382782  68.4415436  47.0095787  61.9995232
  68.2228394  46.1436653  62.3439026  67.6817627  47.5511856  62.2131233
  26.5435810  52.7537422   5.1333528  26.6022987  51.7983589   5.1278701
  27.0456085  53.0201454   5.9035664  22.2432632  14.6037798  11.1760397
  22.6926498  13.8334103  11.5236216  21.5851479  14.8160906  11.8378859
  69.6198807  48.7590523  64.6239090  70.0006409  47.9197159  64.3655243
  68.7809219  48.5287247  65.0230713  18.4428387  61.4238892  22.1920261
  18.4415092  62.2313309  22.7060966  19.0451221  61.6009903  21.4694462
  26.0407639  56.0800514  43.1698570  26.5802402  56.7989349  42.8406143
  26.1758595  55.3715477  42.5405655  78.8220520  12.8086491  30.0588341
  78.6178436  13.5231686  29.4555187  79.0132828  12.0625572  29.4904938
   1.7073704  45.8359108  67.6133804   1.1041431  46.5706024  67.5012360
   1.4410399  45.4311943  68.4389114  53.2866135  16.3169060  32.2098923
  53.5813255  16.9476357  32.8668251  52.9108009  16.8548393  31.5130253
  81.9601593  47.2259598  28.4645863  81.8804703  47.3598404  27.5201511
  82.6164856  46.5349655  28.5540009  83.9321213  11.7352886  80.0489502
  84.6458969  11.7957478  79.4140472  83.1761856  11.4541731  79.5334244
  59.4700165   8.6172123  31.8776932  60.0657730   8.6271296  31.1285534
  60.0020638   8.9262810  32.6109276  55.4280701   1.7024746  34.1684418
  55.6632156   1.7368388  35.0956726  55.6595650   0.8147354  33.8953819
   9.6118212  53.3415756  57.3526306   9.7120066  54.1009293  56.7785454
  10.0083199  52.6191750  56.8656387  74.4507904  16.0607109  78.7142334
  74.7660065  16.0350266  77.8107910  74.1313477  16.9554329  78.8311081
  36.1366158  50.4463081  61.9309502  36.3391953  49.5130005  61.9952164
  35.2288704  50.5152855  62.2267113  40.1659050  53.5239067  52.0419426
  39.2766991  53.1702728  52.0639610  40.7046547  52.7979355  51.7273827
   2.1421449  60.8835220  24.7044811   1.8362335  60.0037689  24.9251251
   2.9586046  60.7401772  24.2258606  61.8975182  58.7320480  70.3988113
  62.3044243  58.3337326  69.6293945  62.3394356  59.5758133  70.4936905
  62.3463287  41.8507843  20.6191940  61.6920509  41.2481346  20.2656841
  62.2394753  42.6498871  20.1032009  48.0927696  65.7388000  23.6631737
  48.2085800  65.2964172  24.5040779  48.8113976  65.4139709  23.1206837
  42.6055298  56.6380882  75.6840439  43.0686226  55.8559303  75.9840546
  42.0626183  56.8955536  76.4291534  27.7553024   7.1203494  87.3721008
  27.6960869   6.4419074  86.6994629  28.0035629   6.6484666  88.1670380
  62.3062973  26.6553020  16.8934956  62.1058578  26.3099518  16.0235596
  62.8381577  27.4332409  16.7256603  58.9348373   8.3147001  35.5051537
  59.8919487   8.3216553  35.4943275  58.6965485   7.4885602  35.0845070
   7.9152522  23.3089104  21.2906265   7.5213833  23.3361015  20.4186401
   7.2321448  22.9400902  21.8505974  31.2066021  50.5185966  20.8556232
  31.2938232  51.4070358  20.5102177  31.2862778  50.6214142  21.8039436
  17.0684986  33.8288231  88.8774338  17.0720367  34.6543770  89.3618774
  17.0243015  34.0909081  87.9578781  84.7423782  10.8762751  40.3947372
  84.0179672  10.3115463  40.1254120  84.8986893  10.6450663  41.3103485
  44.4139824  39.8825493   2.9815216  44.9786072  39.1937370   3.3321929
  43.8113861  39.4235268   2.3963671  44.5937538  46.9791794  23.4005890
  44.2055664  47.0434532  22.5279999  43.8828087  47.2141037  23.9969082
  19.1481037   3.2594244   2.4576406  19.0208740   4.0594654   1.9477594
  20.0931053   3.2162483   2.6037254  82.3943863  40.7479172  10.3153172
  82.9445572  40.8480949   9.5384569  81.5441513  41.1014519  10.0538855
  76.9670105  22.2843056  39.6087418  77.7844849  22.7821827  39.6185875
  76.5087891  22.5916500  38.8265648   3.4091761   3.6006689  41.1619682
   3.8955014   2.9337578  40.6772499   2.8721035   4.0346122  40.4990349
  86.9440536  70.9418564  56.2027588  86.3624649  70.8689804  55.4460068
  86.3725204  71.2209625  56.9180794  14.0045443  33.4932671  87.5871353
  14.1542597  33.9424629  88.4190216  14.8544874  33.5140419  87.1473618
   9.8768110  36.2786598  47.5953941   9.3269463  37.0508537  47.7280388
   9.2562590  35.5664024  47.4409981  73.9235687  64.7592773   2.7508085
  74.3792801  64.0596771   2.2827156  73.2942657  64.3032074   3.3095646
  17.3850040  18.0379677  12.8831844  18.2556591  17.6821442  12.7054787
  16.9639549  17.3773346  13.4331989  43.3680000  32.0167961  17.5140362
  43.2692146  31.2163887  16.9984589  42.6194649  32.5577126  17.2623768
  24.1580124   2.7200873  18.0919189  24.5295906   2.8683634  18.9615021
  23.9152489   3.5929959  17.7831650  84.1660919  24.6422100  61.7930908
  83.8087463  25.4393539  62.1843681  83.9872131  24.7337837  60.8572235
  55.9234619  12.2541819  85.5445023  56.6664238  12.8270502  85.7343903
  55.8636513  11.6787710  86.3070984  68.8117142  26.5580845  10.1774149
  69.1369781  25.7567348   9.7671995  69.4454117  26.7471294  10.8694563
  53.4423752  24.1028137  36.7145004  54.0513153  23.5976562  36.1757584
  52.6359329  23.5871830  36.7120132  74.8862000  39.6481094  46.3867455
  75.6735077  39.1358261  46.5709991  74.7894135  40.2205963  47.1477432
  29.3910618   4.8933229  49.4359436  29.2520218   5.1889458  48.5362167
  29.3211861   5.6892424  49.9630699  22.6455917  11.5044775  33.6250534
  22.5813084  10.6198826  33.9850426  22.2059746  11.4502773  32.7765083
  36.2635460  64.0965805  15.7899237  35.8181038  64.8707962  16.1340237
  35.5547218  63.5101662  15.5254946  75.2854156  50.0473404  84.7994308
  75.1446228  50.9644318  84.5641708  75.9578018  50.0751953  85.4801254
  21.2694035  17.3331051  19.5270958  22.0331974  17.9032936  19.6150608
  20.5834312  17.9034462  19.1801319  13.6301641  67.1897964  53.7260933
  12.9675369  66.8426514  54.3232880  14.4230175  67.2529907  54.2586555
  60.3218307  41.3021812  40.0274124  59.9999428  41.7323418  40.8196144
  59.6522331  40.6504250  39.8198471  60.9238472  22.9060936  87.9035339
  61.5521431  23.0398960  88.6131592  61.2984848  22.1957264  87.3827057
  70.1512222  50.8504486  63.0736122  70.5359955  51.2375679  63.8599472
  69.8976669  49.9670334  63.3410378  80.3308868  64.1216660  73.7010040
  79.8700638  64.8126450  73.2251587  81.2425232  64.2053528  73.4214630
  65.5943146  54.9430504  86.0330734  65.8405533  55.8036003  86.3722763
  65.2822647  55.1160355  85.1448593  79.0192566  20.3350487  46.2102242
  79.3951340  19.6050262  46.7021828  78.3222885  20.6702995  46.7742004
  42.3901978  58.9209938   0.0239637  41.8129120  59.5147743   0.5039647
  42.2955017  58.0805206   0.4721463  11.1269283  13.8917379  11.5223227
  11.5244789  14.3415251  10.7767515  10.3829632  14.4427357  11.7655306
  26.3079643  43.9900246  23.9395447  26.5988941  44.7804146  23.4847031
  27.1180725  43.5490417  24.1954536  74.9821396  42.5673370  43.7809105
  74.2328339  42.2287407  44.2709389  75.4081802  41.7873154  43.4255486
   1.8117588  49.7573357  72.4046326   1.2304602  50.5117607  72.3089066
   2.5740590  50.1000137  72.8712158  43.6422272  68.6991425  57.0687675
  43.3583755  68.5942230  56.1606636  44.4151001  68.1395035  57.1443024
  27.2919407  10.1812458  83.0185394  26.3985138  10.4718428  83.2017670
  27.3779182   9.3558617  83.4955902  67.1640167  60.2318535  77.7766571
  66.6674728  60.9392815  78.1880264  68.0805435  60.4670639  77.9211502
  74.5593414  60.6132393  55.8362465  74.8572235  61.3330421  56.3924675
  73.6207428  60.7667618  55.7280655  70.4008865   0.6510960  38.2806015
  70.5238113   1.4991736  38.7070847  70.2528687   0.8654132  37.3595238
  37.2315102   1.6103258  48.1614456  37.0374947   1.3667285  47.2563210
  37.4381256   0.7815489  48.5935020  43.0489349  54.2129593   6.7817192
  42.3386726  53.8351021   7.3003578  42.6756783  55.0127144   6.4111800
  15.1030102  60.5319481  84.7968674  15.2746801  60.0455360  85.6031952
  15.2250290  61.4496384  85.0401535   8.9008121  45.4198494  34.8772125
   9.4709444  44.7903328  34.4357452   8.3523483  45.7770996  34.1787910
  39.3225327  51.9465294  54.3019791  38.6914749  51.4876480  53.7475204
  38.8915024  52.0089874  55.1543541  19.0830860  45.0363159  66.8952637
  18.6177521  45.7977867  66.5490570  18.8342552  44.3184624  66.3130264
  70.7772598  25.0184212  56.8529739  70.7762222  25.1820564  55.9098663
  71.2461319  25.7653370  57.2251434   1.7163066  37.2899170  38.3026581
   1.1488570  36.7541199  37.7484436   1.6121279  36.9209328  39.1797180
  38.9262428  46.1813507  79.4758377  38.9487953  47.1330528  79.5757523
  38.3645439  46.0336456  78.7149811  25.8997917  23.4448338  23.6119576
  25.4140644  22.9898815  22.9239750  26.4123554  24.1056595  23.1463203
  73.4741287  25.8017750  88.2847366  72.7858200  25.1367950  88.2681656
  73.9500580  25.6336384  89.0980301  30.6712723  39.0667839   4.2408638
  31.1968136  38.3861923   4.6613750  31.2593822  39.4590111   3.5954821
  82.7830734   2.3671002  16.2301311  82.3529510   2.5769823  15.4011707
  83.0227432   3.2177868  16.5977173  52.8206711  71.0831833  40.6226463
  53.3366623  71.4735794  41.3280334  52.2585411  71.7943344  40.3152390
  79.3138504  49.0918274  45.9729843  79.3342590  48.1803093  45.6815186
  79.8080368  49.5678139  45.3055649   1.5931977  39.1534576  64.1949005
   1.3384734  38.8911095  63.3102989   1.6225615  40.1096420  64.1620331
  36.5509682   4.8988886  85.6975098  36.4747047   5.8314180  85.4955063
  37.0205460   4.5294514  84.9496841  13.9164782  66.4740753  75.8121109
  14.7621832  66.8030396  75.5074844  13.9133682  66.6554565  76.7519608
  27.9542236  37.2486649  78.3914413  27.1166153  37.0704803  78.8190994
  27.7220669  37.7489662  77.6091080  32.6140709  27.3233776  75.0407639
  33.5494347  27.1303120  74.9771042  32.4706993  28.0254955  74.4061737
  45.4426384  36.4413261  18.1373730  45.5238380  37.1103783  18.8170853
  45.8267746  35.6560135  18.5271873  67.6370316  31.6310101  32.8745422
  68.1992798  31.5013809  32.1107979  68.0187378  32.3825111  33.3281708
  48.3861885  19.3277264  28.5198593  48.5126038  19.7406445  29.3741131
  47.4426575  19.3781300  28.3667469  53.4350967  62.1536255  14.6232719
  53.4192734  61.1979027  14.5725269  53.6147232  62.4381142  13.7271509
  12.3758707  62.6457443  81.5289230  11.9343719  62.2637863  80.7703629
  11.7556601  62.5324783  82.2491608  68.1944427   5.8957996  48.2665710
  68.6540985   6.4966979  47.6801682  67.8937454   6.4483442  48.9880333
  40.1464996  53.4498367  72.5694504  39.5669441  54.2111244  72.5975723
  40.5198326  53.4654541  71.6881943  61.6140785  64.6038055   3.9275417
  61.0038834  64.4697189   3.2023451  62.3907433  64.1004715   3.6832380
  79.9167633  16.7679939   0.3592865  80.8585968  16.6276779   0.4567182
  79.8247452  17.7156162   0.2604025  29.1575012  56.2289925   5.3962641
  29.5922070  55.3947334   5.5731139  29.6807098  56.8765640   5.8686380
  32.7260017  38.6800728  64.9893646  32.7717896  37.7354393  64.8417053
  32.6042328  38.7691154  65.9346008   6.9762263  53.0755310  42.3664551
   6.1378174  52.6740723  42.1381264   6.7676206  53.9978676  42.5148315
  66.5348892  56.1931458  16.1068459  66.2474670  56.3661499  17.0033340
  66.0256729  56.8008804  15.5705729  68.6044769  40.2469902  15.9540854
  68.5377884  39.4883766  16.5339909  68.0170364  40.0442963  15.2260313
  70.8326187   3.1845915  35.5769043  71.4294281   3.5091646  36.2512169
  71.0648804   3.6812458  34.7922897  75.6080627  60.3533134  11.0151653
  74.9915848  61.0795441  11.1088362  75.5372314  60.0960693  10.0959053
  17.7939148  54.1433868  32.8899040  18.6367474  54.5828362  32.7769890
  17.6008549  53.7708931  32.0295525  71.2151031  40.6358452  23.9036751
  71.1378326  41.1486702  23.0991421  70.4965134  40.0053177  23.8557434
  69.5363541   4.9004159  55.3027306  69.7343903   3.9712591  55.4197083
  69.5945587   5.0405765  54.3576355  15.7352819  40.3418808  74.1608429
  16.1436901  41.1322517  73.8076401  14.9032326  40.2725754  73.6927338
  13.4254608  34.3594856  14.0004482  12.8606844  34.0110855  13.3106089
  13.5964689  35.2634659  13.7362318  37.2447586  28.5345650  70.4498825
  36.9480972  29.0145187  71.2231064  36.5245247  27.9373817  70.2477341
  39.9207993  61.4983139  88.2229309  39.1133194  61.9907951  88.0757446
  40.5743637  61.9430923  87.6832428  69.7136917  61.9323997   5.6645451
  70.1455841  62.6463470   6.1335659  68.8203506  61.9259071   6.0082474
  14.7764406  35.3369675  17.7994003  15.6823826  35.4414978  17.5085812
  14.8376350  35.2630119  18.7517757  41.4732437  48.3604546  52.6556892
  41.8108521  47.5002136  52.9051666  41.6185799  48.4099922  51.7108841
  19.7203083  46.7425461  46.1763649  19.7702789  46.3870735  45.2890244
  20.5846386  47.1237984  46.3306770  74.8551712  57.4708443  78.6280060
  75.7189407  57.4739113  79.0404816  74.4429092  58.2803955  78.9294891
  60.6874428  21.5168266  73.0599365  60.8878098  20.7527466  73.6005554
  59.7499084  21.4444237  72.8810043  71.0509872  23.7589455  15.3095055
  70.1978607  24.0936203  15.0330982  71.1992950  24.1594563  16.1661434
  85.7220764   9.3345556  26.8091373  85.4102097  10.2360735  26.7301483
  85.0841064   8.8165531  26.3183212  45.2410660  50.3424950  21.7672596
  46.0309563  50.8658142  21.6314411  44.7758408  50.7900391  22.4740143
  82.4671707  33.0584145  65.1378174  82.6610107  32.1725998  65.4444046
  83.0642090  33.1931572  64.4018631  61.8177986  49.0778389  21.4432640
  61.6199608  49.3758316  20.5554066  60.9882431  48.7287560  21.7691650
  85.4823532  31.5500717  87.3088303  86.1110458  31.5844784  88.0298004
  85.3098068  30.6166172  87.1858521   1.1321677   3.9593616  11.8714457
   1.5346607   3.2785087  12.4105844   1.7822491   4.6615434  11.8476467
  74.1995926  54.4998512  64.0665512  73.7508774  54.3661537  63.2316780
  74.2915573  55.4498215  64.1396027   7.3251185   2.2241611  36.4519272
   6.7421451   2.9090307  36.1243210   7.5105839   1.6808860  35.6859741
   2.3981440  41.9331322  26.8147373   3.1106961  42.5474052  26.9912968
   2.3914535  41.8415260  25.8619537  50.5352669  45.4589920  71.1433258
  51.2982788  45.4187622  71.7198944  50.2225990  44.5555153  71.0964355
  61.0234489  30.2089558  67.8135757  61.4334335  30.5288143  67.0099411
  61.1997261  30.8919563  68.4606247  10.4972248  60.1258202  28.7963772
  11.1507940  59.4709473  29.0417671  10.4242220  60.0466461  27.8452530
   1.4678506  48.4728966  79.2379532   2.1461160  48.8163872  79.8195038
   1.4370266  47.5362663  79.4329071  27.3670769  35.1991348  14.2070446
  26.5187874  35.6175156  14.0601053  27.2116318  34.5892906  14.9282656
  49.4016380  45.2956543  42.8458672  49.2902908  46.0103188  43.4728355
  49.9273605  44.6466103  43.3134003   0.2969325  34.4576378  63.9632645
   0.6320665  34.9733734  63.2298241   0.8267047  33.6604309  63.9573402
  53.3254433  32.8711548  33.8675880  53.4592133  31.9253082  33.8066635
  52.4947777  33.0250511  33.4175453  84.4696350  18.4732189  11.9497843
  84.5720901  18.6934452  12.8756542  84.7859497  19.2468090  11.4831610
  78.1500168  37.0658455  25.6196270  77.2896500  37.3744125  25.3353882
  78.7265854  37.8205299  25.5002689  10.7792702  40.8506317  32.9107628
  10.6324673  39.9840126  33.2897797  10.4496260  40.7792358  32.0149574
  41.5601845  14.5416164  85.8542099  41.5057030  14.0664635  86.6833572
  40.8109894  15.1371822  85.8697739  87.0318069  43.8294182   6.2503858
  86.2225418  44.2889557   6.4743152  86.9530792  43.6482887   5.3137827
  72.3682404  14.2172747  58.5399628  72.6694489  14.9821405  59.0303574
  72.0771713  14.5710201  57.6995049  42.4461327  64.2113113  43.2014465
  43.0458069  63.6749001  42.6829033  42.2838554  64.9824982  42.6581497
  14.0412340  15.5977745  19.9983196  13.3043213  15.2393026  20.4929810
  13.8341761  16.5271111  19.8998623   9.4844627   5.1127648   5.3586497
  10.3599405   5.1763000   5.7403994   9.6183939   4.6592083   4.5264354
  71.2998047  28.1847439  25.7441959  71.0000076  27.8081703  24.9168205
  70.5720291  28.0428925  26.3495541  26.5422287   1.4469966  41.3458710
  25.8076611   1.7987500  40.8429680  27.0630569   2.2156324  41.5786171
  12.7819881  20.9029026  24.3806973  13.6667643  20.5378780  24.3680592
  12.6899014  21.3371239  23.5326385  69.5752945  36.6135216  56.4207993
  69.1214371  36.1349258  57.1144791  68.8998184  36.7803116  55.7634239
  73.4133224  36.2711983  37.6611938  74.3164673  36.4438400  37.3951912
  73.1416168  37.0676003  38.1174316  25.6809406  36.4141846   6.6365104
  24.7888565  36.1956940   6.9061036  25.5706062  36.9224854   5.8329625
  36.1161270  56.1928558  10.2730780  36.4490852  56.1476631   9.3767920
  35.2656898  56.6244659  10.1911774  30.5595703  34.8454170  81.3623123
  30.3118458  35.6836967  80.9722519  30.8296032  34.3059311  80.6191635
  19.8338509  50.4080925  53.5860329  19.5296822  50.1646500  52.7117043
  19.0313454  50.5615196  54.0847092  30.6961384  23.9309921  71.7124710
  30.8671589  24.6547775  71.1098785  30.9016800  24.2857780  72.5774078
  74.8681946  40.2558327  13.3882637  74.2327728  40.5338783  12.7285948
  74.4011612  39.6039505  13.9109106  54.0564651  52.6406708   8.3688097
  54.0170670  52.3195648   9.2696819  53.1908989  53.0175896   8.2108164
  34.4283485  37.8404350  18.7427921  34.2823868  38.0441055  17.8189716
  34.0203705  38.5660019  19.2153797  47.5347404  22.0726585  57.8295517
  46.9515610  22.3578968  57.1261482  47.4868774  22.7737617  58.4794731
  38.4000702   7.8904958  13.5065508  39.1439705   7.3504181  13.7733145
  38.7768135   8.5414915  12.9145203  79.6603622  21.9676266  17.3758564
  79.6643295  22.8337860  16.9684486  80.5699005  21.6740227  17.3232384
  83.3986969  54.5521278  40.0232048  82.9187546  53.9223442  39.4853783
  83.8642349  54.0143547  40.6637611  41.1739731  60.1955605  29.1823635
  40.4483452  60.3103790  28.5687599  41.0425377  60.8791771  29.8393440
  29.9625530  46.8766975  23.9248543  30.4024830  46.2198563  24.4645309
  29.0547352  46.8669205  24.2281742  44.2996674  25.9022980  68.4373550
  44.3950729  26.3784523  69.2622223  43.5752525  26.3401680  67.9904480
  31.6245975  63.9672661  63.4520340  31.8362675  63.8732452  64.3807907
  32.1875114  63.3300323  63.0123863  74.4322433  66.8402710  67.2053375
  73.6941223  66.9444046  67.8058090  74.4778595  65.8980408  67.0430145
  74.8959122  50.4728470  62.1056938  74.8080521  50.3854675  63.0548401
  73.9952621  50.5221481  61.7853203  45.9736290  25.0142822  11.4837532
  45.1839638  25.1244926  10.9541178  46.6949615  25.1521816  10.8698359
  48.3585892  28.5807495  60.8801842  49.1128960  29.1696472  60.9014511
  47.6118546  29.1541595  60.7074890  42.6352005  41.3701248  86.5503464
  42.5776024  42.3194160  86.4419098  41.7247238  41.0751038  86.5654907
  68.9870071   4.2105732  21.6792259  68.7660675   4.7035317  20.8890285
  68.9220963   4.8514071  22.3872871   1.2795497  29.1580219  12.0905800
   0.4081086  29.4252472  11.7983255   1.3205966  28.2216167  11.8964348
  33.3379097  53.2007103  34.6984787  33.6823540  52.5006218  35.2529716
  32.3888016  53.1515770  34.8125572  41.4822960  30.3206692  78.2007904
  41.2765160  31.1759071  78.5782242  41.0515900  29.6929111  78.7810059
   7.1194592  19.8758621  15.3534021   6.8409996  19.1575527  14.7853146
   8.0727205  19.7969723  15.3894606  77.3870773  37.9708748  57.5602913
  77.1084976  38.6029587  56.8976517  77.3396606  38.4528313  58.3859406
  43.3125954   9.0260658   9.0415602  43.6531105   8.5409908   9.7932148
  43.9014397   9.7755566   8.9534721  69.9390411  14.2916517  17.0804787
  70.6964417  14.8469124  16.8953934  69.1847763  14.8701916  16.9681950
  43.9457932  67.5276718  31.2618904  44.2217369  68.4431076  31.3072777
  44.4995422  67.0786438  31.9006176  45.7504158  19.0906410  29.7489262
  46.5477562  18.6245270  30.0003662  45.5787811  19.6835499  30.4805222
  20.7833061  41.9626579  13.9942627  20.8112545  41.4516678  13.1853485
  19.8790531  41.8816910  14.2975826  57.6128349  69.7536240  34.8377800
  57.5484161  69.0074463  34.2417107  56.7044029  69.9976273  35.0151215
  12.3650551  48.1407356  68.8951111  13.2458181  48.3618317  68.5924530
  11.8098583  48.2608490  68.1246872  40.8301125  66.4187393  54.5843163
  40.6693230  65.6719742  54.0074997  40.6299286  66.0914688  55.4612694
  61.2181206  33.5359993  47.3575249  61.7913589  34.1850204  47.7654533
  61.6767120  33.2808647  46.5570030  78.6005096  69.6386642  20.9793777
  78.1139145  69.0867462  21.5916290  79.4825974  69.2670746  20.9710121
  84.9781799  68.9494858  68.8565140  84.3274612  69.6072845  69.1016693
  84.7445755  68.7034531  67.9614563  25.3862705  70.1866837  12.0156355
  24.8700981  69.5703506  11.4960880  24.8047085  70.4420700  12.7317343
  41.5287323  62.5667572  80.9620590  41.4727707  63.2541351  80.2982712
  41.9616890  61.8384323  80.5167236  65.9239960  71.7091064   6.6957994
  66.0251007  71.1691360   5.9119363  66.7511063  71.6055222   7.1663165
  35.3688431  13.7821522  74.2063751  35.1686134  14.7111645  74.3207245
  35.0992851  13.3758869  75.0300980  48.9904900  67.2774124  12.2915907
  48.3663635  67.9819641  12.1174936  49.8254738  67.7252579  12.4274788
   1.9332291  13.9866161  15.6209888   1.3076637  13.5594120  16.2061348
   1.5112094  14.8113022  15.3801041  81.2484741  68.7661667  84.2558670
  80.6464539  69.2984619  84.7759476  81.6711502  68.1906662  84.8933411
  71.6988831  68.1089554  83.1449890  72.0198746  67.6348114  83.9120483
  70.8521118  68.4616776  83.4184799  65.0156860  37.6274872   4.0562396
  64.8500824  38.5556641   4.2214518  64.4235458  37.1687584   4.6522026
   4.1500630  15.9775696  55.6449242   3.7607248  15.7487068  54.8009644
   4.2436671  15.1408443  56.1002922  63.2823715  21.4783440  50.5319405
  62.4229584  21.8020058  50.8019066  63.9000206  21.9310322  51.1062317
  39.5366859  25.6296215  40.1649323  38.6819153  25.9940166  40.3947411
  40.0349808  26.3773670  39.8350677  68.4970627  23.8480530  86.1015778
  68.6885910  22.9102097  86.1019592  67.5412064  23.8972950  86.0891190
  48.5909042  62.0583687  54.2627907  49.1877213  61.6069870  54.8596916
  48.7125626  62.9872131  54.4594612   9.8682327   1.5044141  30.1321869
  10.6345167   2.0175238  29.8757515  10.1367483   1.0579002  30.9351540
  22.0533638  25.2294579  33.6954193  22.4967232  25.7586994  33.0324211
  21.1725121  25.0957909  33.3454704  34.0337677  47.5822830  23.4547768
  33.4304237  47.9534569  24.0985470  33.5301857  47.5572395  22.6411362
  25.2777901  44.4905434  14.7814178  25.0581264  45.1073723  15.4796314
  24.5684814  44.5857811  14.1457739  62.8583260  30.5791931  20.1368752
  62.5210609  29.7128601  19.9089489  63.2036209  30.4760990  21.0236530
  78.2546005  53.4713821  31.8052826  78.0258484  53.8555183  30.9589100
  77.4153900  53.3579102  32.2514725  21.8422813  69.3707581  71.6710205
  22.5086651  69.3042221  72.3549347  21.7817535  70.3079453  71.4859543
  79.2028580  67.7621994  73.8002930  79.5873642  67.5185547  74.6423264
  79.5690460  67.1330414  73.1787643  21.0042419  69.5861969   3.0622375
  20.1855297  70.0320358   3.2794218  21.6168785  70.2941132   2.8628428
  78.5019836  67.5935745  24.5168686  79.0799332  67.3569107  23.7914734
  78.0065994  66.7949905  24.6987667  57.4476929  20.5336113  88.2841187
  56.6695595  20.4663582  87.7307510  57.8699150  21.3463669  88.0059280
  85.4042358   0.4847556   2.8185484  85.5511246   1.2740687   2.2973583
  86.2216415  -0.0075822   2.7431884  60.3527412  64.3014069  47.0259094
  59.5356789  64.1807098  46.5420990  60.2432289  65.1392059  47.4757233
  38.2802849   0.2781297  14.1891165  37.6755600  -0.3314762  13.7661219
  38.1736031   0.1103388  15.1254377  14.9888363  68.8036423  45.7368469
  14.6772013  68.4269180  46.5597649  15.8304291  69.2017670  45.9592171
  78.1961441  44.0855560  75.6839066  78.8887711  44.6434555  75.3300095
  77.7222519  44.6502533  76.2944641  85.4008408  68.0286789  34.2596588
  85.8032303  67.7110977  35.0680237  84.7758789  68.6937103  34.5484161
  60.3920364  48.6020508  75.8096542  61.2585144  48.2198296  75.9487762
  60.1757584  49.0157242  76.6453171  69.7363510  59.1078415  86.1099014
  69.2056427  58.3934708  86.4623947  69.9295502  59.6593285  86.8680344
  55.9746056  38.4400444  63.7349052  56.0356560  38.8086357  62.8536301
  56.8765450  38.4349213  64.0553894  47.0202446  26.2977390  81.3220749
  46.3360748  26.2652988  80.6534271  47.6566391  25.6382790  81.0457687
  86.4737854  51.4671822  16.5259266  86.2741241  51.1686440  15.6386595
  87.1163406  52.1661911  16.4045277  42.3600159  39.5435448  10.1530037
  42.7674103  40.1029549  10.8143082  41.7532272  38.9919472  10.6467409
  25.3115597  23.9968300  13.4442310  25.3349495  24.9473476  13.5546865
  24.3793278  23.7830181  13.4059925   2.5676010   1.6314362  29.8197212
   2.2417591   2.4888000  30.0935574   1.7958506   1.1798341  29.4781227
   6.0330429  44.8233452  28.5149841   5.9224100  45.7204323  28.8299770
   5.3224077  44.7011909  27.8854542  60.7231407  49.4557800  82.0766144
  61.1807480  49.9440575  81.3922043  60.0801544  50.0744629  82.4230652
  48.7455864  57.0661430  23.1511250  48.5225029  57.7530403  22.5229225
  48.2301636  57.2769928  23.9296570   0.7550454  40.7207794  34.1723824
   0.4779597  40.6091118  35.0817680   0.1085820  40.2317924  33.6632576
  40.8751068   3.6529546   3.5572598  40.2694054   3.4861040   2.8350990
  41.7082901   3.8516507   3.1299942  61.0233650  19.0322266  33.6404839
  61.0758934  19.4195499  34.5142403  60.4240952  18.2927532  33.7419243
  85.1375885  48.1895218  28.4389801  85.6230621  47.4343376  28.7710075
  85.5277863  48.9405441  28.8861332  83.0679626  14.8979092  77.6115952
  82.3321075  14.4000454  77.9677963  83.6059265  15.1091805  78.3746033
   6.3461595  33.3275375  39.5884590   6.4086518  32.3742332  39.6479187
   6.1788030  33.4992599  38.6617813  82.7907486   8.0369406  82.1362534
  82.3737564   8.5889406  82.7977982  82.3574677   7.1880388  82.2249146
  46.9049988   7.0082064  19.9582100  46.3496132   6.2559752  20.1629772
  46.9179306   7.5230637  20.7650471  23.4551506  65.6904373  44.5040245
  23.2482071  66.6103973  44.3394928  24.1780872  65.7159653  45.1308746
  77.1806946  53.1489296  77.0494080  77.4510117  53.1802444  76.1317062
  76.5935593  52.3946800  77.1005478  56.8594322  47.4571419  26.7509079
  56.7040482  46.7437630  26.1318951  56.8528938  47.0346603  27.6098003
  37.1170692  65.7594223  22.9131985  37.7965393  65.1039352  23.0709782
  37.2046928  66.3751450  23.6408195   8.9553099  39.6858788  25.9976978
   8.1465120  39.1739464  25.9989491   9.5582552  39.1824608  26.5447464
  21.2524071  15.3811522  13.8943377  20.7403011  15.8081598  14.5811014
  22.1473694  15.3717241  14.2337275   4.8747787  19.2763290  30.7339840
   5.1986251  20.1343288  30.4597778   5.2737675  18.6617088  30.1181240
  15.0142984  43.8084488  38.6613770  15.6363955  43.2700539  39.1506233
  15.4252062  43.9314613  37.8056602  21.8171291  44.2112617  21.3823586
  22.0455647  43.3805962  20.9651737  22.1467266  44.8796120  20.7816067
  29.6147327  48.4804344  66.1543427  29.5143509  49.2252884  66.7470856
  29.8464775  48.8734818  65.3128891   7.4073386  50.7716293  53.9709091
   7.3370829  50.7173309  54.9239807   8.2705336  51.1551361  53.8158379
  47.8979645  44.3067398  36.2236061  48.4923744  43.5592880  36.1586075
  47.3037567  44.0787468  36.9385681  54.0547485  25.0444221  27.1085682
  53.6884346  25.9287167  27.1003094  53.2943306  24.4693661  27.0230942
  31.8164272   8.6799631  40.7965965  31.2238998   9.0213556  41.4663696
  32.6849022   8.9715986  41.0739632  34.1366959  55.0102119  22.8638229
  34.2775459  55.8255920  22.3826275  34.3419609  55.2298851  23.7725811
  80.4558792  33.3176422  49.9290695  81.1972809  33.6749725  50.4178085
  79.9513092  34.0864258  49.6633263  20.1620426   7.4243331  15.0106821
  20.3175716   6.7018857  14.4023142  20.3574791   8.2116356  14.5025568
  58.6136551   6.8714490  71.0803528  59.1851959   7.6017866  71.3173676
  59.1509666   6.0917044  71.2200851   3.4656718  22.2528934  59.1370583
   3.6879904  22.6207008  59.9923515   2.8177478  21.5749569  59.3289642
  65.8250961  59.5294304  40.8396416  64.9815369  59.8118591  41.1930313
  66.4635620  59.7979965  41.5002975  60.2992783  59.3269920  82.7081833
  60.1693764  60.1005325  83.2568130  59.5863838  58.7371025  82.9532242
  37.4542732  66.9838562  54.2358208  37.8466530  66.5769958  53.4633331
  37.0454445  66.2580032  54.7072372  47.9424782   9.4111252  31.0456123
  47.2207718   8.7991114  31.1898613  47.5404701  10.2768078  31.1178169
  29.7738152  69.3403320  25.4184189  30.3368797  69.9655685  24.9620571
  30.3723145  68.6602402  25.7274590  67.8035126   5.2953763  31.0772247
  67.4092026   6.1515903  30.9109459  67.2727814   4.9196048  31.7796135
  78.1348190   8.9737873  65.6624680  77.6424866   9.7708559  65.4661865
  78.8550186   9.2682915  66.2199707  34.0074158  57.2447319  31.7866516
  33.8791389  56.8578949  32.6527557  34.3113556  58.1348000  31.9645023
  57.7868996  68.1952438  78.8649673  57.7339172  69.1156693  78.6076050
  58.5913696  68.1365738  79.3803482  80.5324326  42.8542213  17.7237282
  81.4277039  42.6392059  17.4620113  79.9872589  42.2243233  17.2523041
  33.7742424  31.6458836  15.1975060  34.3339462  32.1640663  14.6191912
  34.2425079  30.8180389  15.3053646  43.7349510  42.5031357  62.4857635
  43.3685722  42.4486237  61.6031418  43.3405495  43.2906532  62.8605919
  82.3924942  26.2795544  55.5219116  82.0618668  26.5822144  54.6761513
  83.3429260  26.3707047  55.4540558  23.9062824  44.1885529  68.9086456
  23.1608696  44.2238960  68.3091888  24.0508213  43.2539101  69.0562515
  56.2599640   8.5036058  45.8237724  55.4650192   7.9760432  45.9010429
  56.8461990   8.1530371  46.4943428  73.1405106  29.5171661  84.6882324
  72.7830124  28.6387596  84.5585251  73.8690567  29.3918610  85.2963104
  11.7003927  45.6934166  69.8305054  11.8531647  46.6165848  69.6288757
  12.5480928  45.2731400  69.6855774   8.3549500  34.3858871  86.3076630
   8.2170334  34.2400780  85.3717422   8.5599499  33.5188103  86.6574936
  83.7721710  47.6484337  15.8810940  82.8661652  47.8611870  16.1049862
  84.0933685  48.4235268  15.4203386  74.8262329  17.0422001  57.5006485
  75.2223892  16.1768665  57.6030807  75.5428696  17.5992393  57.1967125
  64.1272659  15.0678654  11.4061012  63.2128181  14.8115225  11.5256977
  64.3526382  15.5338831  12.2112513  57.3182335  52.7225990  81.3000031
  58.0659752  53.0867729  80.8262024  56.9458199  52.0767059  80.6997070
  63.6830559   1.4631765  86.9037933  63.6959953   0.9012723  86.1289825
  64.4907684   1.2471868  87.3698196  23.8209171   0.8262848  88.3618774
  23.7531319   1.0274694  89.2952347  24.3230515   0.0120613  88.3282166
  61.7065849  49.0797729  73.2505493  61.0747795  49.5303497  72.6901627
  61.3997459  49.2486267  74.1413727  30.8322525  66.7245560  54.9927902
  31.2532768  67.2787247  55.6499596  30.1214485  66.2909317  55.4649773
  18.5086422  49.4983864  60.8470955  18.7996902  49.3034744  59.9562912
  17.5790272  49.7071381  60.7550545   7.0036507  37.6277847  63.2229652
   6.7560740  37.7832069  62.3114929   6.3694835  36.9831505  63.5368271
  80.6879272  59.3392029  74.0097885  79.9928665  58.6967773  74.1526718
  81.1089706  59.0597229  73.1968689  19.7370319  54.4067039  67.4520721
  19.6225033  55.2197380  67.9440994  19.0240021  53.8428459  67.7518768
  72.7072983  32.0529137  57.3810387  71.9657211  32.6566696  57.4231911
  72.3668365  31.2873306  56.9182167  39.8549385  48.8081055  21.6130581
  40.1685028  48.7628746  20.7098064  40.2052689  49.6338692  21.9471416
  58.1728973  59.7791862  56.6541595  58.0018578  60.7085037  56.5013618
  58.0282631  59.6602135  57.5928612  72.7856293  59.8923531  22.3247604
  73.6923294  60.0246239  22.6015663  72.4624329  59.1909904  22.8903294
  19.2114334  41.3900528   7.2441292  19.0329914  40.5603676   7.6868663
  19.4591141  41.9889832   7.9485202  83.5596542   3.7272675  50.5614014
  84.2700958   3.8285859  51.1948357  82.7689667   3.9569314  51.0495529
  44.7321663  17.1697464  82.0674591  45.0099754  17.9919720  81.6637268
  45.3427086  17.0410576  82.7933426  52.1002846   2.0795052  39.1731949
  51.3773499   1.5532657  38.8316269  52.5491753   2.4049385  38.3929214
  41.6683044  51.0015450  12.0069675  40.9964371  51.2150764  11.3594866
  42.0622559  50.1908073  11.6848869  18.8690834  54.3627548  24.8292923
  18.6888962  54.2691879  25.7647114  18.7714329  53.4781494  24.4769115
  16.6742496  45.8856583  74.8604202  17.5107632  46.0275345  75.3035355
  16.3199940  45.0939407  75.2652893  61.7639961  48.3934326  52.4568214
  62.5891571  48.3494034  52.9399338  62.0204697  48.6316528  51.5659180
  16.8764057  58.2068176  44.9957199  17.2896099  58.9963493  44.6462440
  16.1655006  58.0174446  44.3833618  48.0814972  26.5608044  62.9374352
  48.2647171  27.4226837  62.5635033  47.1498375  26.4197941  62.7690239
  15.0028543  36.4827843  31.9257641  15.5058527  36.1523781  31.1814156
  15.4064112  37.3258362  32.1322517  46.1927719  30.5781612  76.4750671
  45.2831268  30.3676891  76.2641754  46.1801491  30.7857838  77.4093933
  35.0858002  52.2414017   5.9210405  34.8996315  52.8738823   6.6149716
  35.4425812  51.4807472   6.3796744  48.7299881  30.2899857  33.6220245
  48.3938904  29.4118042  33.8010941  48.7774773  30.7081757  34.4817276
  30.1631088  49.6178284  82.3409271  30.1935863  49.2508430  81.4573975
  29.5980301  49.0193253  82.8295135  82.6950684  32.1158371  28.2488441
  83.4037933  32.4083328  27.6757908  82.9583359  31.2385025  28.5267029
  83.8306961  40.6259575  49.7952232  84.2403412  40.0663795  50.4549980
  83.6816864  40.0460396  49.0484161  12.3164854  69.8192520  75.0991898
  11.9995041  69.6447678  75.9853668  13.2122545  69.4819031  75.0944672
  47.8753242  59.1832619  81.5143661  48.6801796  58.9893494  81.9948273
  47.9038620  60.1292648  81.3712006  64.2270584  70.3084259   2.6112003
  65.1458282  70.4643326   2.8297830  64.0523834  69.4224091   2.9285128
  75.1254730  18.2552528  76.8500137  75.6031570  17.5075798  76.4907913
  75.7801666  18.7375374  77.3550034  70.2341461  45.9852600  32.7136192
  70.0284653  46.4818802  33.5056419  69.3889465  45.6492119  32.4153862
   8.2186069  57.4004211  64.6114273   7.5979500  57.8685913  64.0530090
   8.3429995  56.5568619  64.1764984  31.0796719  45.3214226  18.3958130
  31.5920410  44.9315262  17.6875134  31.6337833  46.0254440  18.7327805
  65.9202194  56.7310219  64.8119583  66.8250275  56.6026306  64.5272141
  65.4026489  56.1881790  64.2172546   2.3054109  45.6481895  56.0086746
   3.2449937  45.5117722  55.8869934   2.0970328  45.1750183  56.8142319
  48.3416748  46.1886444  16.6294479  47.4471054  46.4626160  16.8317356
  48.8895645  46.9065666  16.9466801  43.2385941  45.5495834   3.7933090
  42.5897369  44.8714523   3.6052794  44.0779076  45.0897598   3.7746346
  46.3439407   8.8924885  77.5311584  45.3958321   8.8332233  77.4136429
  46.4602394   9.0388603  78.4699173   5.8535652  39.1623344  80.0005722
   6.2196417  38.2783318  80.0280838   5.8273563  39.3818398  79.0692520
  68.4583511  24.3815746  14.7510815  67.9609528  24.1507092  15.5356417
  68.5316162  25.3353291  14.7859669  74.9233780  68.6593781  77.0793610
  74.8302002  69.6031876  76.9498672  75.8597946  68.5294876  77.2293015
  58.1804199  43.5299950  59.8134727  57.9872475  44.1984406  59.1561279
  59.0276947  43.1717110  59.5489197   0.1495296  33.6457596  17.9010944
   0.5635704  33.6353302  17.0381393  -0.3477352  32.8286972  17.9380550
  55.0539474  35.4934006   7.0184126  54.9509239  35.0812492   6.1606545
  54.1666031  35.5278702   7.3757091   7.1432309  68.5261536   9.2524519
   6.1951685  68.5276108   9.3843899   7.5030727  68.2754745  10.1032772
  40.4383392  52.0423584  74.8317261  41.3836746  52.1905937  74.8072281
  40.1019211  52.5154037  74.0706177  77.1586151  67.0528259  83.3054886
  77.4154510  66.4490128  84.0023956  77.9686584  67.5050507  83.0697937
  56.7162437  44.7644691  34.9739914  57.2492828  45.0688934  34.2395325
  57.2209892  44.0456924  35.3545418  47.0364418  70.7038727  22.9342556
  47.1801605  70.2380447  22.1104927  46.5684929  70.0767212  23.4855633
  82.3814392  57.2724457  86.2450027  81.7266769  57.1512566  85.5573730
  81.9335861  57.7909050  86.9134827  43.2871437  23.4697189  76.3386002
  42.9109917  23.5812683  75.4654999  43.9812660  24.1271114  76.3861237
  59.0217819   7.6019464  47.1343002  58.7829247   7.1263580  47.9299088
  59.6826591   8.2321310  47.4212532  27.8828983   1.2467437  26.6390057
  28.4372253   0.6893312  27.1851254  26.9887848   1.0145260  26.8897362
  51.5553398  40.5645790  30.4770985  51.0144653  41.3542366  30.4883003
  51.6351891  40.3420982  29.5495434  86.0638046  21.8307362  28.2995224
  86.5334778  21.7771034  27.4671993  86.7463913  21.9980450  28.9493732
  27.5752373  40.1861153  12.7044497  26.9864693  39.6609688  13.2464857
  27.2587948  40.0549164  11.8106480  25.3371849   8.7325191  25.0774422
  26.2302952   8.5755596  25.3839531  24.7844734   8.5126562  25.8273754
  70.7031784  18.6485786  79.7776566  70.2494202  18.7119999  78.9372330
  70.3361359  17.8663902  80.1895981  72.8863144  27.7832413  28.3988914
  72.4183655  26.9960079  28.1204662  73.7571716  27.6937027  28.0118332
  81.6143112  59.1369972  55.5666161  81.7819214  59.8486404  54.9487953
  82.4346771  58.6445084  55.5929718  34.1999474  60.5479240  62.7179375
  34.5691490  60.6478157  61.8404770  33.2946739  60.8468933  62.6323433
  82.5993881  11.2280703  46.7918930  83.2533417  11.6266127  47.3661194
  82.0314102  11.9545517  46.5352707  70.8438492  52.2723885  23.3374786
  71.4849777  51.7041740  22.9104900  71.2247238  53.1486778  23.2801590
  83.4920197  63.2951698  29.5519562  83.3777008  63.7272797  28.7055264
  82.6388168  62.9031105  29.7378979  29.8221245  66.5262070  35.8355904
  29.3887577  67.3653336  35.9914780  30.6601124  66.7599411  35.4363708
  50.1924782  32.5837593  83.8402634  49.7367859  32.6989365  84.6741180
  51.1213264  32.5966492  84.0711441  82.1949997  18.7166862  62.9393959
  81.6390228  17.9454727  62.8282547  82.9702988  18.5314064  62.4094696
  81.6987839  61.2096481  20.4581909  82.0556870  60.3554649  20.2148323
  82.4068985  61.8265915  20.2733059  39.1409302  43.5128174  84.1087799
  39.5392456  42.7074814  83.7786179  38.3231316  43.2263069  84.5154190
  18.2335949  45.2034187  21.4701691  18.4178543  45.2962418  22.4048691
  17.3484058  44.8408432  21.4353962   6.4130497  20.3973351  33.1029625
   6.1257253  21.2739296  32.8475037   6.0153599  19.8164425  32.4543953
  60.0231857  26.2005539  30.0923615  59.7160873  25.3597164  29.7533722
  59.5966187  26.2852345  30.9450645  72.4973068  47.2915497  21.1795692
  72.5604782  47.4567642  20.2388535  71.6046143  46.9704361  21.3069344
  82.8571396  15.9269762  35.8780403  82.0160446  16.0552235  36.3166122
  83.1026154  15.0262623  36.0894470   4.5726867  23.0061150  78.3132172
   4.9894867  23.8609943  78.4213333   5.0753174  22.4211731  78.8801727
  35.4901161  46.8553391  59.2526169  34.9126854  47.4994011  58.8427544
  35.0129700  46.5666733  60.0305862   4.5907612   7.8127666   8.9613619
   5.4532251   8.2276955   8.9464655   3.9785340   8.5373898   9.0891542
  63.4264870  29.6376991  39.2434540  64.2704849  29.9565372  38.9237022
  63.4556236  29.7889481  40.1881790  38.9431992  42.3834648   0.4901285
  38.2202492  42.3223114  -0.1342381  38.9407806  43.2986870   0.7704805
  36.7686157  49.4670486  52.5353546  35.8763809  49.2697067  52.8203239
  37.1227036  48.6230812  52.2550468   1.0854096  39.7828674  27.9730339
   1.0069126  39.3411903  27.1274624   1.7225891  40.4807014  27.8205051
  16.6907024  24.1178322  32.4793701  17.4929390  24.6399784  32.4759216
  16.0316715  24.6938686  32.8667870  39.1483040   9.7444420   0.9297504
  39.6843872   8.9691935   0.7629123  39.7363091  10.4818983   0.7665303
  51.5543480   3.0649576  19.8476467  51.3324852   2.1483276  19.6839428
  51.2255783   3.2370665  20.7299843  86.6163177  65.2199707  79.9501953
  86.8443527  64.7196121  79.1667023  86.6784439  66.1350937  79.6764679
  51.6181870  46.0921745  13.8394060  51.5462875  46.6373329  14.6229000
  52.5590324  45.9555206  13.7282143  20.2114906  16.4551449  16.1797619
  20.1352005  15.5216827  16.3773956  19.3104305  16.7777481  16.1956272
  53.0873108  28.0954704  25.9488220  54.0111046  28.2274933  25.7357388
  52.9560013  28.5866776  26.7598114  78.1037445  36.4391289  37.3773346
  77.1810303  36.6626396  37.2553368  78.3329163  35.9337692  36.5973816
  61.2223625  50.4789467  18.9898243  61.7450409  50.1053658  18.2802620
  60.5341072  50.9739037  18.5453529  85.0648880   5.5461860  69.5268097
  85.5861282   6.3208780  69.3161011  84.2232132   5.8960428  69.8190689
  73.3784256  33.8542328  30.9701672  74.0024796  33.2633629  31.3916702
  73.2319107  33.4706726  30.1055012  11.2916822  17.6022644   1.9834847
  11.5415344  16.6893940   2.1265752  11.2417822  17.6905537   1.0316725
  17.8249550  24.8424320   4.0116239  17.1890831  25.3450508   4.5208125
  18.1320057  25.4533672   3.3417656  84.6655731  -0.1215190  75.2170792
  85.3399734  -0.2949354  75.8738480  84.9872894   0.6431482  74.7395706
  63.1276016  51.4137001  84.9196091  63.4553719  51.9481926  85.6428757
  63.0494308  50.5338173  85.2882919  40.0640182   2.9921565  29.4367771
  39.3250694   2.6415281  28.9395351  39.6726303   3.6402028  30.0225124
   6.5034366  65.1131058  34.9979973   6.8308425  64.5543900  34.2931023
   5.7326961  64.6527863  35.3301086  78.1516800  15.3404493  27.9576988
  78.4713287  15.8030128  28.7323532  78.6885910  15.6760206  27.2398186
  73.2865295  38.2175179  42.3078079  72.4788208  38.7067528  42.4643097
  73.6611862  38.0887146  43.1791687  31.8533459  56.7108421  88.6615906
  31.0990486  56.9696808  88.1321793  32.5335236  56.4993973  88.0221481
  47.5670433  33.4617615  15.0084238  47.0779152  33.3651276  15.8255196
  48.2259102  34.1288300  15.2011471  39.8282661  56.7234421  28.3348026
  40.6180954  57.2594185  28.4064274  39.9662209  56.1976967  27.5468960
  15.9298449  54.2975731  79.9387894  15.9309607  55.0880890  79.3990479
  15.7430191  54.6118240  80.8234177  39.2862511   5.8002548  78.1829681
  38.3674126   5.5353403  78.2252197  39.6532555   5.2788677  77.4690399
  41.5846024  61.2926483  65.0399857  41.2910042  61.5564995  65.9120026
  42.3642998  61.8239975  64.8788223  11.5565662  37.2506218  31.1154385
  11.5557957  37.3137512  32.0705528  10.6496592  37.0453568  30.8882408
  84.1915359  59.6760139  17.9233780  84.2204208  60.5977058  18.1800423
  84.8812180  59.5889015  17.2653618  57.7699432  18.9500866  60.7429733
  56.9529457  18.4649372  60.8586121  57.5089836  19.7557755  60.2968826
  24.5107841  21.9887753  76.1844711  23.8758869  22.7042255  76.2201157
  24.0481644  21.2391434  76.5589981  44.1677818  52.7433014  71.9039078
  44.3292770  51.8107414  71.7608032  43.3299866  52.9103165  71.4721298
  43.9414024  61.1059914  39.1385155  44.6733322  61.5844231  39.5278969
  44.1718636  60.1836395  39.2498245  66.4571686  25.5818710   6.4338059
  67.3373642  25.4851856   6.0702972  66.0164108  26.1861877   5.8365092
  59.6423912  23.6817894  83.1978912  59.6319084  24.3921833  82.5564346
  60.5460320  23.3661633  83.1909790  71.6740341  14.7844086  27.8751793
  72.5701294  14.4559107  27.9481983  71.7714996  15.7346907  27.8143978
  72.1436920  28.5462856  77.5950012  71.3506317  28.2049561  78.0082474
  72.0949402  28.2363567  76.6906738  27.3879681  64.0903549  30.0225372
  27.7567139  64.3072968  29.1662712  26.7933254  63.3605423  29.8492966
  80.5923386  64.7609940   1.3815371  80.7801132  63.8947144   1.0202520
  81.1062164  64.8006439   2.1881256  68.1215897  36.1815033  79.1040344
  68.1938782  36.4322739  80.0249710  68.9555893  35.7557182  78.9055710
   6.0100636   7.7847953   2.6076486   6.0361962   7.6575675   3.5559957
   6.8964014   8.0647459   2.3790348  25.0149117  28.9725819  22.7548256
  25.9651165  28.9181461  22.6529541  24.7898026  28.2231350  23.3060856
  72.9747391   1.1385938   1.8909639  73.4414368   1.0147022   1.0644772
  72.2839890   0.4760838   1.8776208   5.3855386  22.1109695  75.5814819
   6.2014461  22.2631969  76.0582962   4.7375035  21.9386787  76.2645645
  71.7933426  36.6524773   0.6173105  70.9387360  36.8350372   0.2267328
  71.8296890  35.6979332   0.6785959  11.0195627   1.6625396   0.9694524
  10.6893320   0.8701760   0.5459678  10.7534981   1.5736439   1.8846241
  56.5765381  57.0387497  47.5060883  56.7053833  57.7959480  46.9348793
  56.4720650  56.3007278  46.9055519  39.0294228  55.8916473  72.3462906
  39.2957191  56.5559616  71.7106781  38.9142799  56.3753128  73.1642380
  36.8827400  22.4896736   5.5435047  37.0275688  22.8987522   6.3966818
  37.2191658  21.5992661   5.6446118  50.1492004  67.1683350  44.0117226
  50.0815620  66.2655792  43.7007599  49.8158035  67.6969986  43.2867470
  16.1957798  25.8028564  82.9901581  16.1626873  25.7089558  82.0381470
  16.5885754  26.6640873  83.1323700  10.8481779  25.0663300  87.3631897
  11.3556728  25.0529308  86.5517120  10.4990320  24.1785698  87.4420166
  49.1878777  12.6571589  59.4052391  48.8322792  13.5405884  59.3086319
  49.7090454  12.5209026  58.6140099  77.6364746  12.5649233  39.8038979
  78.3860016  13.0103407  39.4088745  77.3128281  13.1791935  40.4628029
  75.5510025  28.2454758  52.3074570  76.4773483  28.4147835  52.1358604
  75.4385300  28.4480495  53.2361908  79.5999298  61.7057915  72.6390839
  80.0384369  62.5359917  72.8253860  79.9682846  61.0923958  73.2749252
  22.2547436  18.4414406  64.0998001  22.7898083  19.0208530  63.5573769
  22.6268291  18.5241356  64.9778290  13.0109425  53.5412102  86.0611649
  12.5828533  53.2378883  86.8617706  13.1988735  52.7402840  85.5718460
  77.2099228  60.8071060  37.7627220  77.8744202  60.3667946  38.2926331
  76.5745239  60.1213875  37.5570831  34.4417267  39.9960976  32.2204208
  34.8743019  40.5317001  32.8854332  34.1240959  39.2303848  32.6989899
  30.0375156  61.1740685  15.6930180  29.2539654  60.9804649  15.1784325
  29.8349628  60.8476830  16.5697613  21.2399120  37.2410393  14.7823944
  20.5801945  37.3302765  15.4701748  21.3172073  36.2968063  14.6457138
  51.2863960  58.7523422  48.3258896  50.4960518  58.5612335  47.8208542
  50.9613724  59.0790749  49.1648407  12.8898478  71.2406464  11.4468431
  12.9893227  71.7705917  10.6559629  13.6972370  71.3904800  11.9386787
  62.7472725  63.8904381  37.2678795  62.4776611  64.6097717  36.6968231
  63.2923508  64.3063049  37.9358444  13.3511066  15.5981512  27.7130547
  12.7517567  16.1775169  28.1835289  14.0749607  15.4559488  28.3230095
  20.2647018   3.9509757  78.7695465  19.7410297   3.4006467  78.1871948
  19.9261246   4.8356185  78.6316986  71.1936951  48.1280746  87.1185989
  71.2168045  47.1732979  87.1826172  71.9512558  48.3502312  86.5773163
   6.0868182  58.7836647  54.5962143   6.0836864  58.2990608  55.4216690
   6.3359184  59.6744919  54.8424034  43.2964935   5.7076635  15.9820709
  42.9196854   4.8346004  15.8724976  44.0608292   5.7126880  15.4058771
  11.5099449  54.8806419   7.0644474  10.6105719  54.8713188   7.3919735
  11.6266975  54.0206947   6.6605954  16.0466766  11.3833008  79.7857208
  16.7455368  11.9552355  80.1030731  15.2642994  11.6808004  80.2500534
  86.5016174  45.4699783  78.0899734  85.8452377  45.8406181  78.6799164
  87.2732773  45.3404083  78.6413193  22.0318508  41.9976006  62.1643333
  22.5195084  41.1788292  62.0747070  21.6382332  42.1374435  61.3030891
  66.6905060  34.7493401  28.0666199  66.3305130  35.0793114  28.8898773
  67.3780060  34.1390762  28.3333721  61.6527367  10.0424728  12.9790239
  62.2692604  10.6483774  12.5679178  61.7211914   9.2416906  12.4591265
   6.8801432  29.4286785  19.0239067   7.6117959  28.8115978  19.0125694
   7.2723975  30.2696037  18.7889328  40.3396912  49.1496735  73.8959198
  40.0035667  50.0211868  74.1050110  40.4501076  49.1573029  72.9451447
  64.8863373  15.3529549  29.7683735  64.3041763  15.9879332  30.1856480
  65.4912109  15.8857222  29.2521133   5.5399203  68.0150146  35.4069748
   6.1409140  67.2705841  35.4363327   4.7050467  67.6610565  35.7134590
  23.0337410  53.1705132  84.4962769  22.9826050  52.8454475  85.3951340
  22.2312660  52.8543053  84.0812149  32.8572617   0.2330678  48.0996094
  32.4773903  -0.0425628  47.2653694  32.1019554   0.4402028  48.6499176
  83.9232025  56.1212578  14.2295341  83.6953125  56.6623993  14.9854879
  83.0911560  55.9766045  13.7789812  69.9787750  40.6526299   5.9697886
  70.6189957  41.2880249   5.6494479  69.5696487  40.3046074   5.1774960
  54.8085556  12.5720730  31.6142063  54.9293213  11.6261978  31.5307388
  55.3077393  12.9424210  30.8862705   9.6750021  33.1032410  68.9177094
  10.0418653  32.6946487  68.1336823  10.0481014  33.9846992  68.9253387
   2.8778260  21.4509811  38.3024979   3.0535107  21.9393940  39.1067467
   3.4528065  21.8500175  37.6495056  61.8549423  10.5472565  15.8386421
  62.2943039   9.7099819  15.9875154  61.8346329  10.6410799  14.8862686
  76.9623184  26.6392479  83.8638916  77.2362289  27.5315800  83.6518860
  76.5944443  26.7046261  84.7451553   1.3503453   9.0257521  17.6123466
   1.9818276   8.6961966  18.2517643   1.2829186   9.9614210  17.8026333
   8.4783831  51.4903946  61.9392548   9.2843084  51.6240158  62.4381142
   8.4733143  52.2006836  61.2976227  54.1076279  51.4781914  32.2801361
  54.6091080  52.2414742  32.5667496  54.7107010  50.7422791  32.3848648
   1.3815476   7.7978086  49.3218040   1.2216828   7.0093393  49.8404465
   2.1573520   8.1929359  49.7195892   8.2908926   6.6582932  19.6607513
   9.2427473   6.7314897  19.5911293   8.0916319   6.9602957  20.5469360
  29.8321323  64.8854294  44.9292145  30.6090851  64.3263626  44.9337234
  29.4673920  64.7815247  44.0503540  54.1138458   7.0560284  14.8345947
  53.2455215   7.4259801  14.9939079  54.3545418   7.3757176  13.9650564
  40.1430550  40.9170609  12.9498768  39.9749794  40.0551682  12.5689259
  41.0102959  40.8382950  13.3472652  74.4584732  34.9807358  76.0781250
  75.1690369  34.9940910  76.7193451  74.1361389  34.0796280  76.0965500
  41.0177269  69.5296021  32.5516510  41.9101677  69.4394608  32.2175026
  41.0634918  69.1996155  33.4490051  43.9142494  24.1697044  71.3436203
  43.9650993  25.0808907  71.6323853  42.9813080  23.9586678  71.3798981
  62.5277443   8.7860928  43.8594818  62.6381035   8.3609886  43.0089874
  63.3885994   8.7215605  44.2730026  15.6599655  39.0598335  68.4397125
  14.7680635  39.0338860  68.7862244  16.1836491  38.5932426  69.0910873
  11.5375195   6.6455073  67.5711288  10.7057457   6.1736784  67.6131210
  11.7091274   6.7455578  66.6347733  80.0244141   8.4679441  79.8169022
  79.5441132   8.9195080  80.5108948  79.9908447   9.0686779  79.0724411
  11.1408825  63.5834770  69.5710220  10.7583389  62.7112160  69.4758759
  10.6708374  63.9719734  70.3088303  73.1434784  17.1102276  43.4149971
  73.5410080  16.2399178  43.3874016  72.4487000  17.0771503  42.7574081
  62.0745430  40.1973114  26.9223385  62.7356224  39.5056343  26.9504395
  62.5204201  40.9690971  27.2712936  20.8476238   9.0940933  67.9369583
  20.3748207   9.3854189  68.7165833  21.0487328   9.9011879  67.4632645
  -0.0707365  50.1547241  45.3214340   0.7526231  50.1463776  44.8333359
   0.1470568  49.7588692  46.1652946   6.6245594  45.8478355  80.3888016
   5.8888240  46.3979034  80.1198273   7.0884328  45.6532784  79.5744324
  12.9663515  51.1200409  67.1371155  12.2869606  51.3217087  66.4936981
  12.4835768  50.8607025  67.9219131  17.3154583  37.8986893  70.2666016
  16.6242561  37.8298874  70.9251938  18.0751438  38.2237587  70.7497559
  43.5006218  70.8817978  27.0657635  43.9756432  70.1990128  26.5920658
  42.7107162  70.4460297  27.3857460  69.6080856  16.0217495  48.2553368
  70.0821762  15.5259895  47.5877342  70.2817993  16.5470085  48.6871223
   8.6831083  61.3453598  70.4940872   8.8014326  62.1995239  70.9095764
   8.1323862  60.8559837  71.1051941  62.3344955  17.0706844  86.8525085
  62.8190689  16.7389011  86.0966415  62.4140167  16.3796864  87.5101013
  36.3780251  17.0494938  88.5020905  37.1205788  17.4718380  88.0702744
  35.7085266  17.7319756  88.5492554  50.7368050  25.3432026  72.0524216
  50.1102638  24.8504562  71.5224380  51.1299095  25.9661121  71.4411240
  13.9960098  47.4816132  17.4728794  13.9020510  48.1213989  18.1786232
  14.1065674  48.0108337  16.6829853  33.5636063   0.0779430  82.4771118
  34.4749908  -0.2145982  82.4715881  33.4913254   0.6216531  83.2615738
  28.1650867  53.1921959  85.5583038  27.6073627  52.4154243  85.5158539
  28.2207775  53.4968491  84.6525879   0.9308406  68.7141113  47.0212898
   0.3397424  68.1998596  46.4713974   0.3624537  69.1013947  47.6870041
  20.3309631  61.6389008  65.8900223  19.9693909  61.9952621  65.0785446
  21.2740288  61.7854767  65.8167114  73.3967209   7.0627050  11.7613449
  72.4993362   7.3244762  11.5553913  73.4809418   6.1841421  11.3908510
  86.4080353  11.0076199  14.7844810  86.2472916  10.7196770  15.6830816
  85.5715714  11.3735666  14.4969864  78.6309052  68.9775467  13.6593876
  78.2786407  69.3042374  14.4872837  78.8000717  68.0493317  13.8207293
  14.2758093  10.9353294  11.6143475  15.0969696  10.5550251  11.9262695
  14.4053144  11.8806295  11.6909590  68.6007080  14.6042681  23.4313087
  67.6757355  14.3767786  23.5257225  69.0517426  13.7610054  23.3900185
  61.5249557  19.3024940  74.2134857  61.9045029  19.1237392  73.3531189
  62.2654610  19.2493057  74.8176804  40.0296745   7.5237541  22.5570812
  39.2033691   7.2213812  22.1802235  40.6762390   7.3749952  21.8671112
  68.7399979  21.5576038  44.2830696  67.9058533  21.1410713  44.4997253
  69.2366257  20.8770962  43.8286514  48.9469299  63.5154953  32.8893547
  48.4991837  62.8525047  33.4148979  48.8438988  64.3260803  33.3879204
  38.0249367  65.0888901  82.4311905  38.7095947  65.6697235  82.7630081
  38.4746208  64.2611389  82.2613602  84.1800308  35.9008522  72.6588974
  83.8256378  35.9705772  73.5453339  83.7501907  36.6047134  72.1730499
  87.1633148  47.4409142   5.2763534  86.6284103  47.2030258   6.0336633
  86.5310440  47.5850029   4.5722947  79.6874619   9.9520121  10.6359625
  79.5347214  10.6258116  11.2984543  80.5540314   9.6030684  10.8446026
   1.2654067  30.9778080  32.2826157   2.1143818  31.0124722  32.7233810
   1.4523571  30.5765343  31.4339352  72.7282715  43.8486214  16.6629601
  71.8510513  43.5020638  16.4998264  72.6865463  44.1964531  17.5537472
  62.0595131  71.2503815  74.0383377  62.1476974  70.3128891  74.2102814
  61.8933334  71.6369781  74.8980865  23.7663212  59.4764977  84.1387024
  23.7718029  59.9040833  84.9950714  23.4911518  60.1623383  83.5303116
  59.8421745  68.1023178  80.9702225  59.5918274  69.0260010  80.9509201
  59.4047852  67.7517853  81.7461395  17.1851635  18.2234974  26.4779224
  17.5328217  19.0735168  26.2080460  17.5934715  17.5970612  25.8803482
  71.6318817  44.9234924  60.9676781  71.0590210  44.5447578  61.6344795
  71.5391312  45.8693733  61.0814209   6.3445635  22.0496006  73.1044006
   6.0215144  21.8543358  73.9840240   7.2676067  22.2688828  73.2314377
  76.3094025   1.0865732  73.4971466  76.0248871   1.1765882  72.5876541
  76.2081909   0.1541943  73.6886063  36.5794907  54.1059914  80.9608536
  35.8504753  53.4876862  80.9111710  36.8119583  54.2760315  80.0480194
  19.2256317  45.7771645  38.3527031  19.4910431  45.5346718  37.4655800
  18.9615669  44.9511528  38.7579231  38.7984886  51.4233246  69.2463303
  38.6979980  52.2398415  68.7570114  37.9617653  51.3097229  69.6971283
  86.7908554  23.8483639  66.9801331  86.4693680  24.7411575  67.1058197
  86.2137451  23.3078232  67.5195770   0.6892042  31.4378891  71.8321991
  -0.0916603  31.4204273  72.3855362   1.3971479  31.6904011  72.4248962
  56.3772125  41.9613304  61.3008080  57.0574532  42.5015221  60.8986893
  56.6052780  41.9415932  62.2302322  50.6230087  25.2110119   7.3489923
  50.6658516  24.6560516   6.5702648  50.7747917  26.0970936   7.0202823
  23.0739841  50.2151375  64.2176819  23.9465752  50.0647202  64.5812607
  22.6821995  49.3432808  64.1666946  15.9971809  30.7211151  68.0157166
  16.7701187  31.2839413  67.9707108  15.9567156  30.4425049  68.9305801
  23.4328938  26.7407799  66.4093094  24.3662968  26.8210068  66.2129593
  23.1589832  27.6290474  66.6377487  50.9323463  30.3544312  32.0722198
  50.8696442  29.5689888  31.5287285  50.1593552  30.3181915  32.6356049
  53.3796158  38.9578743  34.5143051  52.9657288  39.7951927  34.3049507
  53.6291389  39.0376053  35.4349670  85.7008591   7.7584200  35.0448875
  85.1386337   6.9891105  35.1359901  85.7647018   7.8978825  34.1000557
  52.0672607   3.6305223  48.2547760  52.9708214   3.4883482  47.9726372
  51.6036606   2.8389003  47.9815712  49.4902458   1.7447213  51.9427605
  50.3392410   1.9346404  52.3419724  49.2103462   0.9264429  52.3530159
  24.2201538  11.9100943  16.1786785  23.9539204  12.7381687  16.5782337
  23.5655308  11.2787437  16.4771671  54.2277641  18.9782810  72.7084122
  53.7067146  18.9547215  73.5110245  54.1973610  19.8935604  72.4299011
  51.6859436  23.9569912  51.8601570  52.4203720  23.4134750  51.5747833
  51.5491333  24.5722027  51.1397209  76.6165466   2.7481029  31.6581879
  76.6530609   2.2514241  32.4756279  76.1208115   3.5366058  31.8789673
  54.6251030  20.3476086  47.8395576  54.3525963  20.3816261  48.7565155
  55.2862358  19.6559734  47.8116722  50.6901474  18.0676918  87.0120697
  50.4027939  18.9778347  87.0848541  51.5475998  18.0525112  87.4372482
  19.7999611  37.9259872  18.6835518  19.3181801  37.8056946  17.8652306
  19.1197109  38.0261917  19.3494740  75.8164978   6.7392235  81.1019058
  75.9057159   7.6808653  81.2488098  76.4063721   6.5538592  80.3712082
  59.0087967  65.3158035  40.7943535  59.5117950  65.4217453  41.6018219
  59.2499809  66.0730515  40.2608376   8.8123884  70.8407974  48.3398247
   8.0621233  71.3118896  47.9773216   8.9973736  70.1550064  47.6981888
  14.4423141  16.0469990  25.2584915  13.9089327  16.1750469  26.0429268
  15.0896711  15.3897085  25.5136967  30.5317650  64.0181885   0.1690086
  31.4272823  64.1441650   0.4827107  30.3926067  63.0722847   0.2152997
  77.2592773  57.0772820  84.2764206  76.8036575  57.8892479  84.0542755
  77.6014404  57.2280045  85.1575775  46.5491028  56.9105415  47.2313766
  45.9476357  57.4770660  46.7481422  46.1133308  56.7584991  48.0699577
   6.2124424  43.5282478  18.8147488   6.5581484  44.2822418  19.2924633
   5.5282273  43.8933640  18.2537041  21.0514565  54.1123085  51.1351585
  20.1379147  53.8338737  51.0707588  21.1100750  54.5465393  51.9861794
   9.3441906  68.3048553   5.2693014   9.4172249  68.2992554   6.2236948
   9.0034389  67.4376373   5.0500727  28.8337059  52.9690590  49.2846069
  28.2929020  53.6941643  49.5976334  28.3625908  52.1826363  49.5599709
  17.1056747  64.9499435  45.7170525  17.1617985  65.6842499  45.1056023
  17.9295006  64.9798355  46.2035179   6.4022751   1.6903448  59.8393135
   6.5932918   1.1832849  59.0502396   7.0283775   1.3688147  60.4880409
  34.2591362  43.5385208  46.2555199  34.8794861  44.0957718  45.7855492
  34.2807465  43.8624725  47.1559753  79.2818298  24.0464592  12.0835466
  78.3985443  23.7574520  11.8543730  79.8169479  23.2554417  12.0189924
  64.9837494  18.8434086  21.2844677  65.7781296  18.8147240  20.7511978
  64.2679596  18.8185902  20.6494465  32.1134949  58.5547829  16.8511600
  31.8565369  59.2598419  17.4453773  32.8349609  58.9226341  16.3408585
  69.5212402  56.4687195  70.0921478  69.4153290  55.6753998  70.6171799
  69.9150085  56.1640778  69.2746124  55.5191231  24.4192772  22.9511280
  54.7579918  24.9566898  23.1704426  56.1842117  24.6735687  23.5908337
  58.4049339  38.1605606  57.2516060  58.0644073  37.2751808  57.3795509
  57.6934052  38.7342529  57.5359230  77.4911423  58.3471870  38.8421783
  76.9832840  58.6605377  39.5905914  77.4529800  57.3931160  38.9094086
  16.4226456  39.9919968   8.4318037  15.5424728  39.9404526   8.8044558
  16.9687595  40.3104858   9.1505222  64.8385315   3.7316048  36.1525497
  65.6004028   4.2973146  36.0270653  64.3190765   3.8495066  35.3572502
  32.7030907  47.2781410  19.1723900  33.4625053  47.8591423  19.2166691
  32.2562408  47.4038124  20.0095062  61.5224190  26.7515087  37.7194481
  62.1045532  26.5668945  38.4565163  61.6429138  26.0091648  37.1273041
  10.2711401  62.0324593  41.3801575  10.0313950  62.9130440  41.6688156
  10.9295702  62.1743202  40.7000275  64.1563416  59.3673286  65.9002380
  64.7313156  58.6239052  65.7186890  64.2943344  59.5557442  66.8285141
   8.7880640  45.7150726  85.7712936   8.1338387  45.2096672  85.2888107
   8.3335867  46.0002594  86.5639725  43.1655998  37.3918610  70.7654800
  43.0960846  37.5383301  69.8221130  42.3204536  37.6747055  71.1147003
   2.7561407   2.1895759  86.5121765   3.3284121   2.1670496  85.7452164
   1.9063103   2.4655695  86.1688843  74.6411438  39.5808945  76.6345139
  74.7218170  39.3207283  75.7168884  74.4526062  38.7654457  77.0989761
   6.4408684  69.4161911  58.1538620   6.9104733  69.2404175  58.9692192
   5.8653245  68.6597137  58.0410881  71.9661789  47.1157036  81.3959503
  72.5887527  47.2915535  80.6904602  71.5259323  46.3080750  81.1310959
  27.8712273  68.3842697   8.6956902  27.2245598  67.8334045   8.2545528
  28.3475075  68.8114777   7.9837365  70.9320450  14.3050394  62.2013321
  71.5019455  15.0618401  62.3380585  70.7533035  13.9774590  63.0827942
  86.5348892  10.2525806  45.5751495  85.9719849   9.7700186  46.1805420
  87.4222107  10.1007891  45.9005013  45.8300705   5.0044599  21.4244156
  46.0704956   5.5516219  22.1721058  46.5866013   4.4330158  21.2927074
  36.5133438  70.7789230  85.3221741  35.9736328  70.7973404  86.1124954
  37.3774452  71.0679703  85.6154556   2.0623796  49.5823593  61.5669556
   2.0832703  48.6668663  61.8456421   1.1673366  49.7176323  61.2557755
  18.7679024   5.2683368  10.0841789  19.5014420   5.4666982  10.6662474
  19.1333561   5.3468828   9.2029829  71.0543060  19.1110001  71.0914764
  70.8684082  19.4528103  71.9660263  71.9392166  18.7521267  71.1576996
   4.9627142  51.1996727  21.2453079   5.7462025  51.1328735  21.7911243
   4.5933833  52.0561905  21.4602489  64.9756927  42.7633286  84.8269119
  64.1769104  42.4309273  84.4174118  64.6870728  43.1030960  85.6739578
  64.3511276  46.1993179  13.9419422  63.6884346  46.2062035  14.6326056
  65.1758041  46.3625832  14.3996496  47.5407028  61.1732750  85.1084137
  48.4434242  61.2064400  84.7918320  47.6080818  61.3617821  86.0444489
  72.2892532  11.0932055   0.4587713  71.6097031  10.4323292   0.5917707
  71.9565811  11.8719711   0.9049633  73.1421051  32.4411659  42.9414139
  73.4992752  31.5542545  42.9866791  72.5492554  32.4225693  42.1901398
  63.6409836  13.6266747  36.3020172  62.9445724  14.0381479  35.7902222
  63.2113037  13.3481770  37.1107445  38.6366768  -0.0772584  54.0333557
  37.8066864   0.3013958  54.3231277  38.8798599   0.4386222  53.2646141
  84.8546219  68.7705460  55.6248741  84.2576599  69.1087952  56.2923050
  84.4366837  67.9672089  55.3147011  58.1431427  45.9911880  57.6747437
  59.0651855  46.0057297  57.4181175  57.7372246  46.6802063  57.1487045
  24.0624256  28.0748558  81.8633041  23.4016037  27.9278584  82.5400162
  23.9450951  28.9900990  81.6087494   8.9036732  60.5206413   7.2185626
   8.6922455  61.4276276   6.9974179   8.0581579  60.1200676   7.4207425
  32.1486130  55.7584457  53.1676292  31.2116985  55.7374916  52.9727249
  32.2130508  55.4408264  54.0682945   0.5143836  69.7785873  10.3429680
   1.0043093  69.6946030   9.5249519   1.1284072  70.1942444  10.9483080
  67.3981628  28.9446697   2.9174104  67.1507187  29.4487591   2.1422348
  68.1691971  28.4477539   2.6439016   0.7222652  33.2101898  66.9655075
   0.5357031  34.0808792  66.6143188   0.7828465  32.6482658  66.1929779
  64.5751648  69.7946854  51.3071594  65.1680832  69.6213837  50.5759621
  64.6386490  70.7392883  51.4483032  16.9654026  60.9557343  88.2819061
  16.9034500  61.6719055  87.6498566  17.8379879  60.5878639  88.1422729
  75.6673965  52.2552643  73.8377991  74.9980545  52.0078659  74.4757690
  75.2458572  52.9209785  73.2943268  16.8633175  52.0305519  35.2787056
  17.1749191  51.2038307  34.9103737  16.0313931  51.8081055  35.6966209
  57.9808350  59.6204987  68.8465958  58.4475594  60.2604980  69.3839951
  57.7726517  58.9073143  69.4501343  65.7670212  37.6286163  57.7176323
  65.4604187  38.1892166  57.0049210  66.2841873  36.9503021  57.2832832
  23.8087826  48.5306969  42.9004250  24.7187710  48.7735367  42.7295876
  23.4403229  48.3578568  42.0340538   5.3526158  33.5512276   8.6306534
   4.9037633  34.3660393   8.8561382   5.1801200  33.4333382   7.6965342
  67.2135086  59.5227852  47.3664551  66.3137436  59.1987343  47.3258667
  67.2202530  60.1176300  48.1163521  33.9994736  12.1949635   6.0551214
  33.8504066  12.3316031   5.1195250  33.2251396  12.5664349   6.4777884
  24.1064701   8.0073805  77.7013016  24.4713726   8.3732481  76.8955612
  23.9527416   7.0848866  77.4973373   8.8203688  56.4546089  18.0885735
   9.1735020  56.7518463  18.9271317   8.0579109  55.9258308  18.3236942
   3.3179088  56.5250778  36.8333206   3.1191180  57.1865540  37.4960136
   2.5395591  56.5022659  36.2766495  23.9409885  35.0427704  84.5126953
  23.9808388  35.5029678  85.3510590  23.2142620  35.4563179  84.0467758
  39.4003639  71.5637283  69.2193451  40.1649857  71.0038300  69.3538589
  38.7205505  71.1774673  69.7715073  59.4087563  63.6244774  67.0573349
  59.5548515  63.8709908  67.9706345  58.5007362  63.3225784  67.0330429
   9.3696356  57.0168037   4.2039475   9.9873734  57.6730881   3.8815763
   9.2104855  56.4474754   3.4511085  58.5687218  26.8256226  32.3578033
  58.7103386  27.5824337  32.9264984  57.6475410  26.8853035  32.1046371
  70.3933792  39.1415329  88.0576019  71.0596313  39.6246910  88.5463638
  69.7429810  39.8028946  87.8213425  31.0162506   8.7164412  81.7899170
  30.5429573   7.9245677  82.0451813  31.0017834   8.7060928  80.8328781
   2.4552402  67.5312119  83.8147049   3.3115604  67.7947998  84.1515579
   1.8412308  67.7677994  84.5098648  47.4015923  22.1716518  44.0087395
  48.2234230  21.7184334  44.1969337  47.2146912  22.6691666  44.8048439
   2.8371387  29.0383530  64.2786331   2.9314599  28.1019459  64.1040573
   2.8501799  29.1065102  65.2333145  37.2424049  63.7836533  69.2783127
  36.9229012  64.3352509  69.9923782  36.6590347  63.9793129  68.5450821
  65.6767426   4.0825639  56.6602898  65.4900970   3.8816023  55.7432213
  65.3864670   3.3064311  57.1394424  51.6142159  48.4864159  27.9472675
  51.9214554  49.2005081  28.5057564  52.4037476  47.9850998  27.7434196
  68.7081299  22.2347698  59.8074951  68.7923508  22.3887062  58.8665161
  67.7717209  22.3281212  59.9825935  85.3980179   3.3363054  38.3081322
  85.9723282   3.9887021  37.9071693  85.9148407   2.9713988  39.0264435
  85.0481186  45.2912521  44.8080025  85.9363708  45.1646080  44.4745369
  85.1524429  45.8934212  45.5447083  52.8737183   2.9339304  17.3462791
  52.6341171   3.0198920  18.2690105  53.3013535   3.7629571  17.1316299
   1.4929827  12.1213331   1.6979572   1.4930472  11.2812071   2.1566722
   1.9702502  12.7122746   2.2803969  26.0474205  55.5783997  61.9683952
  25.8606396  56.1042328  62.7461128  25.6385918  54.7317162  62.1478844
  84.7256775  33.1849022  49.7328224  84.0656128  33.7641830  50.1135864
  84.2228699  32.5580406  49.2127647  54.2027512  34.2121773  89.1304779
  54.8018150  34.6314621  88.5127792  54.4024849  33.2785797  89.0616302
  23.7851543  54.4371338  65.8609085  23.2675800  54.0427170  66.5628967
  23.6511669  55.3791962  65.9648361  46.9085960  11.1415710  75.9545517
  46.8234634  10.3533916  76.4909821  46.8036652  11.8646421  76.5729294
  85.0790176  60.5795212   5.5098248  85.7729721  61.2364922   5.5650654
  84.2782974  61.0873680   5.3787775  82.8093567   5.1432209  42.6112900
  83.2527466   5.9899869  42.5600471  83.5131302   4.5133781  42.7669525
  79.4637527  70.7054520  85.5273590  79.8388901  71.5731888  85.6774445
  78.6318893  70.7190018  86.0007019  74.4153290   4.0422897  85.0434189
  75.3628616   3.9206970  85.1037140  74.0644302   3.1550777  84.9662323
  19.8867416   8.0848246  54.1038933  19.9409924   7.1319175  54.1764030
  18.9984455   8.2508268  53.7882919   6.6756129  33.7148209  68.0866852
   6.4033480  32.9038887  68.5162048   5.9416060  34.3145714  68.2199783
  59.1226578  38.2568359  77.1617126  59.6115761  37.5921173  76.6765976
  59.5565567  38.2989540  78.0138779  44.5409622  70.8767395  54.2664413
  44.0286560  70.0793304  54.4002914  44.5468216  71.3042374  55.1228561
   9.8750248  30.3237514  81.0658264  10.4963512  30.8509102  81.5681152
   9.2892199  29.9513340  81.7248993  11.0972271  62.2790985  47.1861229
  11.9804239  62.4570236  47.5094490  10.7715492  61.5790558  47.7519035
   5.7534161  59.9260368  43.5681419   6.6594124  59.8180504  43.2787590
   5.4772220  60.7585907  43.1849937  51.8301659  29.9448261  72.9868088
  50.8743401  29.9657001  73.0336456  52.0749969  30.8235493  72.6967468
  44.4731255  49.0977669  32.7494392  44.0894699  49.3805504  33.5795441
  44.3257904  49.8331223  32.1546516  71.5689621  26.7641392  41.1178780
  72.1604996  27.2505360  40.5436554  71.7706528  27.0851307  41.9968071
  30.3562927   2.6283088  60.4601059  30.1955585   1.7754027  60.0564384
  31.0543098   3.0155694  59.9318695  64.2412872  34.9418297  87.9206314
  63.2845078  34.9208336  87.9396210  64.4604874  35.8735924  87.9220505
  80.2913666  10.9556217  42.9193802  79.4903107  10.6145496  42.5216293
  80.7513199  10.1782036  43.2360725  69.8365173  68.1436234  16.9686794
  69.7296066  68.6991577  16.1965485  69.4654007  68.6569519  17.6863117
  75.1298294  37.9751625  40.3782463  75.0191269  38.5685616  39.6353760
  74.3424606  38.1040077  40.9071045  75.0614014  61.8824883  72.2377243
  75.0462723  61.7614250  73.1871185  74.4253616  62.5790367  72.0749283
  75.5382462  13.5881014  11.2176504  76.3207169  13.1113720  11.4945984
  74.8167267  13.1428595  11.6619492   8.9707012  48.3039627  30.6237240
   9.1987953  49.2285004  30.7208633   9.5285606  47.9932823  29.9106331
  28.2382030  51.2848969  55.3212738  27.5738392  51.8406181  55.7287369
  27.7753773  50.8393021  54.6117172  63.2242966  10.4510574  48.2173729
  64.0326538  10.9448318  48.3551064  62.6902008  10.6463566  48.9873276
  74.1368942  66.1304550  36.3567238  74.9089813  65.8766403  35.8510628
  74.4316788  66.1163559  37.2672920   0.9875729  34.7939949  49.2331276
   1.0238674  33.9298935  49.6433067   0.9605262  34.6122551  48.2937279
  24.9893990  39.9425430  85.7764511  24.2294159  39.6966286  85.2490158
  25.0334167  40.8959198  85.7031860  79.1538620  25.0160923  72.2756653
  79.6677170  25.6215076  72.8101349  79.3298111  25.2842484  71.3738022
  48.7607460  12.6805992  52.0621719  49.4737396  12.1079531  51.7794189
  48.6665840  13.3146973  51.3513412  65.9248581  41.5318947  26.4270954
  66.1424561  42.4596367  26.3366852  65.3840942  41.3370209  25.6616993
  39.7244987   1.3047675  33.1485252  39.6135941   2.2375586  33.3324623
  38.9597359   0.8894607  33.5471306   7.9794626   4.5472269  62.7863350
   7.7439055   4.9989910  61.9759941   8.5498915   3.8320150  62.5047073
  77.0675888  57.4773483  49.1154289  77.2080765  58.2213631  49.7010345
  77.1645355  56.7085762  49.6774101  39.6623421  53.2039070   5.8123260
  38.8407784  53.6853142   5.9098563  39.9359360  53.0128365   6.7094707
  53.3265724  68.8276367  46.6783791  52.9713745  67.9482574  46.8078117
  52.7083054  69.2503433  46.0823135   4.1164804  45.8350792  36.7451057
   3.9144032  46.1817627  37.6141319   4.9514694  45.3805923  36.8567619
  75.1831970  57.6098480  51.8899536  75.6007004  58.3794861  51.5032005
  74.2698898  57.8689156  52.0123558  42.6350212  54.9974174  19.1817341
  43.1394310  54.5085297  19.8319588  42.3604012  54.3369789  18.5456219
  61.3810005  59.7019653  66.5841980  61.4384232  60.4268951  67.2066193
  62.2878838  59.5334167  66.3284988  71.6567307  49.4952431  69.0958939
  71.8717957  50.3088875  69.5519257  72.1012192  48.8135414  69.5998230
  34.7284164   2.2201319  18.5796719  34.0777512   2.3654776  17.8928375
  34.9137001   1.2819002  18.5393925  83.0811157  53.0578766  61.1589279
  83.7024918  52.7849846  61.8339462  82.8765259  53.9675598  61.3753853
  65.0383377   7.6269646   0.9658295  65.3227081   8.0857372   0.1753292
  65.8330154   7.5424366   1.4926722  49.5920486  37.3679161  37.3067513
  49.7529297  38.2506752  36.9734573  48.6673927  37.2060471  37.1195564
  56.4539490  39.5315475  46.0955620  56.1792221  38.7454491  45.6235390
  55.6679230  39.8189659  46.5600891  56.6191444  21.3950443  12.0547037
  57.1416092  21.6067295  12.8283005  55.7157745  21.5642242  12.3221626
  72.2717056  67.3027802   6.9886265  72.4893494  67.7207870   7.8217716
  72.5254745  67.9444351   6.3252220  66.0291672   0.4106057  82.3044434
  66.8939896   0.5147596  81.9076385  65.8992615  -0.5366215  82.3504486
  47.1303444  26.8282871   0.1277908  46.8322830  27.7257710   0.2758289
  48.0543175  26.9181786  -0.1055021   4.2256031   0.8698536  27.6756458
   3.9469972   1.3098814  28.4787579   3.4561772   0.3746608  27.3945789
  65.8695831  24.3230324  40.7481804  65.1984634  24.6879463  41.3249550
  65.4438934  24.2636986  39.8929062  52.7056847  47.2657433  21.9455147
  51.8100700  47.0422325  21.6922321  52.6468010  47.4697227  22.8788738
  63.2745323  16.8692818  53.9907112  63.8154945  16.0969982  54.1555443
  63.8471031  17.6098633  54.1905403  13.8772392  61.2341652  50.5580254
  13.9862089  61.3062019  51.5062675  12.9370584  61.1039543  50.4341850
  65.6458893   7.0238924  63.3579178  65.5182037   6.1687670  63.7686348
  64.8631439   7.5219769  63.5933990  16.7040768  55.8202057  67.6846008
  17.0707741  56.0378113  68.5415802  16.1464386  55.0597382  67.8487854
  19.4658642  59.8565292  88.1696014  20.4146290  59.9580040  88.0935974
  19.2081490  59.4048843  87.3659592  78.0762787  44.3486481  54.1895599
  79.0147552  44.1658440  54.1439323  77.7860489  44.3404579  53.2774582
  70.2709427   9.4950819   6.5880437  69.6534119  10.0444899   7.0707865
  70.2979050   9.8784056   5.7113638  77.8008347  11.8279924   8.4523325
  77.8748550  11.6562948   9.3910942  78.6715927  11.6359015   8.1043224
  15.5719643  40.7831306  63.7572060  15.5358429  41.2333145  62.9132500
  15.5469666  39.8527412  63.5336380  11.2940264  46.7837906  49.3348198
  11.7781382  46.2179871  49.9362640  11.8355064  47.5692368  49.2566910
  81.8789139   9.2405615  87.8799286  81.4531250   9.3892269  88.7242203
  82.8088608   9.3892221  88.0511932  82.5605774  40.6788788  32.3568230
  82.6569824  41.5200424  31.9102993  82.1283875  40.1152344  31.7151489
  31.5344067  38.1078796  14.0109911  30.9879837  37.5959969  13.4146452
  31.4719028  37.6475029  14.8478775  24.3475552  64.6097107  18.3712692
  24.1955547  63.6649246  18.3938618  23.5660076  64.9877472  18.7743874
  66.7210007  61.1541023  11.0845881  66.7806778  60.6039009  11.8655796
  65.8594360  60.9562149  10.7174664  21.6566048  44.3459320  14.9861212
  21.2466831  43.5610847  14.6225138  21.1943645  44.4975510  15.8104858
  12.9205532   5.7024894  87.1087341  12.7632151   6.1844692  86.2968369
  13.6184807   5.0852146  86.8894119  10.5857878  40.5494881  38.5385437
  11.4596062  40.9384613  38.5755806  10.0039110  41.2362518  38.8641243
  81.2117691  71.0828781  38.7555389  81.2632446  71.9428101  38.3382835
  80.7994995  71.2520142  39.6026917  40.1283684  10.1939983  14.8804750
  40.2919922  10.5011396  13.9887772  40.9519119   9.7861757  15.1482229
  67.1385193   8.8686018  53.8252945  66.9567566   9.7834406  53.6102028
  67.6945419   8.9113855  54.6032677  31.5105343  62.5498238  20.0283852
  31.2680111  62.8491211  20.9046459  31.9279957  63.3097000  19.6227455
   7.1183910   5.4216676  60.4961815   6.3919549   4.8531485  60.2406235
   6.8333101   6.3009548  60.2475548  79.2555847   5.2020640  23.6890526
  79.1351318   4.3029838  23.3834724  78.8973770   5.2033567  24.5766983
  74.9392319  13.9577208  28.8310776  75.3846436  13.7334337  29.6481075
  75.3379593  13.3850279  28.1758919  16.4302444  41.2811356  87.1310425
  17.0269642  40.7305984  87.6380615  16.5749474  42.1651344  87.4684372
  82.1694031  32.7094383  70.8856506  83.1094208  32.8898277  70.8932190
  81.9034195  32.8625832  69.9789963  55.7629585  17.4011173  67.7166061
  56.1341057  17.7654228  66.9130173  56.5221481  17.1015854  68.2167511
  85.0013885   6.9025326   5.8016310  85.9379959   6.7918830   5.6380730
  84.9428940   7.0965519   6.7371345   2.1308453  32.5084534   9.7921467
   2.9628692  32.0520248   9.9172153   1.8650019  32.7678757  10.6743364
  75.3613510  40.2325211  65.7274780  74.7904968  40.8180351  66.2249985
  75.1292648  40.3920517  64.8126450  77.0687256  15.9448261  64.1392212
  76.6595688  15.0955582  64.3052444  77.5806961  16.1223717  64.9282608
  49.6125374  47.2492256   5.6727257  49.0437584  46.7765121   5.0650544
  49.8118057  48.0710258   5.2242036  81.8667831  10.5710783  78.6098480
  81.8987503   9.9762411  77.8605957  81.7763367   9.9952641  79.3691177
  28.0263290  64.9916458  39.1181450  28.5827293  65.4065781  39.7772942
  27.6483917  64.2347031  39.5658531  17.5513878  30.2289371  19.7728157
  17.3017921  29.3049126  19.7621937  18.3338795  30.2593555  20.3232803
  30.4461441  40.6075401   7.3138447  29.7375736  39.9778900   7.1807923
  30.0994568  41.4332237   6.9757843  24.0410175  25.8827286  83.9301834
  23.9390469  25.8827915  82.9784317  24.5635204  26.6631241  84.1151352
  35.5510101  33.1657448  13.5718069  35.7326927  33.2090034  12.6330032
  35.8253860  34.0187645  13.9084177  13.2372456  32.7954597  34.7357178
  13.9948530  32.3753929  35.1429100  13.5862379  33.6011505  34.3545303
  13.1260414  62.1039429  12.9271832  12.2193241  61.8201332  13.0435781
  13.5531321  61.3676834  12.4892941  63.9940071  63.9264641  42.6629715
  64.8928909  63.5996819  42.7011604  64.0793457  64.8745270  42.7635994
   0.5536396  36.2890205  55.0618820  -0.0138560  35.8828049  54.4067726
   0.6058791  37.2073936  54.7971306  37.2121925  61.5415001  73.5240097
  37.7929916  61.0088348  72.9807205  37.7149124  62.3357697  73.7046814
  67.4850616  44.6003990  55.5655022  67.3552780  45.2491074  56.2572899
  68.3118210  44.1732903  55.7897148  74.3530273  12.2050447   3.2256021
  73.9257126  12.0866385   2.3772995  73.6309280  12.2689857   3.8506746
  19.5730934  29.6081028  33.3700485  19.2024136  30.4275684  33.0424728
  18.8152294  29.0387974  33.5033302  22.8574524  30.3293610  73.0033340
  22.5641937  30.1260700  73.8915329  23.5420780  30.9877300  73.1219482
  39.2207489  69.0602417  40.0442924  38.9412994  68.2141571  40.3939667
  40.0811768  68.8888321  39.6615181  77.4125900  42.3940430  24.0586052
  76.5866928  42.5553970  23.6024265  77.6746063  41.5175934  23.7767944
  52.8757973  54.9848671   1.0161742  52.1665764  54.3614845   0.8592232
  53.6589661  54.4407806   1.0989636  48.5578804  51.8087616  41.5223160
  48.6065903  50.9356155  41.9115143  47.9497261  52.2881851  42.0849266
  76.3051300  43.1220360  29.5174904  76.6291580  42.8666496  28.6537666
  75.4969330  43.6023788  29.3376999  10.7387552  48.0438957   2.1058049
   9.8566370  47.6741180   2.1427288  10.8640070  48.2731438   1.1849422
  14.2073870  20.8202171  14.6406317  13.8389406  20.0194588  14.2674494
  15.0893650  20.8723354  14.2723513  29.8963051  58.0901184  86.7427292
  29.5955639  57.5772820  85.9925385  29.9706154  58.9836845  86.4076920
  67.9079895  45.0987320  46.3356590  67.3400955  45.2215881  45.5749779
  68.6850052  44.6622200  45.9864655  83.9812088  59.2281456  44.6908150
  84.9158478  59.3580360  44.5301704  83.8825989  58.2799988  44.7775497
  49.7495575  49.7871284  46.0969238  48.8329315  49.9273605  45.8595200
  49.8413887  50.2034111  46.9539566  22.5137978  28.0153675  86.9205704
  21.6863213  28.3911800  87.2210312  22.8550282  28.6557541  86.2963104
  36.6142273  57.7555542  70.3480988  37.2497330  57.2422371  69.8492279
  36.9705238  58.6439705  70.3473969  55.2472076  24.1704712  43.3261757
  54.9021301  24.1620312  42.4333839  55.6079750  25.0503521  43.4352074
  78.8283768  13.4312134  57.4237556  79.1312027  12.8443117  58.1166267
  79.6247406  13.6769180  56.9529381  17.7283745  27.6508961  69.4086380
  17.2115269  28.3979073  69.7104187  17.4060707  26.9123077  69.9252014
  55.7597504  14.5698128  43.2066307  56.1322670  15.3814716  42.8621407
  56.4818649  14.1569672  43.6802826   3.2561719  62.8411484  79.6248932
   3.6774967  63.6998444  79.5880508   2.8506622  62.8103065  80.4914017
   4.8918653  12.0249939  76.1354446   3.9781599  12.1047897  76.4093170
   5.3411617  12.7378016  76.5896149  68.9258347  40.6363831  75.0370560
  68.3251190  41.2843475  74.6689301  69.7678452  40.8287544  74.6244431
  50.4207535  52.5361862  27.9898853  50.7909775  52.6676903  28.8627377
  50.3909035  51.5854263  27.8831310  44.5909958  55.2799492  43.2496262
  44.0420837  55.7462273  43.8801117  45.1424484  55.9601631  42.8630524
  86.0360031  57.6856003  24.2328606  85.2382278  57.3600044  24.6497231
  86.6309891  57.8642311  24.9610844   2.8103657  63.9394913  87.2444382
   2.6445644  64.4672699  86.4632950   2.5508900  63.0528374  86.9939423
   0.9792018   9.2279730  86.8605423   0.0553109   9.2538710  86.6115723
   1.0725510   8.4106646  87.3499603  60.9693451   7.0144501  88.0721359
  61.6134224   6.5995302  88.6459351  60.1230278   6.7270627  88.4147491
  84.2801285  51.0518036   8.4265537  85.0017166  51.0621948   7.7977118
  84.5360565  50.3948288   9.0739470  44.0194740  27.9070015  19.0824509
  44.9180450  28.2085781  18.9488392  43.6998901  27.7090092  18.2021675
  13.1904716  50.7300148  23.3731651  13.5295553  50.9019661  24.2516232
  13.9722624  50.6294403  22.8301010  70.8605270  53.4188652  47.0954361
  71.5411987  53.8723793  47.5926743  70.5506287  52.7316895  47.6853371
  47.3326035  49.2481689  26.9403000  47.2135353  48.6379814  27.6681232
  48.2434349  49.1265030  26.6723118  40.9240608  44.2204323  18.1614113
  40.7351761  44.2353401  19.0996723  41.4340134  43.4207153  18.0324306
  15.4684658  61.1917381   5.4760432  16.1871357  61.3579140   4.8660173
  14.7181730  60.9962997   4.9147086  39.6959076  62.7948914  21.5175800
  39.2860756  63.4752617  20.9833832  39.5351334  61.9832306  21.0363407
   1.3353142  31.6280270  15.9048815   1.3676052  31.5354557  16.8570480
   1.3585793  30.7294197  15.5759506  49.9511070  60.9506149  45.6771736
  49.3716393  60.9744148  44.9156761  50.7578812  60.5512390  45.3518295
  41.3742905  11.6111641  40.4402733  41.2015839  11.6702089  41.3799095
  42.2507095  11.2308493  40.3812637  18.9025402  27.6553040  78.1897583
  18.1409760  27.4322815  77.6544952  19.2615376  28.4420853  77.7794800
   6.4404879  53.9312553  50.4094810   6.4431992  54.3446922  51.2727890
   6.7650533  53.0447273  50.5674591  22.7089481  18.0309849  87.4938202
  23.6450672  17.9116898  87.6540756  22.5818100  18.9795303  87.5120010
  16.7168064  25.5482407  77.1028442  15.9019032  25.2984543  77.5384674
  17.3867283  25.0053997  77.5184860  69.1727905  36.8238373  42.6762047
  68.3745956  36.5284653  43.1142464  69.3842087  36.1196861  42.0632591
   1.0796648  62.5436974   1.8422537   0.7552515  63.1161919   2.5374086
   1.9351262  62.2488632   2.1544893  57.8891640  33.0052605   6.9600163
  58.2853546  32.4107971   6.3229308  57.1952095  32.4889908   7.3700447
  47.8469086  25.5209198  73.6588058  48.2674446  25.8799286  74.4401398
  48.5535889  25.0790806  73.1880493  64.0362701  20.4400063  83.3059158
  64.3846436  19.6770325  83.7671509  64.5913239  21.1660233  83.5905991
  16.3437729  52.5917168  55.1348534  16.9889183  53.1110687  54.6549644
  16.4661922  51.6992226  54.8112755  14.1162920   2.1534274  72.2611923
  14.1248236   1.8062748  73.1531830  15.0253372   2.4007030  72.0917130
  32.6570587   3.5652995  22.7296371  32.5726738   4.4842525  22.9838734
  33.2735329   3.5749946  21.9974499  73.2097244   8.3238373  23.6812592
  72.4578476   8.5503263  24.2286301  72.8413696   7.7898870  22.9773808
  58.3831215   6.5665245  82.2079163  58.6781425   5.9498925  81.5378723
  57.8772163   7.2204370  81.7255325  57.9971085  43.7859154  14.7249737
  57.6988792  44.2729607  15.4931402  57.7691536  44.3459587  13.9829350
  24.9537525  40.8032951   4.9644718  24.3207607  40.7806702   5.6821370
  24.4853630  41.2270508   4.2452531  67.0640640  50.9679375  49.0447235
  67.7872391  51.4546661  49.4401283  66.2828903  51.4714127  49.2738762
   0.3687558  19.7814178  32.3317566   0.8144429  20.2992210  33.0021858
   0.9845253  19.7569771  31.5993214  61.0407448  21.4803219  79.3617630
  60.9942093  20.8032494  80.0367737  60.3298187  21.2656841  78.7578201
  69.7981949  41.8196411  78.6344070  69.4105606  40.9731331  78.8566589
  70.7357254  41.6415710  78.5598297  21.0293369   9.1949873  23.4623547
  21.2725945   8.2695646  23.4878387  21.8492336   9.6626244  23.6214657
  53.4702301  57.0881004  30.8915482  53.0234985  57.9206009  31.0452003
  54.2456779  57.1254845  31.4514694  34.2101860  36.3631439   2.8369446
  33.5748634  36.8545380   3.3576424  33.8955956  35.4595718   2.8655245
  30.3576469  44.9549294   4.2642899  30.0090771  45.7550545   3.8711908
  31.2150764  44.8405762   3.8544481  46.8704491  63.8041306   3.5661142
  46.4396324  63.8257523   2.7116189  47.0790901  62.8804550   3.7058468
  13.2143631  70.1066742  88.5595779  12.4917107  69.4862823  88.6550827
  13.9799194  69.5581360  88.3885193  50.2421684  39.9483643  38.9042664
  49.8984184  39.0626068  38.7880554  50.8339729  39.8792343  39.6534157
  18.3432579  47.4824104  11.6907883  18.5984802  46.7307663  12.2256927
  17.3885040  47.5082855  11.7540894  52.7215576   2.0816474  14.4381695
  53.5878563   2.4877515  14.4672012  52.1212234   2.7788630  14.7022142
  35.7198792   8.2077589  14.1185942  35.3314743   7.9548993  13.2810755
  36.6578941   8.0560083  14.0031395  21.2723141  56.0189247  26.8534813
  21.1634235  55.0810013  26.6963844  20.4097652  56.3934479  26.6746731
  37.7230225  49.1470604  23.4359360  37.3224297  49.9684601  23.1512318
  38.4853554  49.0424042  22.8666172  72.9319611  10.7987375  52.7436523
  73.6227264  10.5978422  53.3750954  73.0244904  11.7369156  52.5778427
   5.4023547  13.5461769   7.4188499   5.3673434  14.4770927   7.6388555
   6.2571378  13.4300938   7.0039988  82.5296097   8.3749485  60.9893227
  81.9707565   9.1457005  61.0886307  82.6286392   8.2712421  60.0429230
  61.4726715   0.7565990  76.5131149  61.9972038   0.2108504  77.0989990
  61.1499252   1.4647585  77.0704117  50.1031532  12.9499989  18.9125977
  50.1670685  13.5713978  19.6378632  49.3439865  12.4081144  19.1276741
  84.1038742  42.7881622  87.6921921  84.0537796  43.5464096  88.2742462
  84.8280411  42.9887924  87.0992737  23.2488194  40.9111061  25.3453541
  24.1487865  40.6398239  25.1645374  23.2849178  41.8675423  25.3579769
  39.0447845  60.9629135  57.1378670  39.6914787  61.6484642  56.9704285
  38.6298828  60.8124275  56.2884903  40.0183983  21.5827503  88.8633194
  39.1092567  21.4290180  88.6062927  40.0549927  21.3199959  89.7830200
  35.6050835   5.9996786  76.1065903  35.8350639   5.6780481  76.9783096
  34.6675110   5.8243451  76.0262527  22.0315266  41.0449219  87.3807068
  22.7197037  40.7354164  87.9696503  21.9977722  41.9901772  87.5276413
  58.4997673  30.7402744  46.6857948  59.4011726  30.8247108  46.9965591
  57.9637680  31.0297260  47.4241409  48.3772774  34.0521889  45.6630630
  47.8506813  34.5606651  45.0463104  47.7361145  33.6369553  46.2398872
  78.4927521  22.9022007  74.4234009  79.1287994  23.5266743  74.0745316
  78.8367844  22.0447788  74.1729965  66.7006760  24.5832329  36.3302383
  66.9635620  25.1405182  37.0627365  65.8424911  24.9182396  36.0703773
   2.8919799  34.0698280  79.0279617   2.2471328  33.3656540  78.9605484
   2.6303191  34.5604286  79.8071136  58.0292625  57.4809456  60.0981026
  57.3805161  57.4907112  60.8018570  57.5821838  57.0560722  59.3660965
  18.0354633  19.1810265   2.8452735  17.3963547  18.6493492   3.3197114
  17.6179962  19.3627090   2.0032847  79.1458588  34.6314850  26.6775494
  78.7545700  34.3384438  25.8545952  79.1567154  35.5863037  26.6109734
  64.0666656  50.8521843  52.0216599  64.1600189  51.4499130  52.7634392
  63.1213036  50.7785378  51.8909111  35.4198685  58.1712685  34.3124237
  35.1516266  57.2862549  34.5594635  36.1242142  58.3874054  34.9235001
  59.4145889  26.1273670  43.8822670  59.4124870  26.9100285  44.4333267
  60.2596130  25.7133045  44.0575447  62.9394112  40.6818008  48.6650925
  62.3692436  39.9237976  48.5363655  63.7740135  40.4228020  48.2744675
  66.5747528   3.7269781  48.6498489  67.2415848   4.3982668  48.5051231
  66.3708649   3.3991497  47.7739563  26.7713089  25.0388107  73.3881760
  27.2265816  25.6775532  72.8395767  26.0139027  24.7722149  72.8671265
  44.5600395  35.0279961  72.0242615  43.8157997  34.8030624  72.5825958
  44.3481522  35.8960037  71.6809006  67.0924377  57.2130432  43.7581940
  66.5204773  57.9369202  44.0133247  66.5200272  56.4458771  43.7529869
  49.7537193  54.5268745  44.4778099  48.9185867  54.5588531  44.9444580
  49.9903946  55.4451027  44.3471527  81.1025848  27.5011826  41.3170319
  81.3833847  28.4161167  41.3002090  81.7584839  27.0592213  41.8562012
  40.7319641   2.8941386  87.7969818  41.5301552   3.1319165  87.3251953
  40.3514595   3.7317402  88.0613174  32.3216171  65.3410034  41.9788246
  32.9371033  65.6917191  41.3350792  32.0330162  64.5082626  41.6053467
  77.2777786  48.2920837   6.4391012  76.6832047  47.9814835   5.7562857
  76.8127899  48.1202278   7.2579317   4.2847099  34.8315392  43.1449623
   4.0235820  33.9303284  42.9555931   5.0118413  34.7456894  43.7615166
   1.5730937  58.5382347  48.4182358   1.7677773  58.8818054  47.5462914
   2.0515058  59.1139336  49.0148277  64.4359970  63.0093155  24.5719948
  65.1703644  62.5273895  24.1916180  64.8137817  63.4688034  25.3219166
  79.2527695  63.0341187  19.1284294  79.8447189  63.2619438  19.8453159
  79.4633942  63.6602516  18.4357319  77.8154297  61.9508553  25.6712074
  77.6724625  61.5113678  24.8329697  78.0236969  61.2426186  26.2805195
  68.3037720  20.8320541   9.7901201  67.4307022  21.2077236   9.6767349
  68.3419800  20.1183949   9.1533594  55.3547363   3.8300042  67.8659286
  56.1953430   3.6105919  68.2677689  55.3450394   4.7867498  67.8380890
  77.1518250  54.3364029  53.2710686  77.8502655  54.1280556  53.8915558
  76.3913040  53.8543282  53.5957794  16.2797718  57.0761948  14.0520887
  16.8473396  57.8093109  13.8140965  15.8060284  56.8687592  13.2466269
  56.5616302  54.3840446  55.8133926  56.1661530  54.7189522  55.0086174
  56.8547440  53.5014191  55.5869217  65.8379135  68.5102005  42.7191353
  66.7814560  68.6231461  42.8340569  65.7525177  68.0344467  41.8929405
   4.7323422  15.1057186  80.7582169   5.0652199  15.3132191  81.6313553
   3.7936709  14.9686785  80.8860779  38.3797836  39.1546669  35.7900352
  38.5101318  38.4324379  36.4045525  39.2602692  39.3682709  35.4812393
  12.6670685  68.7939301   6.2615190  11.9873333  69.4611435   6.1665368
  12.1918859  68.0020523   6.5132270  60.7895012   9.8495235  45.6721992
  61.2782936  10.6699886  45.6077919  61.2603226   9.2445984  45.0989456
  14.6480370  56.7339897  11.9050083  14.9890556  56.6037788  11.0201445
  13.7460346  56.4163818  11.8632145  40.9272575  40.5046349   7.2754931
  41.2109795  40.3145943   8.1697073  41.5669785  40.0577469   6.7211642
   6.8073788  62.0908546  45.7143707   7.1308012  61.2157135  45.5004501
   6.2145185  61.9531403  46.4531403  65.0061417  23.1190586  52.0952225
  65.8240662  23.1225071  52.5924377  65.0031357  23.9573975  51.6332588
   1.8372896  55.5680389  48.5941811   1.8595076  56.5232391  48.5364456
   2.7579966  55.3063049  48.5891266  22.9612255  69.5218887  66.6103668
  23.3512096  69.7437439  65.7648315  22.0606079  69.2742157  66.4011383
  46.1376305  24.1990662  42.0019608  46.4404030  24.8400631  42.6451416
  46.3873825  24.5718288  41.1564407  57.4217491  18.9583054   5.9019938
  57.1758842  19.3842983   5.0808287  56.8159218  19.3187084   6.5495386
  42.7936630  12.0764914  77.4428024  43.3060532  12.4630785  76.7327042
  42.0373383  11.6843452  77.0064240  84.2494736   4.5983047  59.4161453
  84.4126434   5.5207558  59.2194405  84.4782181   4.1372161  58.6091118
  86.3160782   0.3959125  16.4211254  86.3207855  -0.5385443  16.6284904
  86.1431274   0.4316163  15.4803581  85.2830276  52.5878716  20.4502926
  85.2793732  53.4420242  20.8823147  84.5900650  52.6490479  19.7928047
  19.9517384   8.5934391  76.6927643  20.5830956   8.3476753  76.0165787
  20.3996868   8.4069214  77.5178604   1.7280886  14.3254175  30.7743855
   1.7588464  13.7232857  31.5178394   0.7963169  14.4078226  30.5713024
  84.5331955  23.4720287  54.0924759  84.5076065  22.7375507  53.4791908
  83.9483032  23.2106857  54.8036957   3.6545982  32.9485283  15.6622753
   2.7903328  32.5412407  15.7205153   4.2254601  32.3728180  16.1711025
  84.4884720  53.3534851  48.9608803  84.9029465  53.1007690  48.1359100
  83.8205490  52.6838799  49.1083374  35.4787025  69.6641693  45.7318764
  35.5537949  69.4867477  46.6694870  35.0789948  68.8733978  45.3697357
  71.1158752  63.8640137   7.0232663  70.9490356  63.8889046   7.9654856
  72.0574722  64.0160980   6.9426565  78.2205276  50.9970131  50.4562073
  78.0641251  51.8274422  50.9058266  79.1097031  51.0755234  50.1105995
  25.2708855   1.6230592  35.5370560  24.6192627   1.0418029  35.1449318
  24.7648945   2.1961637  36.1130371  75.5250549  59.5471840  84.6174240
  74.6242142  59.2275505  84.5669937  75.5714645  60.2379379  83.9564133
  76.4675369  30.1595383   4.1150432  76.6798477  30.1385899   3.1819210
  76.9239273  30.9325809   4.4472218  79.6104736  58.0951843   6.0938363
  79.3670349  57.1701622   6.0577321  80.1535492  58.2304153   5.3172956
  56.4740601  24.2365532  49.7469788  57.3938828  24.1260777  49.5062523
  56.2858734  25.1559219  49.5583572  22.0071812  39.3863640  69.7656097
  22.0924816  39.6706123  70.6756439  21.6016674  40.1298332  69.3194733
  10.5515213  56.7307739  68.5498199  10.5203314  57.4188614  69.2144928
  10.4524374  57.1956711  67.7189789  58.0042953  40.6329422  76.5606842
  58.4435730  41.2185478  75.9439697  58.6578751  39.9632225  76.7620316
  61.4628029  39.0250893  83.9813919  61.4953384  38.1469078  83.6019592
  60.5506058  39.2965240  83.8791809  84.9624405  33.1226997  26.5083714
  85.4472275  33.4747925  27.2548561  85.1995773  32.1956444  26.4845066
   6.8362541  65.2500153  51.4123917   7.4662819  65.5483551  52.0683556
   7.3746023  64.9823761  50.6675529   8.4758215   0.5912421  52.9222641
   8.2715473  -0.1181320  52.3129234   9.4308233   0.6538520  52.9054642
   6.0882807  46.8446770  69.2597961   5.8727283  47.7769432  69.2344131
   7.0422421  46.8213730  69.3349380  62.7737846  -0.2458615  39.0077324
  63.6698608   0.0876022  39.0533371  62.4005852   0.1753700  38.2334442
   2.3448825  67.8997803  68.9712601   1.7339393  68.5168839  69.3739624
   2.1485691  67.9445648  68.0354843  27.7033501  59.2431030  55.1088867
  27.2096901  58.4686775  54.8390694  27.2520962  59.5532532  55.8940010
  17.0465641   4.3222747  85.8634872  16.7303753   4.5082173  86.7476120
  16.4796104   3.6178224  85.5495758  15.2374268   2.5135067  84.9096603
  15.2817831   1.5586817  84.9603958  14.4242468   2.7398212  85.3610535
  14.3560963  50.5935249  13.3286562  13.9829664  50.7713547  12.4653006
  15.2100363  50.2022209  13.1445436  38.9309807  34.5488434  76.0393677
  39.2825394  35.4329262  75.9343414  39.5308228  33.9920273  75.5430069
  22.0712585  47.7665977  46.7783012  22.2474766  48.3494110  46.0397186
  22.2829380  48.2893410  47.5517082  11.7552385  39.2344055  42.0992889
  11.1645050  38.7622604  41.5124817  12.4204350  38.5893364  42.3393555
  30.7566185  33.4487343  78.9400024  30.5526772  33.8226585  78.0827866
  29.9529095  33.0003052  79.2030487  30.2294731  26.9470139  18.1816750
  30.9378452  26.3879890  17.8624058  29.7510719  27.2015438  17.3926373
  73.6369400  31.8236637   2.4325714  73.9902802  31.0959587   1.9208826
  72.7063293  31.8437614   2.2094097  15.9711008  55.7891808  34.1620941
  16.1685600  56.4372673  33.4859085  16.4307652  54.9990654  33.8780937
  50.2052116  67.9242401  67.8993912  49.7633896  68.3235931  68.6487503
  50.8399048  67.3224869  68.2883530  28.3342705  70.1830673  69.6084824
  28.4045525  69.9661407  70.5381241  27.7699432  69.5005341  69.2452698
  13.8772488  24.2322311  83.9910583  13.7343836  23.7014465  84.7746964
  14.8270254  24.3424854  83.9463272  76.5752106  41.1275787  27.2494888
  76.8390884  40.2626114  27.5632343  76.9587402  41.1923943  26.3748837
  44.9176254  35.1479645   4.2376242  45.1407242  34.9842644   5.1539545
  45.4786301  34.5497856   3.7439785  35.7198677   1.3727360  30.4378338
  35.5305748   1.4062440  31.3755302  36.0847092   0.4988758  30.2982178
   8.1895685  42.0779037  47.5080185   8.0698442  42.8434753  46.9460602
   9.0749950  42.1743011  47.8586731  38.2134171  12.9252844  71.3885193
  38.5401726  12.5209036  70.5848160  37.2996750  12.6454124  71.4431000
  33.0071869   5.0240760  76.0825424  32.4048843   5.4354544  75.4626770
  32.5486984   5.0604024  76.9220047  28.6638088  38.6696892   6.5296698
  29.1673775  38.6720963   5.7156391  28.1207142  37.8835182   6.4730191
  14.3003759  51.0753708  49.6157150  13.6909227  51.7820396  49.8288307
  14.5875731  51.2678185  48.7231255  75.6576614  14.4753990  38.5986900
  75.0413818  14.6181221  39.3170624  76.3113098  13.8763065  38.9593353
  50.1785240  69.6783218  75.5874023  50.7180367  68.9004135  75.4459152
  49.4467850  69.5762329  74.9788208  23.7229156  17.8478355  48.9175491
  24.6238499  17.9646530  49.2190514  23.6023140  16.8988132  48.8852310
  70.2837296  48.6646347   7.8200750  69.6435623  49.2715950   7.4485593
  70.5091553  49.0444679   8.6692772  20.5396767  19.7851105  10.0167360
  19.9149323  19.0784760   9.8536625  20.9910774  19.9033337   9.1809778
  61.5866051  43.4741974  24.4718609  62.1503830  43.2571526  25.2143402
  61.3688698  44.3976822  24.5983734  77.8783340  61.0945854   0.3510648
  78.0051804  61.5095634  -0.5021265  78.7377472  61.1407547   0.7700001
  62.7711334  55.4031868  26.3196945  62.8516045  55.1807671  25.3921776
  63.5082359  54.9579163  26.7375965  75.0507431  46.9831772  22.6310730
  75.2983170  46.7440300  21.7379055  74.0952072  47.0350113  22.6090145
  64.6839066  30.6096306  25.4162674  65.5342560  30.4556351  25.0046616
  64.8483505  31.3055000  26.0526314  27.4544907  61.8911896  34.1547432
  28.0835342  61.3117218  34.5845718  27.9799004  62.6308022  33.8495369
  52.1771202  39.8876610  23.2505341  53.0103264  39.5834198  22.8907700
  51.9066582  39.1919441  23.8497505  56.2995567  65.8618240  57.5646706
  56.4407692  64.9859009  57.9239120  57.1756287  66.2442017  57.5144539
  48.1579552  61.1476707  20.2825012  47.9495544  62.0744591  20.1647720
  48.7010078  61.1224899  21.0703430  70.6498489  21.7171345  22.7830067
  70.2298431  22.5321503  22.5080967  71.5468216  21.9712715  22.9999943
  47.4626274  47.9580002  23.0202160  46.6082458  47.5889130  22.7965221
  47.2858505  48.8823166  23.1951923  23.4326859  64.9030380  26.0249977
  24.1865902  65.4927750  26.0330372  23.2778683  64.7248459  25.0973606
  52.1367188  29.0199795   6.1156740  51.3713074  28.4992943   5.8722372
  51.7758369  29.8641567   6.3865232  52.6053696  21.1271706  34.3611641
  52.0155106  21.6192055  34.9323044  53.3682938  21.6959209  34.2577095
  68.1783905  23.9057770  57.0236893  67.6393204  24.3234081  57.6954117
  68.9759674  24.4341888  56.9939346  60.1166077  33.6699371  10.5165129
  60.9574089  33.4612122  10.1094227  59.8701935  32.8700142  10.9808779
  66.1540146  65.3152771  21.9139194  65.4452591  65.1068573  21.3052673
  66.4276123  64.4668350  22.2625198   6.1261549  30.6499100   7.6040716
   5.5301843  29.9455109   7.8587675   5.9779220  31.3360786   8.2547874
  78.3275681  69.8462982  88.3979721  79.2343674  69.6682968  88.1484451
  78.3520355  69.9216537  89.3518906  65.8342743  51.2453423  26.8351955
  66.2873459  50.7089195  27.4857388  64.9127045  51.2041473  27.0906391
  47.4074211  18.1710224  79.4444122  46.6884537  18.5419788  79.9559860
  47.5005341  18.7629108  78.6979294  31.1894360  60.8532867  79.3431854
  30.9623814  61.2586441  80.1800613  31.0990372  59.9133568  79.4999847
  60.8792191  49.2305794   6.8802900  60.5146179  48.7220078   6.1559601
  60.1655655  49.2881622   7.5155978  48.2987480  67.7586365  55.4223213
  48.7409821  68.5438232  55.7450294  48.9978371  67.2323914  55.0342903
  63.7674370  36.4206810   1.7438710  64.2018204  36.9679184   1.0895979
  63.9204559  36.8724747   2.5737503  58.3941422  31.6665020  67.1951065
  58.3253174  30.7296295  67.3788605  59.0552521  31.9833546  67.8105469
  40.5700607  28.7189255   3.4884984  41.2748756  28.9032345   4.1093831
  40.1521759  27.9277191   3.8284934  77.7359161  60.8317337  85.1129074
  77.8200302  61.3973618  84.3452988  76.8870468  60.4033127  85.0028534
  85.9364014  65.2866669  47.9950333  85.3722076  65.8834534  47.5033302
  86.2179794  65.7952652  48.7554779  62.1405830  69.8577423  62.0813675
  62.0498695  69.1126709  61.4873390  63.0106735  69.7526474  62.4662514
  16.6183071   9.7499104  11.6578417  17.1680183   9.1893291  12.2053785
  16.2012577   9.1479053  11.0414877  21.0988884  15.9219103  83.8361893
  20.4437866  15.2737188  84.0948792  21.1729774  15.8219576  82.8871078
  58.2170448   1.4324131  19.6489735  58.0544777   1.0713569  20.5204334
  58.7223816   2.2291863  19.8102760  78.1170197  26.6885738  88.2030258
  78.0647202  27.6133175  87.9614792  77.4222336  26.2688541  87.6957321
  50.8465424  11.1269588  78.0988693  50.9872169  10.5940161  78.8814392
  50.7333450  12.0170031  78.4323959  65.6446915  67.9103165  28.1304455
  66.0237732  67.4589157  28.8846111  66.2811737  67.7786942  27.4277401
  63.2169228  47.7494125  58.3969574  63.8469315  47.7099495  57.6774025
  63.4182777  48.5699425  58.8468704  61.7036858  15.6074219  75.5344162
  61.0204315  15.6734343  76.2015305  61.3946877  14.9219055  74.9421158
  36.6889229  58.8588982  88.4086914  36.2057838  58.3499146  89.0596466
  36.8828316  58.2329369  87.7109756  31.7765560  51.4775658  68.0487442
  31.4073162  51.3882141  67.1701660  32.7110138  51.6242104  67.9020538
  68.8310928   0.1752743   0.8333163  68.6182785   0.7795908   0.1221598
  69.4711304  -0.4263107   0.4529544  37.5934563   0.7788399  74.8708572
  38.5130768   0.8168547  74.6080170  37.1066017   0.9464996  74.0639496
  23.4645138  70.2495804  46.6903763  24.0496540  70.9565048  46.9625854
  23.4660015  69.6399002  47.4282951  40.1182480  28.4541340  17.9926777
  40.6554985  28.7643986  18.7216015  39.4392738  29.1216507  17.8944664
  20.4613190  61.6561699  25.2913589  19.9016056  60.8797569  25.3029346
  21.2896156  61.3488464  24.9229736  55.8255501  50.8103409  41.7051506
  55.3502846  50.9285507  42.5275726  55.1476364  50.8418198  41.0301094
  11.2164879  52.2227974  22.2358990  10.9607229  52.7255135  23.0092621
  12.0520153  51.8222771  22.4761295   5.8657742  41.8927536  26.9850082
   5.3562417  42.6966438  26.8831692   5.6298814  41.3616905  26.2243786
  21.9576473  25.5238647  85.6195984  22.0815449  26.2546730  86.2252426
  22.6743355  25.6096516  84.9909286  60.0470161  30.1258163  73.6418381
  60.1647949  29.8844910  72.7230759  60.8843384  30.5131607  73.8969650
  63.7964287  30.3667107  22.7590542  63.8314781  30.5526466  23.6973667
  64.1627884  29.4863567  22.6754856  19.2151318  27.8842564   5.7101102
  19.9756336  28.4160614   5.4754820  18.5082722  28.2210903   5.1595426
  85.4748459  47.7486763   2.5417824  85.0630722  48.5822334   2.7694969
  85.7887802  47.8733826   1.6461687  74.9446030  52.0753632   4.6009197
  74.7985535  51.1362724   4.7149601  74.2129898  52.4889183   5.0591197
  35.0924339  18.3071022   5.0810742  34.2402802  18.7424564   5.1042228
  34.8836098  17.3751526   5.0170727  10.2210102  38.6457367  76.9667664
   9.6270266  38.7916031  76.2304688  10.8761148  38.0351791  76.6287003
  79.0518036  71.2245102  12.1150312  78.9867401  70.4490891  12.6724567
  78.1681442  71.5924454  12.1124363   8.7914209  46.1518211  59.6733551
   8.4743214  45.4558144  59.0978050   9.3432102  46.6951103  59.1106834
  44.7390480  56.1956863  12.0064964  43.9727554  56.7393723  11.8236551
  44.9267311  55.7591019  11.1755924   9.7534733  55.6515388  15.6901512
   8.8788099  55.4627151  15.3502388   9.6248322  55.7667427  16.6316452
  34.9988823  60.9391327  71.2162476  35.3172646  60.7204895  72.0920715
  35.7875862  61.1697540  70.7253418   8.1981401  69.1320267  11.6952982
   9.0461283  69.5733643  11.6466312   8.4146109  68.2001801  11.7275162
  12.5473928  49.9608994  28.1432877  12.7491570  49.6102257  29.0107841
  12.0971804  49.2453003  27.6944485  16.7443523  33.2586823  74.3279190
  16.9165688  34.1994934  74.2898788  15.8372784  33.1931152  74.6265030
   9.9687757   8.7364998   9.8605242  10.2426758   9.5703859  10.2424183
   9.6153126   8.2397280  10.5984364  68.5028763  27.4357224  13.8993101
  69.2509460  27.5268593  13.3091249  68.6263123  28.1260395  14.5508165
  59.8065910  56.8740463  25.2825718  59.1642799  57.4224358  25.7330532
  59.9784393  56.1564255  25.8922634  71.5817947  62.1591644  80.2857666
  70.9556503  62.8730316  80.4064941  71.8799362  62.2525406  79.3809891
  67.8076096  21.6607323  21.6078796  67.8008881  20.7441998  21.3319168
  67.6120300  21.6303272  22.5443916  83.1025543  63.9201126  16.5237465
  82.3119812  64.2010193  16.0629578  83.7442322  63.7708206  15.8293486
  22.8857994  58.8026505  43.8143578  23.1892452  58.0009346  44.2402687
  23.6498451  59.3792458  43.8170776  46.9119263  33.2619781   3.2759221
  47.5211906  33.6399155   2.6417367  47.4263496  32.5991478   3.7366338
  86.3852692  23.4122143  75.6854706  87.2910995  23.2222080  75.4413223
  86.0157166  23.8455620  74.9161377  14.4021254  50.0143051  73.8556137
  13.6082897  49.4823456  73.8001480  14.6953707  50.1022263  72.9486847
  61.5182152  43.3682365  11.6627293  62.4125214  43.5775108  11.9322748
  61.2614250  42.6405792  12.2291260   8.5732384  34.6320496  66.3138733
   8.1607838  34.1226082  67.0114288   7.8403196  35.0103951  65.8281631
   8.9180069  60.6775093  67.8847122   9.7731390  61.0180244  67.6219788
   8.8340921  60.9253845  68.8054428  39.4734077   2.5564356  37.9817047
  40.0202827   1.7720765  37.9376602  39.5524445   2.9525659  37.1139107
  59.6349907  53.3500137  76.5407028  59.4995880  53.6935539  77.4238129
  60.5599136  53.1045494  76.5184021  12.1994963  46.8607712  82.3187561
  11.5993099  46.8952942  83.0636139  11.6326532  46.9332733  81.5508575
  42.6464729  42.1936455  60.1059074  41.7541504  42.4970818  60.2729912
  42.7722702  42.3254585  59.1662102  29.7774105  39.7422867  87.9462051
  28.9042377  39.4164467  88.1644440  29.9023590  39.4970169  87.0294418
  50.9723549   0.8898230  48.2792053  50.1250801   0.7570049  47.8540955
  51.1943321   0.0330533  48.6437607  10.7972250  58.3744850  59.4535332
  11.6564550  58.5157013  59.8510437  10.1772804  58.7290268  60.0908737
   7.1201501  68.0080490  31.1526718   8.0173101  68.0590057  31.4824276
   7.1869302  68.2718582  30.2349720  56.5011330   6.2222290   6.8208251
  56.1112785   6.0986910   7.6862631  56.6098900   7.1698041   6.7401729
   2.6030538  69.8781967  75.0090866   2.3619640  70.7993927  74.9116135
   3.5092180  69.8341827  74.7038651  53.6142082  62.1624336  31.5905380
  52.7195930  62.4719086  31.7323875  54.1060677  62.9500160  31.3581161
  52.2628899  46.0098534   6.1469026  52.0318718  45.4328156   6.8748384
  51.4402199  46.4382935   5.9105005  60.4134636  57.9061775  45.7683868
  60.2948990  57.0589409  45.3390045  59.7962837  58.4879837  45.3247414
  46.4808693  31.9854259  13.1186171  45.8329010  31.4086380  13.5232019
  46.8988228  32.4304810  13.8558226  62.9106827  37.4274521  12.9563951
  63.4396057  38.1599808  13.2724218  62.7564430  37.6244469  12.0324717
  55.1059189  38.9093170  26.3324642  54.6706886  39.7264252  26.0892811
  55.9687691  38.9661751  25.9219933  81.1481552  21.7031097  11.7558746
  81.6653061  21.6735573  10.9509420  80.9010849  20.7922096  11.9154024
   5.6402464  38.0105667  48.2627754   4.7428465  37.6919785  48.1657791
   5.6521425  38.8413696  47.7875290  26.4174004  65.5293503  48.9158897
  26.3901577  65.9491119  49.7757072  27.3089218  65.1884003  48.8439484
  84.9535599  64.9238663  74.8189545  85.7588806  64.5528793  74.4583206
  84.3550873  64.9676437  74.0732040  15.7818995  47.7235870  55.1129494
  16.2492027  46.8996544  54.9751244  15.0000315  47.6499367  54.5656929
  50.5336266  25.6277447  25.3987865  49.9516029  25.4861660  24.6521683
  51.2132111  26.2134094  25.0650311  83.1218567  25.8484745  32.7024841
  83.5489426  25.4347095  33.4525642  83.4637756  26.7424965  32.6953163
  45.3941040  50.2685623  52.4791145  44.5627518  49.8395233  52.6816254
  45.3453636  50.4547844  51.5414696  55.1987228   7.2020164  52.9177322
  55.3719940   7.4375219  52.0062790  54.7454758   7.9633865  53.2798271
  61.7012863  58.7266312  28.0624218  62.5474243  58.9981232  27.7066441
  61.2453079  59.5473785  28.2486744  69.4038467  25.0136986  75.4606781
  70.3517990  24.9001465  75.5293655  69.2891312  25.6457024  74.7509995
  83.0215149  23.5395622  15.7334652  82.5814667  22.7478104  16.0428524
  83.9416733  23.4067230  15.9612656  42.5223846  54.2771263  60.4991112
  41.9513206  54.8509941  59.9884300  42.6523972  53.5103836  59.9410439
  58.7860527   5.9230986  34.2249107  58.2861519   5.3073258  33.6890411
  58.9797745   5.4393868  35.0278587  20.3507042  31.7940655   0.0967617
  19.5164394  32.0913620   0.4598741  20.8430214  32.5992966  -0.0627792
  85.6416321  18.5969963  66.3164368  86.3574066  19.2039547  66.1280289
  84.8528214  19.0639496  66.0408325  82.9379807  52.8141632   3.0081472
  82.5069275  53.5833702   3.3806329  82.5226440  52.0712700   3.4461362
  13.0636702  64.2626572  62.2241707  12.4962378  65.0170517  62.3827591
  13.8350964  64.6297607  61.7924614  75.2849121  65.4840012  38.9877968
  75.8465652  64.7468033  38.7483902  74.4281845  65.0893784  39.1506538
  65.4290085  65.6820374  13.8238850  65.8582764  66.3436508  14.3663139
  64.5645218  65.5718231  14.2197943  57.5937958   6.1718478  42.0788765
  57.8744507   6.4061337  42.9635086  56.8291321   6.7241244  41.9160461
   6.8588185  37.3043213  60.1958160   6.9547377  38.0211372  59.5687523
   6.0327616  36.8847198  59.9554100  24.6317253  54.3738441  10.1977491
  23.9200630  54.4712181   9.5650673  25.4295197  54.4431190   9.6733866
  77.9526215  36.6165466   9.6077280  77.4004593  37.1694603   9.0548849
  77.3656006  35.9280357   9.9201231  48.5908623  43.1262627  71.5373840
  47.9536400  42.4147377  71.5999374  49.3131981  42.8512115  72.1020126
  48.5111771  35.0942955  41.6907158  47.6258125  35.3982735  41.4908295
  48.3841476  34.3827438  42.3182411  58.2002335   7.4017296  88.5583878
  57.7231979   7.4156733  87.7286377  57.6358299   6.9050436  89.1508255
  58.9477119  67.7530365   1.2960799  58.6446686  66.9090958   1.6309906
  59.7236443  67.5402832   0.7775283  60.2293663  12.3385782  26.2880611
  59.9304352  13.2416239  26.3947430  60.2452698  12.2018738  25.3408051
  59.6371002  20.9008102  58.4136963  59.7839355  21.8370361  58.2789726
  58.7052689  20.8319798  58.6214943  19.1861591  52.1602783  56.4589691
  18.8824596  51.2782288  56.2445183  18.5672188  52.4728737  57.1188393
  62.0640640  33.4022522   8.2903500  61.8067436  32.5887527   7.8564858
  62.0177193  34.0658226   7.6020503  50.0544739  69.1751328  19.0618973
  50.0335808  68.8719330  18.1542263  50.9228096  68.9254074  19.3779087
  23.9121380  60.6040840  76.8483047  23.0103645  60.9074936  76.7435303
  24.0785465  60.0738983  76.0689163  62.9031258  51.4410973  75.2064209
  62.5061188  51.3666992  74.3386154  63.1103020  52.3712997  75.2960739
  66.5315857  62.7951202  47.1281853  66.9048615  62.2021675  47.7803421
  66.1338196  62.2161789  46.4779282  20.7433605  16.5203476   1.3974847
  20.9089966  15.5777960   1.4173162  19.9568119  16.6365738   1.9304607
  85.8003693  30.0608749  20.3447056  86.3232269  30.1453590  21.1420231
  85.6557083  29.1192417  20.2518063   0.1746561  13.0583429  17.3396873
   0.6254945  12.3215399  17.7521172  -0.7431260  12.7886686  17.3052902
  81.5356750  66.4062424  19.4074039  80.9674759  67.0126572  18.9323826
  82.3749161  66.4560547  18.9497719  86.6199112  17.7505417  69.2498550
  87.3381958  17.4842014  68.6759567  85.8315887  17.4307575  68.8110809
  11.9298668  49.7791672  59.1927834  12.1859131  50.1768036  58.3605843
  11.0318155  50.0783768  59.3349342  65.1603394  58.9494171  44.9578209
  64.8967361  59.1052322  45.8647232  64.4039383  58.5191765  44.5590897
  37.5182190  60.2156906  69.9742661  37.5851059  60.4245224  69.0425186
  38.3243484  60.5630226  70.3560333  33.5065727  49.7368164  75.6539078
  33.9909935  50.3767662  75.1323395  32.9769363  50.2657433  76.2505264
  52.9234047  24.5583344  41.2390022  52.2887001  25.2546215  41.0699883
  53.6906815  24.8028965  40.7215996  62.3165665  65.4538116  35.1877060
  62.1890678  66.3919220  35.0465469  63.1816139  65.2717514  34.8205872
  39.4657936  69.1600418  53.1295853  39.1288795  69.9895325  53.4682236
  39.1438828  68.5015640  53.7452240  36.7414360  69.6995316  41.9689522
  37.4865570  69.4599915  41.4179115  36.7776146  69.0843048  42.7013588
  52.7755775  37.9884186  82.2619781  52.4109993  38.5568542  82.9403534
  52.9042282  37.1464233  82.6987000   5.7122684  33.4419518  33.8730507
   6.6376925  33.3030853  34.0743866   5.6876631  34.2920647  33.4338074
  69.0781631   8.5328388  10.2859707  68.8753510   9.4553127  10.4413490
  69.8973999   8.5477734   9.7911282  22.9530411  40.9227982  54.1674461
  23.5515099  40.3543930  54.6521912  23.3537025  41.0103989  53.3025589
   9.1884317  64.1931152  18.6875286   8.6237726  63.8128128  18.0146523
   9.6638288  64.8900986  18.2353783  49.9321632  61.4371910  22.5281143
  50.4800224  62.1873322  22.7591362  50.4504738  60.6742249  22.7839775
  41.0683899  11.8820219  81.7973938  40.6397095  12.6271906  81.3764572
  41.6687584  11.5442982  81.1327667  55.1203270  11.3574524   3.0587857
  55.3528595  11.2964926   3.9853086  54.4035873  11.9913683   3.0329330
  74.6957245  21.3305225  48.1773376  74.0126495  21.9629917  48.4001007
  74.3855438  20.9167309  47.3718605  23.0852146  40.8934784  20.9072647
  22.4169788  40.8193970  20.2259388  23.5784245  41.6801109  20.6744938
  22.0491695  41.9162483  36.5604477  21.7198620  42.7691956  36.2771301
  21.4471035  41.6452141  37.2534752  58.6404877  26.7120533  24.0877476
  58.2627373  26.2565517  24.8401146  59.2225189  27.3675861  24.4721298
  38.8570442  24.6260033  46.0990143  39.7006035  24.2073250  46.2703171
  38.8977242  25.4524441  46.5802345  16.1217613  32.3337135   5.9072099
  15.4901133  32.7600250   6.4864454  16.8148556  32.0278969   6.4922976
  85.8735962  66.9876328  38.9611740  85.3660049  66.2578659  39.3161926
  85.9829025  66.7748718  38.0343437  63.4723091  38.3227806  17.4646912
  62.8699303  37.6771889  17.0951176  63.2612724  38.3404274  18.3981705
  32.3509560   0.1015461  41.1132851  32.8009224   0.2916892  41.9364548
  33.0032120  -0.3578247  40.5843468  14.3786917  53.3689842  43.7566299
  13.7025824  53.5509758  43.1039543  15.1071949  53.0068703  43.2522621
  53.1958885  15.2757101  45.4887543  53.0616226  16.2158108  45.6088142
  53.9650307  15.0736542  46.0215073  61.4807549  13.2206974  58.8680000
  62.4323616  13.2583485  58.9642296  61.2943153  12.2988777  58.6898994
  59.7825127  53.7877541  12.0403423  60.1138916  54.4655609  12.6294069
  59.7135735  53.0064201  12.5889721  60.4843025  57.8786163  50.4093590
  60.4886703  58.8227386  50.2517281  60.5943909  57.7933922  51.3563805
  85.3263245  46.1892471  39.4445381  86.2549438  46.3909760  39.3295898
  85.1491928  46.3916397  40.3631744   3.6507542  51.6164932  79.2695236
   3.3680997  51.8385544  78.3823776   4.0819426  52.4091263  79.5889664
  77.9003983  50.6185913  74.6411743  77.1157532  51.1221390  74.4243774
  78.6248093  51.2238541  74.4826660  38.7338104  55.2310181  30.6112194
  38.2392464  54.6070671  30.0798798  39.1997910  55.7719994  29.9736958
  34.4193649  16.1291561  74.0585556  33.4663391  16.1048641  73.9726562
  34.5825119  16.7914467  74.7301178  43.0391350  49.7771568  87.2509460
  42.9002113  49.9536858  86.3204803  43.6338120  50.4693375  87.5398788
  75.2398453  34.9587898  33.2537079  75.5122910  35.4482651  32.4775505
  75.9604187  34.3506432  33.4185066  66.8582382  32.4420586  13.9766436
  66.8337631  31.6004887  14.4320469  66.2139282  32.9813499  14.4351797
  32.9919090  27.0304909  77.7695236  32.8117714  26.9560642  76.8323822
  33.9131279  27.2861290  77.8167801  54.1060638  51.2106056  51.1125679
  54.2571220  50.9268532  50.2109604  53.7767563  52.1055756  51.0300140
   5.5488963  49.2254906  65.6158295   6.1471896  48.5393715  65.3199997
   6.0729589  49.7590141  66.2132797  38.9563522  37.9140663  14.0537529
  38.2119560  38.5112000  14.1281662  39.4989738  38.1114311  14.8171921
  39.0737343   4.0953531   5.7123957  38.9501991   5.0348883   5.8474660
  39.9451904   4.0218601   5.3232980  10.1724644   1.5828360  38.9071083
  10.5207481   2.3127062  39.4191818  10.6734009   1.6017908  38.0916710
  80.5414047  38.3039970  29.0884647  80.2434158  39.2097702  29.0047531
  81.2292099  38.2161789  28.4285755  52.9749336  11.9941559  55.1136818
  53.6166611  12.6976347  55.2113266  52.8607941  11.9037008  54.1676254
  86.7764221  71.5991739  89.1368869  90.0000000  90.0000000  90.0000000
