QMMM reactant CHA#2 frame 43738
 55680
  28.4689312  47.9698219  38.2011871  27.5461445  47.9020920  37.7962456
  28.4209328  48.0075264  39.2093430  28.9997349  48.7454529  37.8313942
  29.1602650  46.7075691  37.8580208  28.8366013  46.4843102  36.8414116
  30.7047005  46.8696518  37.9386902  31.0590763  47.8248634  37.5512810
  30.9795818  46.7336349  38.9846573  31.4220028  45.6959686  37.2182655
  32.4991837  45.8485603  37.2852936  31.1758766  44.7471619  37.6950073
  31.0190239  45.4011116  35.4375877  31.8835926  46.7404976  34.6046753
  31.4786072  46.9675446  33.6185036  31.8288784  47.6109200  35.2584877
  32.9088974  46.3741531  34.5532837  28.6765480  45.5315437  38.7111588
  28.3933353  45.7048874  39.9045563  28.6973629  44.2932053  38.1104965
  28.7945328  44.1657219  37.1132965  28.3320732  43.0650024  38.7965965
  28.5821362  43.1160088  39.8562965  26.8463078  42.8029175  38.6787720
  26.5130653  42.0924683  39.4352875  26.4449940  43.7900238  38.9082718
  26.3296604  42.3424492  37.3403549  26.8268337  41.3967438  37.1245766
  26.6624699  43.0178108  36.5521736  24.5726566  42.0183067  37.2963600
  24.0766411  43.7640724  36.9815292  24.5291348  44.3080444  37.8106537
  22.9953041  43.9008980  36.9719276  24.4952717  44.0726776  36.0236092
  29.2073441  41.9050865  38.1425362  29.9615841  42.1248779  37.2124138
  28.8839703  40.6365013  38.5702629  28.0664864  40.4371109  39.1288872
  29.2088051  39.4501991  37.7938995  29.8056507  39.6862602  36.9129028
  30.1136303  38.5101852  38.6720810  29.5883579  38.1671791  39.5634460
  30.2730312  37.1711464  38.0082550  29.3029690  36.6764870  38.0571518
  30.5538502  37.2103462  36.9557800  30.9613743  36.5115433  38.5366554
  31.5138340  39.0002365  38.9082527  32.0146751  38.2360916  39.5026779
  32.0446243  39.1809998  37.9735413  31.5518303  40.2920952  39.7155533
  31.6227398  41.1340561  39.0269508  30.7589054  40.4127579  40.4536667
  32.5162506  40.3959274  40.2127609  27.9278450  38.7744598  37.1891937
  26.9240723  38.7230225  37.8115540  28.0880928  38.1596489  36.0001373
  29.0235291  38.3256187  35.6573410  27.0746269  37.4474869  35.2077980
  26.3485050  37.1240501  35.9536095  26.3923588  38.4895859  34.2174644
  27.1616135  39.0213585  33.6574974  25.7520351  37.9107170  33.5518799
  25.4428082  39.4355049  35.0082779  24.9569740  38.8587303  35.7952957
  26.0576878  40.2167015  35.4552155  24.3514462  40.1262550  34.0259476
  24.8421249  40.9648666  33.5319176  24.1308613  39.4618759  33.1904602
  23.1320133  40.4859619  34.6632690  22.7082634  39.7971153  35.2682686
  22.4239483  41.5658188  34.6409149  22.8311386  42.6770706  34.0485573
  22.2567158  43.5058250  34.1060410  23.7164536  42.7619286  33.5698929
  21.2549820  41.4997177  35.2112885  20.9273338  40.7032471  35.7389069
  20.5671520  42.2102127  35.0058899  27.7070980  36.2460289  34.5722885
  28.8901978  35.9310913  34.8548660  26.9189186  35.3933830  33.8783989
  25.9603043  35.6835213  33.7480850  27.4187584  34.1725311  33.1829720
  28.4880371  34.3427315  33.0573807  27.0151787  33.3364830  33.7541618
  26.8105564  34.0438156  31.7525826  25.8250618  34.6957893  31.3747692
  27.5750942  33.2234230  31.0297642  28.3492908  32.7395287  31.4616947
  27.3838177  33.0398293  29.5556412  26.3758259  33.3310204  29.2602348
  28.3919277  33.9428902  28.7236862  29.3368759  33.4000359  28.7456779
  27.8943501  34.1245308  27.2519093  27.6550121  33.1622124  26.7994022
  27.0518208  34.8115654  27.3308086  28.7203064  34.4951744  26.6448402
  28.8767700  35.2508316  29.3253937  28.0131302  35.8683815  29.5720921
  29.4235344  35.1058502  30.2571278  29.9224777  35.9929886  28.5247250
  29.5936394  36.3877754  27.5634270  30.3377075  36.8212166  29.0989418
  30.6876698  35.2907867  28.1938248  27.5323868  31.5450344  29.2192497
  28.2293224  30.7835007  29.8302727  26.7735424  31.0689926  28.2233410
  26.0451107  31.6582718  27.8462009  26.6770096  29.6709366  27.7654743
  27.3735580  29.0901756  28.3701515  25.2701893  29.1395168  27.9769745
  24.5581207  29.9643631  27.9507217  25.0308132  28.4642525  27.1555023
  25.0417957  28.6216164  29.4763451  25.1367722  29.4422855  30.1873875
  24.0228634  28.2934895  29.6817932  25.9059658  27.4499779  29.7976589
  26.8792782  27.8022194  30.1392555  25.4745350  26.9758911  30.6792545
  26.1428490  26.4129200  28.7568932  27.0482464  26.4905872  28.3160706
  25.1918373  25.5577602  28.3314590  24.0845737  25.4603024  29.0009670
  24.0577202  25.8639641  29.9264069  23.3580532  24.8495502  28.6556416
  25.3340130  24.9125862  27.1762161  24.5541115  24.3481140  26.8708858
  26.0969944  25.1101761  26.5446186  27.1353359  29.5949802  26.2617722
  27.0536594  30.5907421  25.4565830  27.5353832  28.3991032  25.8629341
  27.6240025  27.6724586  26.5588036  27.4665375  27.9153805  24.4319038
  26.5694141  28.2734413  23.9268703  28.3776131  28.2527027  23.9376812
  27.3485794  26.3914585  24.3978271  27.3760071  25.6903191  25.4153976
  27.2571335  25.8592834  23.1803989  27.2033768  26.4712391  22.3787003
  27.3996353  24.4936962  22.7856789  28.2321205  24.1584682  23.4043007
  26.1860161  23.6434174  23.1836758  26.3962345  22.6488476  22.7903214
  26.0742035  23.4681740  24.2536697  25.2193584  23.9292393  22.7689705
  27.7594891  24.2405357  21.2320671  27.3397713  24.9805565  20.3548241
  28.5423088  23.1488400  20.9168224  28.7230511  22.4393139  21.6125278
  28.8816566  22.7038422  19.5138054  28.0838928  23.0577850  18.8608150
  30.1618385  23.4371891  18.9970112  30.1764259  24.4598141  19.3740063
  31.3841343  22.7701035  19.5622807  31.3154259  22.6629620  20.6448269
  31.5347424  21.8504829  18.9968452  32.2821884  23.3739452  19.4320164
  30.2482185  23.4007359  17.6104870  30.7958374  24.1710262  17.4420605
  28.9440422  21.1838970  19.3320351  29.1473255  20.4841137  20.3213711
  28.9159412  20.7199497  18.0915966  28.8846970  21.4253674  17.3694401
  29.0464497  19.2533703  17.7068081  29.3485756  18.6399670  18.5556660
  27.7708244  18.6953316  17.1014614  28.0935917  17.7205620  16.7357464
  26.6574154  18.4241543  18.1722393  26.6911030  19.2546539  18.8773937
  25.6873112  18.4015598  17.6757641  26.8283806  17.5353813  18.7796631
  27.3489132  19.5703239  16.0345268  28.0877094  19.5916309  15.4218893
  30.2259274  18.9778194  16.7332783  30.4766502  19.7964592  15.8549919
  30.9156551  17.8734760  17.0131836  30.5727844  17.3614578  17.8134193
  32.0298004  17.2961159  16.1339493  32.2737350  18.0096951  15.3469296
  33.3471680  16.9489002  16.8565636  33.9607315  16.3098602  16.2215309
  34.2230949  18.1179028  17.1855125  35.1594429  17.7199841  17.5766792
  34.3507538  18.5522671  16.1939831  33.8278770  18.8690586  17.8693829
  33.0701065  16.0942955  18.1065350  32.3939018  15.2561531  17.9380989
  34.0196991  15.6311617  18.3746319  32.7607346  16.6889458  18.9660606
  31.4171925  15.9756956  15.5148602  30.4233913  15.3725471  16.0125618
  31.9972706  15.5575762  14.3665371  32.8106422  16.0050945  13.9687214
  31.4472351  14.3422737  13.6685610  30.4207706  14.2387228  14.0203381
  31.3436565  14.4453859  12.1114864  32.3332939  14.7190933  11.7456932
  30.8302174  13.5518417  11.7564363  30.5045605  15.6002235  11.6696882
  30.9914684  16.5278435  11.9705915  30.5904274  15.6693916  10.5852776
  29.1003494  15.4781990  12.0743465  28.5051689  14.3792419  12.0531321
  28.4912682  16.5197086  12.3884935  32.2637634  13.0777998  14.0766363
  31.8306427  11.8974495  13.8479385  33.4499550  13.2315817  14.6355333
  33.8157043  14.1485443  14.8488607  34.1764908  12.1576853  15.1336203
  33.4702339  11.3729239  15.4046383  35.0267372  11.6273746  13.9475861
  35.7083855  10.8811464  14.3557510  34.4474564  11.1177769  13.1776218
  35.8815460  12.7400684  13.2816458  35.2751045  13.3900862  12.6509266
  36.2515297  13.3780327  14.0842762  37.0354080  12.1762867  12.4842100
  37.8120117  11.8667374  13.1836119  36.5968094  11.3410378  11.9382305
  37.5907402  13.1997585  11.5871544  37.0083122  14.0232878  11.5354042
  38.7631874  13.1325178  11.0395784  39.5059204  12.0405712  11.0829172
  40.2912979  12.0035973  10.4489479  39.1409607  11.1968937  11.5013819
  39.1489601  14.1448603  10.3540602  40.0974197  14.0869570  10.0117559
  38.6920128  15.0252457  10.5443726  34.9706650  12.3831625  16.3900051
  35.3367157  13.5046692  16.7198372  35.0635567  11.3200960  17.1863461
  34.8570900  10.4734125  16.6758556  35.7249680  11.1683836  18.5118065
  35.5519638  12.0289211  19.1580601  35.1951256   9.9751759  19.3172112
  34.1066208  10.0132294  19.3598022  35.4599915   9.0302725  18.8427563
  35.7284431   9.7973080  20.7564411  36.0206871  10.8530941  21.3256893
  35.7958336   8.7049217  21.3057289  37.2424545  11.0144444  18.3428860
  37.7131119   9.8901377  18.1068573  37.9295120  12.1280880  18.1911621
  37.3782387  12.9607582  18.0399837  39.3804512  12.2357244  18.0483856
  39.8885002  11.5480289  18.7244473  39.7509232  12.0444403  16.5727673
  39.1235313  11.1859999  16.3328285  39.4251518  13.1044102  15.5608644
  39.7247620  12.8950834  14.5339718  38.3599663  13.3246355  15.6314716
  40.0757866  13.9552898  15.7628202  41.0970993  11.7758532  16.5140572
  41.5785217  12.5892639  16.3461361  39.8806114  13.6123075  18.4791393
  39.2265701  14.6090622  18.2900810  41.0779037  13.6608829  19.0694294
  41.5463562  12.7674103  19.1180878  41.5245705  14.7326412  19.8827019
  40.7314873  14.9083261  20.6095123  42.8025436  14.1816397  20.6402626
  42.4851189  13.6750708  21.5517063  43.3557854  13.4459562  20.0564861
  43.8011780  15.3047838  20.9736423  43.8291283  15.9495707  20.0952511
  43.4190025  15.9138317  21.7928505  45.1954269  14.7821188  21.3852673
  46.1988525  15.1555052  20.7384701  45.3509674  13.8573542  22.2772713
  41.6993141  16.0217915  19.0944576  41.1844788  17.1283321  19.4550915
  42.2828903  15.8868685  17.9237919  42.6362648  14.9860439  17.6344147
  42.4420700  17.0533676  16.9914780  43.0132027  17.7819633  17.5668526
  43.3473969  16.6306744  15.7983942  43.7806129  17.5432663  15.3889990
  44.1578979  16.1218128  16.3201675  42.7823143  15.7457714  14.7393188
  41.7070770  15.8792725  14.6204176  43.1305962  16.1678123  13.7966194
  43.1390648  14.2146397  14.9887009  43.7015152  13.5226450  14.1171312
  42.8614655  13.7534189  16.1481152  41.1890221  17.7687664  16.5327778
  41.1088676  18.9711075  16.2684383  40.0792122  17.0215950  16.4387817
  40.0113831  16.0998497  16.8460712  38.8127975  17.5878124  15.9494944
  39.0259743  18.3226986  15.1732225  38.0102425  16.5410805  15.2918644
  37.9638443  15.7244339  16.0123062  36.9971848  16.9367695  15.2194033
  38.4657135  16.0437374  13.9568148  39.5311737  15.8285894  13.8755598
  37.9398346  15.1449213  13.6348143  38.2331810  17.0369587  12.7951431
  37.8520737  18.1878757  13.0930023  38.2876930  16.5683365  11.6418123
  38.0769234  18.2906361  17.0500717  37.5696335  19.4290371  16.9224472
  38.0766640  17.6288052  18.2945957  38.6923752  16.8330994  18.3832016
  37.5192757  18.1833267  19.5944500  36.4761963  18.4191380  19.3835678
  37.6034050  17.1076965  20.6854439  38.6031609  16.6734257  20.6853409
  37.1999016  17.7401962  22.0301628  36.2975769  18.3438740  21.9327641
  36.9744797  16.9676876  22.7653580  37.9265900  18.4342346  22.4524765
  36.7420883  15.8782883  20.3261547  35.7525063  16.3265858  20.4147987
  36.9017601  15.4261503  19.3472900  36.8888397  14.6830940  21.2994881
  36.4981194  13.8333702  20.7396603  37.9643784  14.5495224  21.4155693
  36.4432144  14.7167387  22.2936649  38.1937103  19.5385818  19.9687023
  37.4993629  20.5092659  20.2757130  39.5332756  19.6579857  19.9962139
  39.9649734  18.7929306  19.7039490  40.2840118  20.8222485  20.3049126
  39.9594307  21.1657524  21.2871342  41.7848816  20.4308357  20.3707905
  42.0261459  19.8499146  19.4806080  42.3689613  21.3511124  20.3641682
  42.0606842  19.5705719  21.6520920  41.3189468  18.7718773  21.6558495
  43.4127808  18.9802837  21.6290436  43.4754868  18.3753700  20.7244701
  44.1387634  19.7894211  21.5493946  43.5730629  18.4158821  22.5476627
  41.9553375  20.2606411  22.9776478  40.9207573  20.5310326  23.1889172
  42.3067474  19.5439453  23.7199135  42.6470108  21.0994797  23.0553627
  40.0687675  21.9227772  19.2928944  39.7554245  23.0631275  19.7095261
  40.0462341  21.5622292  17.9974060  40.3083916  20.6261406  17.7233429
  39.7034378  22.5489311  16.9122581  40.4211540  23.3616142  17.0242233
  39.6465645  21.9880733  15.5296469  40.6339035  21.5902576  15.2951183
  38.8880005  21.2169323  15.3954077  39.5054665  23.0911331  14.5127010
  39.3571472  22.6433754  13.5300436  38.5823174  23.6191998  14.7515306
  40.6662903  24.1192455  14.3232126  41.0923080  24.7972450  15.3390017
  41.3706818  24.1153946  13.2095575  41.2947273  23.3424149  12.5639296
  42.0480080  24.8322067  12.9915829  38.4569740  23.1965084  17.1935368
  38.3285103  24.4064732  17.2800045  37.4358597  22.3824444  17.4375057
  37.5637703  21.3819675  17.3847141  36.0771065  22.7834492  17.6328754
  35.8990097  23.5047283  16.8352890  35.1126709  21.5671139  17.3701878
  35.5581207  20.9027290  16.6297379  35.0104446  21.0356140  18.3163147
  33.7136879  22.0447540  16.9090557  32.9039421  21.3209820  17.0016289
  33.3793983  22.9208603  17.4647427  33.6692047  22.4373970  15.4181051
  34.3220139  23.3022556  15.2999353  33.9269524  21.6065292  14.7613506
  32.2516747  22.8853149  14.9927177  31.5698795  22.0551853  15.1775084
  32.1590538  23.8218117  15.5427122  32.2284966  23.1434517  13.5542164
  32.7996445  23.9463978  13.3324881  32.6338501  22.3170738  13.1384077
  31.3341885  23.2501030  13.0971184  35.8561935  23.5285835  18.9970455
  35.1898308  24.5885124  18.9824467  36.4933014  23.0958652  20.0666046
  36.9574852  22.1988621  20.0710888  36.4564743  23.7727394  21.3941689
  35.3879852  23.8233299  21.6036243  37.1192093  23.0047836  22.5175362
  38.1851082  22.8259239  22.3762436  36.8024673  23.5015850  23.9401875
  37.4748535  23.1854630  24.7377224  36.7483482  24.5901165  23.9236679
  35.8267899  23.1697292  24.2951851  36.4708214  21.8199635  22.3760338
  36.7740936  21.4417191  21.5474453  37.0525932  25.1343212  21.2912521
  36.4174385  26.1282082  21.7033615  38.2049294  25.3577709  20.7149086
  38.8184700  24.5726109  20.5500088  38.7625389  26.6588497  20.3580341
  38.9735565  27.2045021  21.2777271  40.1199379  26.4246578  19.6695957
  40.6174545  25.7209911  20.3370037  39.9661636  25.9541264  18.6984882
  41.0247498  27.6952381  19.7255344  40.6171875  28.5344601  19.1618843
  41.1488075  28.0279732  20.7560654  42.4537544  27.5339146  19.2948074
  42.9342422  28.4911404  19.4971657  42.7682266  26.6935806  19.9137173
  42.5650635  27.1403332  17.7604542  43.5646019  26.7055798  17.7638435
  41.8414497  26.3567867  17.5356445  42.3403282  28.4044304  16.9853287
  41.4842300  28.9041042  17.1790237  43.1247368  28.9974804  17.2157650
  42.1735268  28.1735744  16.0163174  37.8329849  27.5896721  19.5057888
  37.6968956  28.7418213  19.8351841  37.2673302  27.1108589  18.3627739
  37.6573715  26.2291584  18.0618248  36.4550705  27.9931831  17.4511700
  37.0364189  28.8779049  17.1915531  35.9894791  27.1611519  16.2364254
  35.7046852  26.1613331  16.5640717  35.1789665  27.5906487  15.6476049
  37.1298981  26.8440666  15.2655649  37.5800209  27.7321491  14.8219452
  37.9751129  26.3289833  15.7220755  36.8111687  25.8273983  14.1710749
  35.9043045  25.0212536  14.2682047  37.6613579  25.8606358  13.1574125
  37.5419540  25.1761074  12.4244242  38.3558655  26.5939331  13.1517353
  35.1365662  28.4214668  18.1832161  34.6490250  29.5388927  18.0628643
  34.5364494  27.5273457  19.0212345  34.9961395  26.6359844  19.1406631
  33.3810120  27.9881401  19.8814697  32.6390533  28.4365101  19.2207432
  32.8026924  26.6921501  20.5921707  32.5868912  25.8930836  19.8829288
  33.6179581  26.3429394  21.2258072  31.5269909  27.0158825  21.3820877
  31.8058681  27.7969093  22.0894241  30.4100609  27.6039658  20.5097809
  30.1064548  26.8331089  19.8014736  29.5613632  28.0331268  21.0423546
  30.7536488  28.4984684  19.9902458  30.9823742  25.8129807  22.1008968
  31.6810684  25.1303749  22.5846138  30.3386135  26.1658249  22.9066105
  30.3766823  25.2090893  21.4252129  33.7154732  29.0579624  20.8901272
  32.9716873  30.0051708  21.0186443  34.8892136  28.9505978  21.5264816
  35.3440399  28.0490379  21.5056725  35.2100639  30.0050144  22.5065136
  34.3190956  30.2539196  23.0829849  36.3925438  29.6051617  23.3585606
  37.2764854  29.4382267  22.7430286  36.6137695  30.4470005  24.0146599
  36.2273407  28.2851620  24.2581806  35.6788445  27.4662476  23.7927418
  37.5093307  27.6585999  24.8648682  37.8852310  28.2718506  25.6838455
  37.3107719  26.6865253  25.3162518  38.2644730  27.5093994  24.0931187
  35.4209137  28.6830063  25.5128002  35.4281654  27.8958645  26.2667561
  35.8337936  29.6418304  25.8263054  34.3776398  28.8448601  25.2417145
  35.4911728  31.2461948  21.7062073  35.3913956  32.3518524  22.2695923
  36.0953827  31.0115719  20.5084095  36.3807755  30.0706844  20.2773666
  36.4759941  32.2156372  19.7075863  37.1942215  32.8494949  20.2276554
  37.2909737  31.7259979  18.4626465  38.1152420  31.1335506  18.8597431
  36.5690804  31.1686764  17.8656845  37.6378479  32.9386292  17.5831566
  36.6955643  33.2770309  17.1522388  38.0033569  33.7894211  18.1581802
  38.6194305  32.6104355  16.4549332  39.2164307  33.5490150  15.9634428
  38.9074631  31.4258728  16.1049881  35.2329063  33.0998001  19.4674492
  35.2375183  34.2671432  19.7265759  34.1794777  32.5208931  18.9888783
  34.2291718  31.5790520  18.6275444  32.8589096  33.1014328  18.6984367
  33.0196533  34.0346260  18.1586056  31.9372902  32.1560516  17.9276943
  32.4245300  31.6142693  17.1170349  31.7279701  31.3530560  18.6344318
  30.7364502  32.8092690  17.2767811  30.0554352  31.9686451  17.1438389
  30.2374039  33.4834023  17.9729137  31.0224876  33.4937248  15.9432774
  31.7448616  34.3009605  16.0642776  31.3773785  32.7492256  15.2306252
  29.6799812  34.0649261  15.4689121  28.9835339  33.2290573  15.4026985
  29.2316914  34.6504745  16.2715740  29.7888947  34.8650780  14.1784697
  30.3822842  35.6651268  14.3455334  30.0536633  34.2752037  13.4025497
  28.9204197  35.3004265  13.9022045  32.1328163  33.6481590  19.9512730
  31.5135326  34.7071877  19.8887863  32.1963081  33.0081329  21.1506004
  32.6970367  32.1311836  21.1322765  31.7182121  33.5507164  22.4803200
  30.7289448  33.9837418  22.3321800  31.7017097  32.4613380  23.5959530
  32.7321587  32.1063690  23.5793667  31.5636845  33.2358665  24.9405575
  32.4593124  33.8365974  25.0988979  30.7089100  33.9100838  24.9943428
  31.3466282  32.4817772  25.6970863  30.7774410  31.2099571  23.2600346
  29.7816906  31.4900017  23.6037750  30.8948631  31.0935249  22.1826515
  31.2368641  29.9208984  24.0455322  32.2665062  29.6618958  23.7988510
  31.1211987  30.1223488  25.1104927  30.5126686  29.1813316  23.7039452
  32.4721375  34.8251495  22.8451385  31.8848820  35.8092918  23.2654324
  33.7949944  34.6951828  22.7697010  34.2938042  33.8669281  22.4776669
  34.6355247  35.8720856  22.8794899  34.4960251  36.2687874  23.8851089
  36.1235733  35.4639053  22.8858967  36.3026848  34.8924637  21.9751415
  37.1311264  36.6412544  22.8380337  37.2067413  37.0227699  23.8562832
  38.1212616  36.2545204  22.5968533  36.7741051  37.4298706  22.1756706
  36.4731216  34.5709801  24.1162415  36.5495224  35.1927032  25.0082741
  35.6995125  33.8414764  24.3559494  37.8361130  33.7806091  23.9198399
  37.9300919  33.1872482  23.0103416  38.7017593  34.4429665  23.9264507
  37.9407997  33.0603905  24.7312737  34.2588959  37.0168953  21.8901787
  34.0454979  38.1700172  22.3459663  34.2096939  36.7552872  20.5428638
  34.6451950  35.9194145  20.1798897  33.7635536  37.7564545  19.5756855
  34.4209557  38.6068192  19.7568035  33.7954903  37.2232628  18.1199932
  34.6491127  36.5459328  18.0943737  32.9079018  36.6900749  17.7794075
  34.0768967  38.4731712  17.2226734  34.0045929  38.1475792  16.1849518
  33.3451157  39.2776642  17.2960854  35.5190773  38.9556084  17.4639931
  35.6276550  40.0358658  17.9997597  36.4974823  38.2588425  17.1126099
  32.3718567  38.3562622  19.9236889  32.1296234  39.5180588  19.6540985
  31.4284706  37.5374031  20.3269844  31.6734257  36.5577583  20.3071213
  30.0659904  37.9063644  20.4418640  29.8100147  38.6437988  19.6810951
  29.0844917  36.7136536  20.2022533  29.3945560  35.8587646  20.8031902
  28.0876236  37.0820770  20.4443665  28.9511356  36.2580223  18.7107315
  29.8557472  35.8459129  18.2635803  28.1931076  35.4747887  18.7173557
  28.4342747  37.3540001  17.7788506  27.2478218  37.3400421  17.4054661
  29.2979813  38.1965675  17.4236832  29.8341503  38.6684456  21.8186932
  28.9276142  39.4969864  21.8334751  30.6433220  38.4441833  22.8774147
  31.3380585  37.7129250  22.9293728  30.5588589  39.1962242  24.1117325
  29.6483326  39.7919617  24.1760464  30.4938545  38.2635574  25.2476559
  31.4006710  37.6664352  25.3437290  30.4340057  38.8613358  26.1571503
  29.1737366  37.4598846  25.1010361  28.0971184  37.8359833  25.5471172
  29.3574753  36.2174263  24.6064339  28.5186348  35.6832275  24.4301453
  30.2456722  36.0035324  24.1757870  31.6445141  40.2507515  24.3548908
  31.4675274  40.9803467  25.3395710  32.7430000  40.2440224  23.6016426
  32.8990593  39.4659157  22.9769039  33.9343452  40.9867859  23.8385525
  34.6634750  40.7124062  23.0761967  33.6921158  42.4776001  23.6137428
  32.9636879  42.8392563  24.3394794  34.6035233  43.0673180  23.7121048
  33.1153030  42.8449211  22.2373753  33.5319328  42.3544197  21.0125751
  34.3317070  41.7513809  20.8829384  32.8551674  43.0138435  20.0427704
  33.1180916  43.0430565  18.9956703  31.9651699  43.8496399  20.5842609
  31.4382725  44.5054512  20.0253429  32.2204895  43.8619995  21.9380875
  31.8653812  44.6546326  22.5799809  34.7429161  40.6005554  25.1079597
  35.6089897  41.3680077  25.5100422  34.4545975  39.4772720  25.8040295
  33.7105370  38.9462433  25.3745060  35.0944710  39.0227966  27.0271988
  34.7413673  39.6347923  27.8571911  34.7076874  37.5378113  27.3586922
  35.3670540  36.8696556  26.8046989  34.9709702  37.3079262  28.8406219
  34.7255249  36.2817268  29.1140652  36.0490799  37.3852501  28.9813576
  34.5869064  38.1739883  29.3796177  33.3264046  37.3499641  27.1572666
  32.8496017  37.8178864  27.8466930  36.6243286  39.1076279  27.0439587
  37.1979752  38.5911789  26.0793896  37.2704659  39.6830330  28.0460663
  36.7506027  40.1823578  28.7535381  38.7090378  39.4397469  28.2907906
  39.1210594  38.8673210  27.4597225  39.5865173  40.7213020  28.4864540
  40.6130600  40.3571281  28.5276031  39.5747871  41.3013344  27.5636730
  39.2208862  41.5992966  29.7193489  38.2226944  41.9987984  29.5401516
  39.2624741  41.2324333  30.7449131  40.2216644  42.8365479  29.7774715
  41.2688675  42.5504417  29.6794090  39.8483696  43.3876534  28.9143181
  40.2142715  43.6224823  31.0721226  40.4166718  42.9199181  31.8805408
  40.9936028  44.3829536  31.0228577  38.8129883  44.2702446  31.2276363
  38.6392136  44.8336143  30.4075661  38.1094284  43.5535164  31.3344460
  38.7617798  44.8277168  32.0682945  38.9590034  38.4810829  29.4583759
  38.2330360  38.5703201  30.4998913  39.9734650  37.5980263  29.3600349
  41.0530167  37.4966660  28.3165550  41.5194168  38.4583664  28.1027756
  40.7270012  37.2306061  27.3110523  42.1268845  36.5395432  28.9060841
  42.8457909  37.1257935  29.4784336  42.6838341  36.0328064  28.1179695
  41.3012009  35.6648521  29.8629265  41.9568214  35.2682152  30.6381321
  40.8222160  34.8648071  29.2984753  40.1637917  36.5342064  30.3947010
  39.3379517  35.8236427  30.4291592  40.4586525  37.0244217  31.8560505
  39.8975563  36.4296494  32.7448807  41.0340843  38.1716080  32.0952759
  41.3675232  38.6983376  31.3006229  41.3872223  38.6482887  33.4815941
  41.7571411  37.7181244  33.9129410  42.5353813  39.6856041  33.5491180
  42.8309898  39.7834854  34.5936928  43.4463501  39.2135086  33.1811829
  42.2661400  40.9876137  32.7447624  41.1923409  41.1430016  32.6402702
  42.6188850  41.7982330  33.3823853  42.9080582  41.0548058  31.3848019
  42.8605804  39.9936790  30.6964741  43.5828896  42.0546608  31.0838356
  40.0853424  39.1484261  34.1666565  40.1466026  39.4143257  35.4115372
  38.9195099  39.1688728  33.4980774  38.9010887  38.9242249  32.5183258
  37.6150208  39.5374794  34.0963058  37.7313881  40.0688324  35.0408821
  36.7719574  40.3152924  33.0570145  36.6269798  39.6132278  32.2359238
  35.7806511  40.4467583  33.4907608  37.3599815  41.6904068  32.6584206
  38.1727180  42.2711220  33.4376068  36.9311256  42.2567978  31.6322498
  36.7035561  38.2878456  34.4115295  35.6118774  38.3801498  34.9913101
  37.1493492  37.0808563  33.9789162  37.9768791  37.1523209  33.4043007
  36.4645500  35.7858086  34.1223412  35.4019623  35.9929962  33.9955177
  36.9117775  34.7765274  33.0356789  37.9597092  34.5431519  33.2240143
  36.0902901  33.4319115  32.9626846  35.0327072  33.6529465  32.8186035
  36.4825401  32.8600235  32.1217422  36.1950798  32.8472099  33.8766022
  36.7831383  35.4069290  31.6517372  35.7867393  35.6411324  31.2769852
  37.2895470  36.3703384  31.5926628  37.2009850  34.8044701  30.8451748
  36.6608505  35.2341690  35.5098877  37.7803726  34.9965172  35.8847351
  35.5823936  34.9883766  36.1808281  34.6953773  35.3886223  35.9104538
  35.6855469  34.3865814  37.5095177  36.3979874  34.9890823  38.0730209
  34.3170929  34.2437286  38.2281227  33.6721039  33.5358887  37.7075005
  34.4531059  33.7813873  39.6976814  33.5083275  33.6651573  40.2286987
  34.8181915  32.7548332  39.6660881  35.1908417  34.3778305  40.2344284
  33.6504707  35.6120567  38.2891083  34.3398018  36.4039612  38.5820465
  33.3047523  35.8785553  37.2903328  32.7852211  35.4073792  38.9196243
  36.2348328  33.0013504  37.4026184  37.1397171  32.6525650  38.1774216
  35.6713600  32.1687012  36.4801369  34.9315491  32.4527779  35.8539734
  36.1065979  30.8123741  36.2327690  37.1919136  30.7174301  36.1982727
  35.7219009  29.9327774  37.4978333  36.1236382  28.9416332  37.2872620
  36.3555717  30.0713940  38.3738174  34.2008553  29.7045345  37.9083481
  33.6305809  30.4371014  37.3371773  33.9939728  28.6906853  37.5657005
  33.8401718  29.9233208  39.3530769  34.6729851  29.9927979  40.2728615
  32.5765305  29.9086113  39.6415024  32.4240913  30.0958633  40.6222191
  31.8266640  29.8679428  38.9661179  35.3273354  30.2311592  34.9780159
  34.3566551  30.8919754  34.5629005  35.6697960  29.0154114  34.4543495
  36.5707588  28.6614628  34.7425957  34.9462318  28.2159386  33.4051208
  33.9671860  28.5679855  33.0801010  35.8060875  28.3525486  32.1507072
  35.9311180  29.4180241  31.9577599  36.8261948  28.0561028  32.3948517
  35.2874107  27.6098957  30.9294567  35.2137146  26.5391216  31.1194897
  34.3408356  28.0345001  30.5950851  36.3420029  27.6078110  29.4709625
  35.8592796  29.2028255  28.7110195  35.7738152  29.9822350  29.4681931
  36.6510506  29.2862415  27.9665470  34.8824768  28.9462814  28.3009701
  34.7449341  26.7530460  33.7784081  35.3557777  26.2537441  34.7520981
  33.7736855  26.0769997  33.1498184  33.0650635  26.6173630  32.6744614
  33.2854500  24.6554794  33.3224945  34.0503769  23.9893284  33.7215347
  32.1467857  24.5824852  34.3346176  31.3030739  25.1593208  33.9557838
  31.8211575  23.5430489  34.3751030  32.5231438  25.0747433  35.7505341
  32.9449730  26.0797901  35.7444191  31.2849407  25.1072292  36.7008057
  30.5037766  25.7496891  36.2944412  30.9511223  24.0768280  36.8230209
  31.5998802  25.4854202  37.6733704  33.5335999  24.1887703  36.4198265
  34.4138832  24.0667801  35.7887077  33.8298454  24.6217461  37.3752670
  33.1561432  23.1923294  36.6494904  32.8147316  24.0690136  31.9549580
  32.0295715  24.5565968  31.1812725  33.5220108  23.0068703  31.6070766
  34.2314835  22.7168179  32.2648163  33.4462776  22.2827587  30.3488235
  33.0026093  22.9403343  29.6012573  34.8421555  21.8491211  29.8440590
  35.3122711  21.4879818  30.7587547  34.7140694  21.0880852  29.0743065
  35.5299492  22.9899273  29.2164898  35.3580818  23.8981190  29.7942085
  37.0722847  22.6992874  29.2178497  37.4766960  22.4332790  30.1944752
  37.2229156  21.8131580  28.6012554  37.5584564  23.5938148  28.8285446
  35.1488609  23.2370186  27.7044392  35.7693634  23.9885654  27.2163200
  35.2614708  22.2588806  27.2368202  34.0796127  23.4443874  27.6619797
  32.6233788  21.0058212  30.4917641  32.4850464  20.5212116  31.6198940
  32.1950455  20.4430656  29.3893242  32.3643417  20.8839283  28.4965324
  31.6235638  19.1147079  29.2822971  32.2520790  18.4322624  29.8544292
  30.2681217  19.0261822  29.9492893  30.3508568  19.3809643  30.9766083
  29.5467758  19.6460361  29.4168015  29.9010830  17.6677189  30.0316582
  30.3918362  17.3011551  30.7708435  31.7216110  18.5799713  27.7900791
  31.8400021  19.3788128  26.8848667  31.6097355  17.2938862  27.6879444
  31.5066185  16.8298607  28.5790958  31.2564182  16.5846157  26.5125809
  30.7307510  17.2276001  25.8066463  32.5567513  16.1828041  25.7688274
  33.1739845  17.0339985  25.4814396  33.3088303  15.6410236  26.3423691
  32.3145103  15.6339617  24.8587723  30.3132915  15.4052868  26.7471237
  30.3445644  14.8037844  27.8131733  29.6325760  14.9954491  25.6646900
  29.7124729  15.6247196  24.8787289  28.6467953  14.0203352  25.6969051
  27.9756947  14.4228897  26.4556370  27.8361588  13.9502096  24.3907719
  27.3030720  13.0004625  24.3472004  26.8315887  15.1014013  24.3506413
  26.1596279  15.0610123  25.2079258  27.1951370  16.1279888  24.3958912
  26.2327251  15.0781403  23.4401894  28.6642780  13.9909029  23.2780285
  28.7656727  13.0937977  22.9516506  29.2398109  12.6809130  26.1390553
  30.4402561  12.4779501  25.9687214  28.4681225  11.7666340  26.6849785
  27.0215015  11.8333740  26.9941978  26.3941460  11.4743042  26.1783581
  26.6564026  12.8180408  27.2861595  26.9111671  10.9265175  28.2526093
  25.8790283  10.6742077  28.4957752  27.2891598  11.4222260  29.1467533
  27.7306976   9.7109022  27.7776222  27.0911655   9.1512489  27.0950623
  28.0428123   9.1068153  28.6295395  28.9161301  10.4556675  27.1202049
  29.6638832  10.6603708  27.8864059  29.5013905   9.5288277  26.0559502
  30.0886860   8.5269089  26.3968258  29.3929329   9.9266224  24.7635384
  28.9876099  10.8025751  24.4660130  30.0998516   9.1949120  23.7136078
  30.2430782   8.1832695  24.0932999  29.2182465   9.2191305  22.4057350
  29.7365055   8.5791473  21.6916409  28.2811089   8.7512426  22.7073288
  28.8974342  10.5334072  21.8561287  28.2696095  10.4740334  20.7843838
  29.1896362  11.5826511  22.4465561  31.6023693   9.6098518  23.3358078
  32.5051956   8.8131332  23.0011387  31.9565811  10.9219551  23.5164165
  31.2146835  11.5082150  23.8713665  33.3162537  11.4156256  23.2193661
  33.6314468  10.9284201  22.2966614  33.2694740  12.9427013  23.0603580
  32.9206352  13.4510365  23.9592514  34.2989540  13.2410488  22.8622208
  32.4654160  13.3277283  21.8041286  31.5122700  12.7990036  21.7961540
  32.2374954  14.8709927  21.8139801  33.2192841  15.3355751  21.9054031
  31.6973610  15.1830235  20.9201145  31.6762543  15.2692785  22.6592484
  33.2755661  13.1288481  20.4457130  33.6462975  12.1259518  20.2339077
  32.6491470  13.4822884  19.6267014  34.2235870  13.6605883  20.5270710
  34.2045364  11.1162958  24.3933601  33.8607788  11.4407330  25.5352020
  35.4912987  10.8923216  24.0997620  35.6086044  10.8294058  23.0985718
  36.5888023  10.3658819  24.9822769  36.4287415  10.8343887  25.9533539
  36.2712746   8.7900267  25.0943604  36.1068077   8.2481918  24.1629791
  37.0505409   8.3860092  25.7405891  35.0738373   8.5094833  25.9459858
  34.8239098   9.1728096  27.1069889  35.5808716   9.6036186  27.6183701
  33.5438728   8.9541683  27.4095097  33.0612640   9.2912712  28.3149643
  33.0045090   8.1608486  26.4687538  32.0334053   7.8859191  26.4303894
  33.9487839   7.8629684  25.5090809  33.8992882   7.3671675  24.5508881
  38.0242310  10.6484938  24.5685005  38.8852654  10.2160034  25.2919788
  38.2447739  11.2427959  23.3708858  37.4347000  11.5455446  22.8491325
  39.6888504  11.3256569  22.9420567  40.1612053  10.3453627  22.8788033
  39.6208839  11.6980715  21.4475269  39.1524353  10.8823376  20.8968620
  39.2310753  12.7007904  21.2722893  40.6547928  11.7401905  21.1049500
  40.5825424  12.3042002  23.7645073  41.7600288  12.0310316  23.9879417
  39.9885788  13.3950500  24.3501606  39.0133095  13.5933456  24.1780300
  40.7537117  14.4191084  25.1154041  41.6011314  13.9196959  25.5850449
  41.3977089  15.4966545  24.1450710  41.7170067  14.8647346  23.3163223
  40.3150215  16.5052700  23.5737572  40.7522354  17.1717663  22.8302994
  39.4681053  15.9457083  23.1766186  39.8711662  17.1616573  24.3222599
  42.6404457  16.0892220  24.7814102  42.2961578  16.8818855  25.4456768
  43.2832069  15.3123455  25.1954422  43.3143387  16.5240517  24.0432415
  39.9062157  15.1373510  26.1457310  38.6629868  14.9499426  26.1836758
  40.6476212  15.8655338  27.0541134  41.6550865  15.7995920  27.0265522
  40.0627213  16.8333969  28.0476665  39.0749245  16.5048370  28.3707867
  40.8806152  16.9716434  29.3715820  41.9193153  16.8300915  29.0729790
  40.7779579  17.9730740  29.7895527  40.3611259  16.0986900  30.5027771
  39.2853775  16.4588604  31.2920265  38.8328323  17.4293251  31.1512966
  38.7385635  15.6993694  32.3201218  37.8810997  16.0511589  32.8745613
  39.4367981  14.4732189  32.6297493  39.0148926  13.8966560  33.4396706
  40.4988976  14.0168209  31.8382587  41.0034676  13.0844612  32.0444641
  40.9723167  14.8561478  30.8134022  41.8858337  14.5859756  30.3045864
  40.0271568  18.1380062  27.3410263  41.0988731  18.7695427  27.0693951
  38.8411140  18.7043457  27.0917225  37.4807892  18.1637897  27.3179264
  37.2599869  18.5270138  28.3216267  37.5511551  17.0877380  27.1589947
  36.5776482  18.7717838  26.2881355  35.5547943  18.9361897  26.6270256
  36.5150185  18.2133713  25.3541355  37.2492218  20.0652237  25.8793926
  36.8603859  20.7355137  26.6459579  36.9595032  20.4374180  24.8967247
  38.7587357  19.8884220  26.1426220  39.3153801  19.5519466  25.2679615
  39.4063988  21.1849632  26.6646137  39.9034996  21.9949760  25.8568363
  39.6981087  21.2847824  27.9451561  39.3507843  20.5534554  28.5489998
  40.4100533  22.4592171  28.5055923  39.7792587  23.3430843  28.4108562
  40.6364784  22.2044601  29.9757862  40.7289619  21.1534767  30.2496033
  41.5191917  22.6993103  30.3808079  39.7541122  22.5305691  30.5264091
  41.7596588  22.8125515  27.8746452  42.1311378  24.0467834  27.9217739
  42.4773674  21.9467049  27.1639194  42.1491127  21.0013485  27.3004837
  43.6938324  22.2878380  26.4104710  44.3864365  22.7187824  27.1334381
  44.3365250  20.9142342  26.0205040  44.3863869  20.2099380  26.8509140
  43.7310829  20.4151821  25.2638741  45.7632904  21.0543747  25.5782070
  45.7374840  21.5492878  24.6073856  46.2757072  21.4921741  26.4348660
  46.3518448  19.6638069  25.3353977  46.2665901  18.9558353  26.1597824
  45.8809280  19.2322464  24.4521656  47.8101387  19.8671627  25.0569324
  47.9437752  20.6369362  24.2968731  48.2433205  20.1539440  26.0151653
  48.5636711  18.6515503  24.5542526  48.2004051  18.2970543  23.6810551
  49.5265656  18.9361362  24.4449291  48.6300049  18.0075798  25.3294964
  43.4841995  23.3037243  25.2011948  44.4146614  24.0461903  24.9537354
  42.3377724  23.2684383  24.5618591  41.6354904  22.5455990  24.6282539
  42.0438042  24.3344193  23.5576801  42.8613434  24.3611660  22.8372555
  40.8278847  23.7675228  22.8043766  40.2894821  24.4967251  22.1989918
  41.1990852  23.0846424  22.0401878  40.1364822  23.2589397  23.4762440
  41.8108521  25.6817818  24.2225952  42.0626450  26.5649738  23.4919205
  41.4090042  25.8786392  25.4497967  41.0359497  25.0708427  25.9277058
  41.1748543  27.0719318  26.1320438  40.4910431  27.6407433  25.5019913
  40.6398315  26.9550667  27.5400333  41.2483902  26.2932777  28.1563053
  40.2593956  28.2152481  28.2212143  39.7943687  28.9546909  27.5692387
  39.8602600  28.0075073  29.2140064  41.1986237  28.7214317  28.4442158
  39.2875977  26.2606564  27.5272064  38.5942535  26.9226456  27.0084076
  39.3323250  25.3143806  26.9880733  38.8804703  25.9996033  28.5040379
  42.4762688  27.8203773  26.2583790  42.5456123  29.0366535  26.1299553
  43.5422249  27.0558777  26.4792824  43.4004936  26.0689449  26.6404514
  44.8932381  27.5928230  26.6936016  44.8824501  28.4354591  27.3849411
  45.7361298  26.5288963  27.4792347  45.8139267  25.6541042  26.8336430
  46.6823235  27.0548935  27.6063080  45.1703758  26.0572472  28.7500362
  44.7255096  26.8939095  29.2887287  44.2605400  25.4632225  28.6638203
  46.2847672  25.4835873  29.5740280  47.1906891  26.0871105  29.6303101
  45.8467369  25.3857327  30.5673332  46.5644493  24.1125183  29.2570038
  47.4468536  24.0309772  28.7724304  45.7444496  23.0614605  29.4388905
  44.5979538  23.1153355  29.9868507  44.1825829  22.2196007  30.1995239
  44.2488403  24.0182476  30.2748909  46.1570129  21.8845520  29.1257515
  45.5839424  21.0600395  29.2347240  46.9396400  21.6974812  28.5153389
  45.5262756  28.2147579  25.4651814  46.5555077  28.8342438  25.5511017
  45.0308800  28.0300083  24.2360382  44.3405724  27.3323250  23.9976864
  45.6024437  28.6012363  23.0592880  46.6858711  28.4954567  23.1149426
  45.0022850  28.0006046  21.7518444  43.9235802  28.1565609  21.7648125
  45.3635216  28.5378895  20.8749504  45.3144875  26.4966660  21.5227623
  44.7575531  25.9683800  22.2966099  44.9543228  26.2031059  20.5367584
  46.7880821  26.1829834  21.5914993  47.6109390  27.0942135  21.3237457
  47.1436157  25.0152855  21.9338818  45.2493134  30.0815086  22.9658775
  46.0050659  30.8777180  22.4022427  44.1969414  30.5612488  23.5557899
  43.6022530  29.9089069  24.0466042  43.9103317  31.9993153  23.5156593
  44.1444359  32.3225632  22.5013580  42.3836937  32.1587944  23.6656322
  42.2224007  32.0195160  24.7345982  42.2011909  33.2078972  23.4328632
  41.4850922  31.1561584  22.8821640  41.9638901  30.1788483  22.8211193
  40.0979042  30.8725758  23.5308781  39.6943436  31.8336430  23.8496189
  39.5571289  30.2941875  22.7817917  40.2681580  30.2900505  24.4362946
  41.2481956  31.7401943  21.4595051  42.1902771  31.6929150  20.9132824
  40.5136642  31.1146355  20.9523144  40.9615517  32.7918282  21.4603233
  44.7835960  32.8353004  24.4772015  45.2225876  32.4263420  25.5307999
  45.0743980  34.0561447  24.0973434  44.5733795  34.2914581  23.2525291
  45.9988251  35.0197678  24.6891861  47.0004196  34.5933609  24.7447090
  46.1554375  36.3687096  23.9600105  45.2051926  36.9025955  23.9497890
  46.9041481  37.0051308  24.4317112  46.4417534  36.1651535  22.5804729
  46.8858604  36.9303970  22.2079525  45.6671371  35.3415833  26.1624832
  44.7223320  36.1053352  26.3675213  46.4216843  34.8169365  27.1678543
  47.2480011  34.3048019  26.8939571  46.1745148  35.0413742  28.6518307
  47.1052246  34.9663887  29.2142029  45.8298454  36.0570412  28.8460579
  45.0631065  34.1392860  29.2289066  44.8385124  34.2841911  30.4188404
  44.4502029  33.3531799  28.3831654  44.7807426  33.2590179  27.4334393
  43.2975616  32.4889374  28.8333549  42.6757202  33.1381683  29.4497261
  42.4456978  32.1629333  27.5765228  43.1595192  31.6961403  26.8978004
  41.7072411  31.3724575  27.7104225  41.5867348  33.2484589  26.9547749
  41.9821053  34.2166405  26.1235485  43.0136185  34.3019524  25.8151627
  40.9662018  35.1835670  25.9445076  40.9510956  35.9841652  25.3289452
  39.8405838  34.7928658  26.6443787  38.5667877  35.2410316  26.8195724
  38.2690201  36.0951653  26.2294922  37.5995026  34.5918274  27.5734386
  36.6051216  34.9885483  27.7156506  37.8656769  33.3090630  28.0418243
  37.0808296  32.7007637  28.4665451  39.1465607  32.8013725  27.9214458
  39.3589478  31.8146381  28.3056965  40.1276817  33.5458221  27.2623768
  43.6004448  31.2139263  29.6486034  42.7340317  30.7168026  30.3579235
  44.8722382  30.7802486  29.5896511  45.3755646  31.3422508  28.9181499
  45.5460205  29.7581539  30.4324398  45.0152321  28.8066998  30.3991508
  46.9867401  29.4598732  29.9362984  47.3835602  28.5096188  30.2935810
  46.9602661  29.3626118  28.8509693  48.0964355  30.5578461  30.1839638
  47.9315262  30.9017296  31.2050667  49.1000366  30.1354351  30.1344795
  48.0485878  31.7663975  29.2528896  47.1468468  32.0232773  28.5398140
  49.0940323  32.5552750  29.3002605  49.1035080  33.5240135  29.0146732
  49.9796371  32.1409302  29.5534801  45.6156273  30.2025261  31.9308395
  46.0514641  29.3758087  32.7805862  45.2498131  31.4272518  32.3313446
  44.9300804  32.0820007  31.6319332  44.9971581  31.7650871  33.7426682
  45.5440826  31.0999298  34.4109039  45.5715675  33.1552696  34.0007629
  44.9777794  33.8527374  33.4099503  45.4135895  33.3885345  35.0537224
  47.0518570  33.2839050  33.6292267  47.9089546  32.7692184  34.6236420
  47.6102257  32.3434830  35.5701675  49.2965851  32.8344345  34.3172264
  50.0301590  32.5116081  35.0411377  49.7116547  33.5221786  33.1083183
  51.0839119  33.6745720  32.9824791  51.4419136  34.0322189  32.1666832
  48.8250542  34.0783272  32.2132530  49.1635704  34.6504364  31.3620777
  47.4528923  33.8784981  32.4670372  46.6431465  34.2409935  31.8511581
  43.5287895  31.7038803  34.1455040  43.2366257  31.8212376  35.3484993
  42.5582352  31.5667477  33.1984711  42.8980637  31.3584671  32.2704430
  41.1913223  31.3442173  33.6249886  40.9221001  32.0861473  34.3767662
  40.0656166  31.4526081  32.5183372  40.3540115  30.7873077  31.7045135
  38.6793861  31.0167885  32.9885330  38.0702095  30.9037075  32.0917511
  38.6564064  30.0040913  33.3910446  38.3008537  31.6698589  33.7748680
  40.0404243  32.8922462  32.0466728  41.0584450  33.1718445  31.7754650
  39.4044075  32.9621468  31.1642342  39.7554665  33.6179619  32.8084068
  41.1568642  29.8769112  34.1300011  41.4260674  28.9622421  33.4234467
  40.6773186  29.6741581  35.3774185  40.2675934  30.6711159  36.3217430
  39.4403419  31.2453480  35.9045944  41.0860062  31.3632565  36.5198402
  39.9167824  30.0322037  37.6682701  38.8349876  29.8995113  37.6535110
  40.3806076  30.5475216  38.5093498  40.5047569  28.6345234  37.5950623
  39.8704071  27.9128056  38.1096725  41.5077667  28.7442207  38.0074158
  40.6124916  28.3679943  36.1104736  41.5106506  27.8652172  35.7518234
  39.4191742  27.5754490  35.6110573  38.3118324  28.1323910  35.2717514
  39.5032158  26.1908226  35.5345421  40.3662148  25.8453007  35.9294395
  38.5637627  25.2876167  34.8641930  37.5516777  25.6628418  35.0158348
  38.8708725  25.2542191  33.3429184  38.8809814  26.3085041  33.0663643
  40.2758713  24.6569481  33.0776520  40.3505630  23.5906124  33.2908287
  40.5002060  24.8656368  32.0316010  41.0504532  25.1805477  33.6379814
  37.9149055  24.4771614  32.4397545  37.8102951  23.4134865  32.6536560
  36.9254494  24.9292030  32.5085640  38.2234154  24.5184689  31.3951416
  38.5746574  23.8620338  35.3879890  39.5947227  23.4180317  35.9864006
  37.4623756  23.1180420  35.2036819  36.6496086  23.6073570  34.8571472
  37.3446693  21.6604977  35.3009186  38.2261696  21.1581802  34.9025078
  37.2150192  21.3170567  36.7977104  37.8182678  21.9779148  37.4201698
  35.8868408  21.3420525  37.4301491  35.4154549  22.3247147  37.4465981
  35.1714668  20.7997761  36.8118629  35.8769646  20.9073963  38.4296951
  37.6895103  20.0114994  37.1955910  37.4147720  19.2723217  36.6481056
  36.2093201  21.1521511  34.4473572  35.3429260  21.9258690  34.0932465
  36.2835808  19.9053345  33.9902191  36.9888039  19.3345184  34.4339867
  35.2553062  19.3616695  33.0312614  34.7119675  20.2174854  32.6306839
  36.0132561  18.8239212  31.7797756  36.3639641  17.8318233  32.0641098
  35.2844810  18.7496967  30.9726315  37.4163857  19.8837261  31.2206974
  38.2703285  19.5892677  32.2050629  34.2808342  18.4010334  33.6258545
  34.5798111  17.2753544  33.9235306  33.0487862  18.8040237  33.7315750
  32.9836922  19.7228279  33.3172569  31.8510303  18.0297718  34.1951675
  31.9849930  17.6303921  35.2004814  30.6303387  19.0317440  34.4259644
  29.9170609  18.9245090  33.6087532  29.9775658  18.6729012  35.2217140
  30.8874245  20.5015659  34.7302094  31.0552044  20.5100212  35.8071861
  31.8120098  20.7640076  34.2160416  29.6458740  21.8746586  34.5356483
  29.6433544  22.1459465  32.6995010  30.4897213  22.7960453  32.4778290
  29.7891197  21.2762547  32.0588074  28.7021294  22.6285229  32.4362183
  31.5051651  16.8107872  33.3567505  31.3179569  16.9549332  32.1700249
  31.1813927  15.6627407  33.9737396  31.4383526  15.5321589  34.9417381
  30.4177608  14.6084032  33.2689285  31.1436863  14.3845539  32.4872475
  30.1766605  13.4110928  34.1880074  31.0597038  13.0132618  34.6880722
  29.5535030  13.8001280  34.9932594  29.5112476  12.0992384  33.6282578
  29.6600132  11.4940500  34.5225258  28.4245262  12.1094151  33.5443649
  30.1473618  11.6164055  32.3430176  30.2940197  12.3097620  31.3696308
  30.6170883  10.4235344  32.3399277  30.6100349   9.9528542  33.2335205
  31.1115723  10.0747681  31.5312557  29.1053162  15.1587429  32.7357330
  28.2477932  15.6673737  33.5033875  28.7905750  14.8059959  31.4873409
  29.3598900  14.2406206  30.8738804  27.4192715  14.9192562  30.9689693
  27.1009464  15.9245138  31.2450638  27.3736687  14.9455805  29.4295902
  28.1255341  15.5738926  28.9520721  27.6274128  13.9714451  29.0115280
  26.0139980  15.2783699  28.8426704  26.1370411  15.0597372  27.7819347
  25.1973362  14.6264191  29.1527271  25.7575493  16.8041115  29.0559559
  25.2150021  17.2372532  30.0758514  25.9452381  17.6087093  28.1348152
  26.5712204  13.7226315  31.4635582  26.8585091  12.5428514  31.3826141
  25.3607235  14.1048880  31.9005947  25.1713657  15.0967503  31.9218826
  24.3220863  13.2555151  32.2647514  24.8019867  12.5090294  32.8976479
  23.2746754  14.0521946  32.9995651  23.7273579  14.4741364  33.8968620
  23.0096664  14.8681211  32.3271561  21.8995876  13.3955450  33.3020630
  21.6533260  12.7564278  32.4541321  22.0173206  12.7962618  34.2048912
  20.5852451  14.6293573  33.5498924  18.9582825  13.7720470  33.3574219
  18.8150978  13.2633781  32.4040833  18.9086075  12.9819880  34.1067162
  18.1171017  14.4504547  33.4998207  23.6413746  12.5527601  30.9681511
  23.2993546  13.1375713  29.9324684  23.4798813  11.2248487  31.0478306
  23.8888874  10.8472080  31.8905659  22.8750648  10.4136133  29.9688511
  23.3490677  10.6886148  29.0266228  23.1475449   8.8993616  30.1527729
  24.2146683   8.6915312  30.2312412  22.5850620   8.6188126  31.0432835
  22.5906200   8.0294685  29.0294266  22.4447441   8.4665337  27.8703098
  22.1945877   6.8478603  29.4073944  21.3939190  10.7368851  29.7903652
  20.5323944  10.3153906  30.6201191  21.0289288  11.2801018  28.6664276
  21.7537079  11.6048279  28.0424442  19.6543884  11.6073055  28.2789364
  18.9205227  11.2770624  29.0141106  19.4390755  13.1646814  28.0966454
  20.0645332  13.5719528  27.3022709  17.9660110  13.4860125  27.5885124
  17.3558979  12.8494902  28.2293758  17.6078396  14.5107889  27.6867294
  17.8204384  13.1144953  26.5741692  19.7755737  13.9243240  29.4183502
  20.8422375  13.8820133  29.6386433  19.5648785  14.9793549  29.2433681
  19.1620426  13.5008631  30.2135620  19.2744904  11.0009575  26.9385052
  19.9535542  11.2675915  25.9445629  18.2254734  10.1298180  26.9295845
  17.7735767  10.0457096  27.8289261  17.8472710   9.3008308  25.8397007
  18.6972446   8.6454182  25.6497364  16.6843796   8.3991213  26.2024975
  16.9693069   7.9255862  27.1420116  15.2970018   8.9606256  26.3442192
  15.3503122   9.7232161  27.1212139  15.0019875   9.4692020  25.4263859
  14.6011295   8.1830797  26.6593132  16.4531059   7.4371166  25.2548103
  16.7948647   6.5909309  25.5527554  17.3925304  10.1916618  24.6531410
  16.6383896  11.1435070  24.9556694  17.8938351  10.1336184  23.3910484
  18.6792412   9.5234623  23.2151318  17.5021038  11.0739164  22.3092670
  17.6725121  10.7269497  21.2901134  16.4123116  11.0783930  22.2884312
  18.0400448  12.4901705  22.4663811  17.6208458  13.3291960  21.6562386
  18.9924564  12.8042402  23.3455944  19.3312836  12.0871201  23.9709225
  19.9143257  13.9962873  23.4250336  19.4208374  14.9670639  23.4715767
  20.4416656  13.8962622  24.3737221  20.8574772  14.0434322  22.2423515
  21.0081062  13.0008221  21.5701885  21.4250011  15.1635933  21.9572849
  21.3055401  15.8831930  22.6558590  22.5496578  15.3103476  21.0185947
  22.1318684  15.1421881  20.0259857  23.0615177  16.7908344  20.9936485
  23.3780460  17.1243858  21.9819050  23.9762897  16.9282227  20.4170933
  21.9517288  17.7450752  20.4840660  20.9946671  17.5613041  20.9722900
  22.2901535  19.1479282  20.8790226  23.2387238  19.3634243  20.3872166
  21.5300484  19.8868771  20.6254559  22.3100872  18.9888687  21.9571705
  21.8437614  17.7441578  18.9397545  21.3830414  16.8573151  18.5046082
  21.2314129  18.6074543  18.6792717  22.8215790  17.8547115  18.4709778
  23.7395859  14.3536835  21.1157799  24.2441654  14.1423140  22.1906796
  24.2422504  13.8963127  19.9642773  23.9560375  14.2064848  19.0466843
  25.3703613  12.9901257  19.8351345  25.5005932  12.4295301  20.7608147
  25.0774078  12.0477018  18.6543007  24.6884441  12.7037783  17.8756027
  25.9644070  11.5119476  18.3162136  24.0413799  10.9414616  18.9073410
  24.3375168  10.5216980  19.8686962  23.0319767  11.3527994  18.9093246
  23.9280376   9.7104788  18.0224953  23.4067841  10.0219831  17.1173096
  24.9052010   9.4215412  17.6354923  23.2034912   8.5094357  18.6017971
  23.7419071   8.0600176  19.4362030  22.2154255   8.7710009  18.9804916
  22.9947491   7.4142780  17.6009941  22.3039799   6.8226957  18.0402737
  22.5644627   7.6741042  16.7249546  23.8567562   6.9014592  17.4824123
  26.5654831  13.8388176  19.4956951  26.4661026  14.7696190  18.7577839
  27.7367973  13.4017172  20.0206604  27.6677780  12.5290222  20.5243855
  29.0426064  14.0480852  20.0003281  29.5916805  13.8165388  20.9130173
  29.8127766  13.6571245  18.7519817  29.3043842  14.0233631  17.8600712
  30.7795238  14.1368694  18.9047737  30.1469154  12.1571779  18.5047169
  30.8391171  11.8617868  19.2931957  29.2205830  11.5832081  18.5285568
  31.0170002  11.7856445  17.2668285  30.5481682  12.2251825  16.3864269
  32.0526962  12.1156721  17.3475418  31.0692673  10.2655325  17.1384506
  31.8321915   9.9248505  16.4384632  31.3261604   9.8374348  18.1073914
  29.8278522   9.6737862  16.7282333  29.0817890   9.5984745  17.4048538
  29.4410458  10.1522675  15.9272738  30.0367908   8.7411213  16.4017658
  28.8461971  15.5988789  20.1160774  29.0786552  16.3330784  19.1922607
  28.3870220  16.0494804  21.2659073  28.3530579  15.3389559  21.9829159
  28.3138390  17.4839897  21.6514320  28.5763569  18.0681229  20.7694054
  26.8304501  17.8918858  22.0387592  26.2105236  17.4770527  21.2439575
  26.5861683  17.4533138  23.0062714  26.5666828  19.6622963  22.1546841
  25.4504204  19.3621941  22.8246021  29.2844162  17.9222755  22.8205872
  29.5089970  17.2366867  23.7783833  29.7456856  19.1683369  22.7809925
  29.5335484  19.6118793  21.8987408  30.6763706  19.7930183  23.6682816
  31.0043297  19.2608070  24.5611954  31.9767532  20.1317272  22.8179569
  31.6125259  20.7443066  21.9932175  32.9569550  20.9829121  23.6934223
  32.5612869  21.9817791  23.8772850  33.1975365  20.6010551  24.6855946
  33.9030609  21.2730103  23.2364330  32.7093430  18.9093170  22.2643776
  33.2795448  18.4211483  23.0547314  31.9839973  18.1982803  21.8688984
  33.8198967  19.2840176  21.2029781  34.5188293  19.9808025  21.6656723
  34.2948532  18.4002266  20.7770309  33.3993950  19.8024654  20.3412971
  29.9732418  21.0342503  24.2355347  29.5322971  21.8746090  23.4624653
  29.9845924  21.2573433  25.5354366  30.4745255  20.5711269  26.0914669
  29.3245220  22.3798389  26.1632786  28.8812771  23.1219215  25.4992371
  28.1799622  21.9409084  27.1263142  28.6985474  21.5968475  28.0211830
  27.6057072  22.8425045  27.3395271  27.1708717  20.9248829  26.5524082
  26.9117985  21.2271481  25.5377083  27.5244827  19.9002018  26.4380035
  25.7837048  20.9325161  27.3246346  25.5342655  21.9868088  27.4444237
  25.0544510  20.4397526  26.6816158  25.8973503  20.2153320  28.5721283
  25.9825039  19.2150993  28.4608459  25.8712902  20.6205997  29.8020115
  25.6773987  21.8310471  30.2156849  25.4922333  22.0367336  31.1870289
  25.5893593  22.5671291  29.5297298  25.9314518  19.7500877  30.7290287
  26.1502094  20.0354347  31.6728630  25.6472530  18.8009186  30.5330486
  30.2778454  23.1961060  26.9559364  31.3953075  22.7848053  27.2277241
  29.8183956  24.4245720  27.2147236  28.8622761  24.6537876  26.9836483
  30.6560307  25.3733120  27.9468822  31.2252617  24.9103165  28.7529335
  31.7468910  26.0238953  26.9676762  32.3685150  25.2298031  26.5540333
  31.0281410  26.6914940  25.7228508  30.3931007  27.4876881  26.1113071
  31.6716213  27.0829487  24.9349442  30.4110336  25.9353523  25.2375259
  32.6396332  27.1381302  27.5973797  32.8392525  26.8959522  28.6412220
  33.6283150  27.2030334  27.1430683  32.2107773  28.1388874  27.5457668
  29.8518505  26.3745575  28.7927246  28.8096638  26.8497887  28.3078117
  30.3821564  26.6988773  29.9698906  31.2120304  26.1874905  30.2342644
  29.9325790  27.6105442  30.9348221  29.3851490  28.3832493  30.3950577
  29.0687351  26.9485416  32.0168991  28.1174774  26.6240959  31.5950603
  29.5874672  26.1069107  32.4758911  28.6109371  27.9948826  33.1567459
  28.1401119  27.4329796  33.9634018  29.4665585  28.5805492  33.4929123
  27.2754707  28.9023781  32.5874939  26.7676849  29.9026203  34.0520782
  27.2002907  29.3662567  34.8966331  27.1651745  30.9147186  33.9761925
  25.6849346  29.8442383  34.1631851  31.0754547  28.3691521  31.5394344
  32.1549187  27.8512287  31.7948341  30.8083458  29.6606522  31.7437572
  29.8981361  29.9304562  31.3990479  31.7837639  30.6654568  32.2639351
  32.4566841  30.2002716  32.9842682  32.7379723  31.1417027  31.2151241
  33.6381950  31.5416107  31.6817856  33.1205101  30.3313808  30.5945225
  32.2953949  32.2528152  30.2217026  31.4024887  31.9733524  29.6624870
  32.1803398  33.2150841  30.7206059  33.6126328  32.4604645  29.0427074
  32.9326973  33.8750076  28.1955528  31.9951420  33.5708733  27.7301502
  32.7020988  34.5975456  28.9784088  33.5760040  34.3096390  27.4304676
  31.0161190  31.7897224  32.9615974  29.9555340  32.1117439  32.5280762
  31.5279675  32.3785210  34.0476761  32.3631630  31.9683304  34.4404755
  31.0190525  33.6036224  34.6717873  30.1868134  33.9869041  34.0813828
  30.4277592  33.4498253  36.1045914  30.1006298  34.4421158  36.4151497
  29.1762390  32.5651817  36.1896248  29.3981647  31.5220737  35.9643250
  28.7206078  32.5236435  37.1789551  28.5228958  32.9441071  35.4037132
  31.3042374  32.8433647  36.9986877  32.1101799  33.3610191  37.0626831
  32.1007805  34.6692772  34.6515236  33.2878876  34.3409119  34.6233139
  31.7140770  35.9161491  34.6742783  30.7624798  36.0791588  34.9709167
  32.3944931  37.0679436  34.0993958  33.4637299  36.9956589  34.2984238
  32.1750946  37.0719109  32.5654831  31.1088638  37.1880112  32.3711395
  32.9714088  38.2564049  31.9913960  32.5307159  39.2139435  32.2688942
  34.0481377  38.1044312  32.0666351  32.8403893  38.2088089  30.9103470
  32.6509628  35.7540092  31.7956123  32.7577477  35.9990807  30.7389011
  33.6092224  35.3872223  32.1634483  31.8710327  34.9972305  31.8798790
  31.9209995  38.4531364  34.6839142  30.7328873  38.7787895  34.6709938
  32.9019012  39.3315430  35.1430130  33.8892517  39.1888809  34.9852638
  32.6286049  40.7505569  35.5847664  31.7953415  40.7088737  36.2862206
  33.8029022  41.3498306  36.3497887  33.6992989  40.8580704  37.3170204
  34.7629700  41.1402016  35.8781700  33.7451172  42.9158020  36.4748497
  34.1718636  43.3866425  35.5892372  32.6897697  43.1680374  36.5783768
  34.5383072  43.3313637  37.7871056  33.9190674  43.7389412  38.7180138
  35.8036156  43.3852043  37.8924713  36.1498375  43.7824821  38.7540970
  36.3487701  43.2398834  37.0547409  32.1346474  41.5624428  34.4052048
  32.9037056  41.8450661  33.4488335  30.8613205  41.9912071  34.4403915
  30.3698425  41.7589417  35.2916260  30.1833210  42.7980804  33.4159279
  30.9415684  43.5352631  33.1518784  29.8508892  41.8695450  32.2379265
  30.7119198  41.2656364  31.9515152  28.6183758  40.9343948  32.3028488
  28.6257668  40.2039948  31.4937973  28.7147923  40.4852867  33.2913361
  27.7664738  41.6128197  32.2570038  29.5314236  42.7753983  31.2263699
  30.3309193  43.2052650  30.9139290  28.9117641  43.4711990  33.9073410
  28.2664337  42.9634628  34.8422279  28.5115433  44.5268936  33.2065773
  29.1265564  44.8096046  32.4569511  27.3116932  45.3526802  33.4460373
  26.8173962  44.8289413  34.2642517  27.6199512  46.7725296  33.9699631
  26.6776562  47.2387505  34.2577438  28.2460365  46.6409454  34.8524666
  28.3574238  47.5779266  32.9240341  28.8418789  48.7107735  33.2994728
  28.4120140  47.3372917  31.7132568  26.3398533  45.3447533  32.2506180
  25.3702221  46.1296425  32.2844696  26.6552563  44.5569687  31.1936035
  27.4711533  43.9680252  31.2805328  25.6448421  44.3693008  30.1116810
  25.6089325  45.3567276  29.6514645  26.1514091  43.3740845  29.0893898
  26.6198139  42.5505714  29.6283894  25.1773777  42.7956429  28.1292610
  24.6989708  43.5858307  27.5506172  25.6378899  42.1339645  27.3956337
  24.3267822  42.2892151  28.5854607  27.2214966  44.1076355  28.2241192
  27.6271954  43.2990952  27.6160297  26.6818066  44.8367500  27.6197815
  27.9938507  44.5326538  28.8651466  24.2705536  43.9911842  30.6336517
  24.2458572  42.9382172  31.3352356  23.1600895  44.5694199  30.1820107
  23.1670494  45.8006058  29.3830376  23.3708687  45.5968170  28.3318329
  23.8857021  46.5408058  29.7348099  21.7069302  46.3357506  29.3564701
  21.4157276  46.8866501  28.4621487  21.5111198  46.9229393  30.2536697
  20.9870968  45.0191116  29.5092068  20.9618778  44.5680695  28.5172272
  20.0157604  45.1536789  29.9851265  21.8110352  44.0960045  30.3890839
  21.6194859  44.1702652  31.4595509  21.5379429  42.6930809  30.0117588
  22.1878471  42.1282196  29.1163158  20.6068974  42.0399971  30.7463608
  20.0907097  42.5714607  31.4327984  20.6218376  40.5753860  30.8288307
  21.6562996  40.3178139  31.0560818  19.6999989  40.2001801  32.0018387
  19.8890629  40.8681221  32.8421974  18.6653767  40.3256073  31.6825809
  19.9403687  38.8055878  32.5614586  19.8480663  38.0864105  31.7476006
  20.9032631  38.7141762  33.0640297  18.8405819  38.4103699  33.6317596
  17.7876949  38.9934540  33.7610359  19.0166588  37.3534660  34.4239044
  19.9493561  36.9670372  34.4531021  18.4467564  37.2505989  35.2513885
  20.1475868  39.8996696  29.5157833  20.6999683  38.8554802  29.1192513
  19.1819935  40.4893570  28.7594147  18.8684769  41.3931236  29.0834694
  18.8161888  40.0631790  27.3745804  18.8247738  38.9734383  27.3524380
  17.3520927  40.5559196  27.0087547  17.0363960  39.9271317  26.1762543
  16.6245842  40.3599129  27.7964211  17.2361622  42.0586700  26.6858044
  16.5685711  42.4317665  25.6558437  17.8957863  42.7830925  27.3808193
  19.7991829  40.5281525  26.2659645  19.7117043  40.0596962  25.0991726
  20.8352966  41.2790871  26.6234417  20.9253864  41.6625214  27.5534763
  21.9104443  41.7375336  25.6490822  21.4888077  41.6188774  24.6509609
  22.2201939  43.2009315  25.6848793  22.6106873  43.4277000  26.6769447
  22.9235249  43.3791809  24.8714581  20.9512215  43.9773216  25.3849983
  20.2854271  43.4973946  24.6677208  20.3720779  44.0856667  26.3020344
  21.1512852  45.3171425  24.8923111  22.2037506  45.6947632  24.3306160
  20.1390457  46.1621246  24.9802303  19.3193073  45.9012909  25.5094719
  20.1966801  47.1214752  24.6697083  23.2358570  40.9130478  25.5830021
  24.0280056  41.1349564  24.6694050  23.4188271  39.9740753  26.5077972
  22.7015438  39.8847694  27.2132282  24.5652809  39.0938683  26.5596809
  25.4577618  39.6677399  26.3101845  24.7400055  38.5248985  28.0223293
  23.8206959  37.9883499  28.2570305  25.9147320  37.5021706  27.9738426
  25.9330235  37.0680771  28.9735069  25.7578354  36.7535439  27.1972866
  26.8279285  38.0914345  27.8904896  24.9539108  39.6046257  29.1135120
  25.6981010  40.2876587  28.7039471  24.0488415  40.1585770  29.3626842
  25.5124454  39.0648956  30.4513588  26.5852356  38.8831100  30.3867702
  25.3203983  39.8217163  31.2119179  24.9101048  38.2140503  30.7697124
  24.3344688  38.0553589  25.4371490  23.2287979  37.4418526  25.4156742
  25.4121437  37.5893593  24.7047768  26.3177795  38.0124245  24.8494797
  25.1338406  36.6225128  23.6219158  24.0626640  36.5512085  23.4332161
  25.7363605  37.1534195  22.2791576  26.7690430  37.4340515  22.4863224
  25.5382271  36.3846016  21.5323200  25.0153866  38.3832130  21.7398739
  23.9336147  38.2789688  21.8235550  25.2396736  39.2095490  22.4143829
  25.5751362  38.7482681  20.3308640  26.6457577  38.8967476  20.4716568
  25.5541573  37.8949471  19.6529922  24.8652439  39.9255447  19.8342075
  24.2339478  40.3482018  20.4997349  25.1748180  40.6022682  18.7311745
  26.1155796  40.0953941  17.9055882  26.5316563  40.6312752  17.1573792
  26.7754173  39.3913078  18.2038765  24.6029053  41.7021675  18.3005352
  23.9963284  42.1998596  18.9365177  24.7204361  41.9699402  17.3337975
  25.6372719  35.2414284  24.0369015  26.8801003  35.0032272  23.9421177
  24.7214050  34.2769051  24.3311939  23.7654324  34.6028175  24.3308849
  24.9328136  32.8302727  24.4404469  25.9362030  32.7079697  24.8483124
  23.8574886  32.1832428  25.3365402  22.9117947  32.2734756  24.8021049
  24.2011242  31.1544094  25.4438629  23.7150784  32.8838997  26.6916695
  24.4328289  32.6869736  27.9347134  24.0192966  33.6610336  28.7480373
  24.2530994  33.7181549  29.8008785  23.1054535  34.4514313  28.1735306
  22.5617371  35.2035446  28.5720310  22.8890247  33.9801102  26.8913040
  22.2943211  34.4048843  26.0961323  25.1124287  32.2930183  23.0215168
  24.3503532  32.7195091  22.1775761  26.0996647  31.4713764  22.7109852
  26.6161079  31.1463509  23.5158100  26.4562817  31.0950565  21.3291931
  25.7200813  31.6023560  20.7056885  27.8461647  31.5521641  20.9871387
  28.4016609  31.1423569  21.8306923  28.5325527  31.0379009  19.6888466
  27.8950729  31.1949272  18.8187542  29.5530891  31.3984432  19.5599403
  28.7352676  29.9717083  19.7900600  27.9966812  33.0722237  20.9481277
  27.0458775  33.5939331  20.8390846  28.6135368  33.3528900  21.8018360
  28.5499039  33.4769287  20.1006241  26.4225922  29.5689106  21.1468449
  27.3008080  28.8468876  21.7374001  25.4609928  29.1445866  20.3432274
  24.8150063  29.8030396  19.9318371  25.3154011  27.7475185  20.0901489
  26.1356010  27.2091732  20.5650845  23.9872837  27.2583370  20.6748714
  23.1320839  27.6445446  20.1202736  23.8985004  26.1722908  20.6480770
  23.7342072  27.6303692  22.1011734  23.9335480  26.7803211  23.1683960
  24.3390541  25.8012428  22.9601383  23.6847267  27.0827808  24.5149384
  23.6586914  26.3212223  25.2802868  23.1215439  28.3577061  24.7826576
  22.7512894  28.6627159  26.0269012  22.2474289  27.9410801  26.4102631
  22.9964008  29.3203163  23.7372341  22.6086922  30.3154945  23.8975468
  23.2915459  28.9643593  22.4108620  23.1048164  29.6984005  21.6409817
  25.4374905  27.5455475  18.5213547  24.9560890  28.3974857  17.7567558
  26.1701679  26.4931927  18.1546726  26.4560070  25.8740368  18.8996830
  26.6378555  26.2293854  16.7636299  26.1534901  26.9146595  16.0680084
  28.0822792  26.6467342  16.6438618  28.6817799  26.0919247  17.3655853
  28.4170303  26.3576088  15.6476450  28.3054161  28.1177711  16.7209587
  27.9562073  28.4158401  17.7095490  29.7936821  28.3676186  16.7314854
  30.0044994  29.3834972  17.0656242  30.2982731  27.6553097  17.3842487
  30.1230278  28.3272877  15.6932096  27.6863861  29.0230961  15.6340065
  27.9209652  28.6089535  14.6534147  26.6067104  29.1577797  15.6992893
  27.9779778  30.0660763  15.7575178  26.4553967  24.8159695  16.2993431
  26.1762619  23.9584885  17.1332645  26.4206047  24.5380249  14.9762421
  26.5602989  25.3370724  14.3744850  26.1975861  23.2595692  14.3536777
  26.2410030  23.3949013  13.2729826  27.4025326  22.3139610  14.7260151
  27.5282440  22.2248211  15.8050661  27.1569920  21.3237534  14.3422184
  28.7533817  22.7600422  14.1719542  28.8399849  23.7958870  14.5000191
  29.5546913  22.1601009  14.6033173  28.8388786  22.8488560  12.6722097
  29.8213863  23.5240002  12.1799355  27.9920712  22.2585049  11.9232979
  24.8223152  22.7719784  14.8056774  23.9349556  23.5630474  15.1081285
  24.6843834  21.4479561  14.9304380  25.4870949  20.8647919  14.7415619
  23.4973526  20.7330036  15.4448700  22.6650925  20.9644356  14.7801275
  23.8298721  19.2484379  15.4679508  24.7837296  18.9601917  15.9097328
  23.0503292  18.8390141  16.1104374  23.5600185  18.6072083  14.1345348
  22.4830360  18.4957504  14.0088959  23.8986053  19.2041626  13.2877150
  24.2288456  17.2532043  14.0041924  24.0565491  16.7033825  14.9294538
  23.8079529  16.6433582  13.2047920  25.7113781  17.3809242  13.8401680
  26.1155357  18.1071033  14.5454512  26.1678524  16.3981419  13.9579449
  26.0055218  17.8157959  12.4402819  25.9539986  17.0758324  11.7547894
  25.6869144  18.7722244  12.3783569  27.0080414  17.9114075  12.5171862
  23.2019291  21.1637516  16.9102955  22.0585098  21.1049976  17.2276134
  24.1860924  21.5309048  17.7487755  25.1158676  21.6453209  17.3712463
  23.8558941  22.0194931  19.0450649  23.1817532  21.3177471  19.5361767
  25.0930157  22.1682816  19.9515438  24.8009319  22.5935326  20.9117279
  25.4348431  21.1541195  20.1582623  25.8192577  22.7312050  19.3652039
  23.1676102  23.4157352  19.1108170  22.9131451  23.9527435  20.2272778
  22.9198742  24.0930843  17.9635773  23.4890404  23.8904381  17.1542053
  22.1342316  25.4141407  17.9646168  22.7120914  26.1095982  18.5733166
  21.9985123  26.0100975  16.5281944  22.9593105  25.9533539  16.0165825
  21.0740185  25.2391453  15.6161633  20.0871849  25.5784721  15.9309931
  21.4141006  25.3856392  14.5909882  21.1849232  24.1621647  15.7422924
  21.7172241  27.5229321  16.5114784  22.0523529  28.0081196  17.4282017
  22.1874313  28.0291367  15.6684122  20.6521282  27.7233543  16.3952904
  20.7701721  25.3265915  18.6697483  20.3598881  26.3528194  19.1776962
  20.2481537  24.1028080  18.6992378  20.7002392  23.3768311  18.1619492
  18.8852463  23.8653679  19.2158337  18.1945877  24.5783768  18.7655983
  18.3979130  22.4467926  18.8982124  17.3918190  22.2751713  19.2808609
  18.2649841  22.1013069  17.4462528  19.1260490  22.3694897  16.8340950
  18.1468067  21.0189743  17.3943958  17.3553562  22.5347652  17.0305729
  19.3891621  21.3967743  19.4734535  20.1953964  21.1008606  18.8022442
  19.7037411  21.6014328  20.4968090  18.9410610  20.4090977  19.5820770
  18.7492752  24.1216087  20.6881847  17.5872211  24.2505798  21.2347717
  19.8651028  24.0588322  21.4673710  20.7569866  23.9517918  21.0056534
  19.9328365  24.2854176  22.8867455  19.2347832  23.6369324  23.4161682
  21.1634789  23.6621742  23.4891319  21.9408817  24.3852959  23.2424774
  21.0222549  23.7334576  24.5675907  21.4841576  22.2045631  22.9868546
  21.4353828  22.0988789  21.9030876  22.8980522  21.7425499  23.4752998
  23.5916252  22.5175438  23.1490517  22.9680290  21.6902676  24.5617943
  23.1802254  20.7529926  23.1157703  20.3715858  21.1882248  23.5098763
  19.3742046  21.5259991  23.2283764  20.5691566  20.1859169  23.1298161
  20.4676933  21.1033840  24.5923100  19.8410931  25.7884655  23.3445396
  19.7585030  26.0401325  24.5148754  19.8836994  26.7723446  22.3741894
  20.1108093  26.4373932  21.4488106  19.7408085  28.2231884  22.6070709
  20.5924129  28.5403214  23.2089844  19.8168182  29.0786610  21.2460308
  19.9704151  30.1126385  21.5548935  20.6998520  28.8303833  20.6572113
  18.5809669  28.9062061  20.3961639  18.3176270  27.8485241  20.4039288
  17.7355709  29.4184875  20.8554840  18.9052258  29.4645538  19.0126324
  18.9883366  30.5456886  19.1237240  19.8447037  29.0219059  18.6816483
  17.8067284  29.3185005  18.0420284  17.4516163  30.1990471  17.6975975
  17.2500019  28.2495956  17.5078621  17.9958820  27.2148361  17.2839031
  18.9681873  27.2652264  17.5525818  17.7018623  26.5055809  16.6276970
  16.0239201  28.3702488  17.1012173  15.5366039  29.2497845  17.1963215
  15.5883999  27.7381039  16.4448509  18.4613495  28.4708881  23.4316883
  17.4574280  27.7862587  23.2528553  18.3951035  29.6437454  24.1917019
  19.4023285  30.6446362  24.3732281  19.8311653  30.9829216  23.4299564
  20.1033535  30.0823746  24.9900951  18.8649292  31.8528023  25.2338867
  18.3915501  32.6293678  24.6330853  19.5848618  32.2738037  25.9357071
  17.7917690  31.0802193  26.0189514  17.0072422  31.8050098  26.2364311
  18.1813469  30.5920753  26.9122887  17.3111172  29.9786148  25.1358261
  17.0845470  29.0489597  25.6578465  15.9795122  30.3959351  24.4249134
  14.9171963  30.3619804  25.0744743  16.1158924  30.7746944  23.1375256
  17.0802879  30.8115368  22.8397236  15.0291710  31.1724758  22.2844696
  15.5906534  31.5361900  21.4239178  14.1876793  29.9410763  21.8112240
  14.8555584  29.1182919  21.5561466  13.5689859  29.6874790  22.6720428
  13.3568983  30.3107643  20.5828590  12.5153236  29.5022125  20.2236252
  13.5171585  31.4404125  20.0693455  14.2568293  32.3618927  22.9468994
  13.0430422  32.2529755  22.9149494  14.9639826  33.4015999  23.4288235
  15.9430990  33.2025986  23.5766087  14.4304094  34.6058960  24.0677071
  14.1026697  34.3502083  25.0753326  15.4901009  35.6511230  24.2667351
  15.9581728  35.8086510  23.2950382  14.9720373  36.5148544  24.6834908
  16.5969028  35.3535156  25.2680454  17.2221680  34.4983101  25.0115795
  17.3821926  36.6214180  25.4597855  18.1217155  36.7161751  24.6646576
  16.8028183  37.5440712  25.4935360  18.0352936  36.5069427  26.3249168
  16.1503353  35.0133209  26.6598053  17.0163231  34.7186165  27.2525158
  15.4940481  34.1435127  26.6310768  15.5927401  35.8480759  27.0845032
  13.2794600  35.2283783  23.3749352  13.3020229  35.4587097  22.1313820
  12.2572212  35.6103401  24.1372948  12.1732950  35.4612541  25.1326981
  11.0894394  36.4477844  23.6860428  11.4154835  37.2000427  22.9677811
  10.0462589  35.4883614  22.9446220  10.4608183  35.0201073  22.0518856
   9.7393017  34.6237144  23.5330658   9.0289030  36.3063278  22.5444489
   8.4674997  35.7125015  22.0406647  10.3977041  37.1294022  24.7871037
  10.1202192  36.5713539  25.8299236  10.0444660  38.3636627  24.4694614
  10.3264599  38.6978416  23.5590210   9.2295389  39.2561684  25.2587795
   9.6844416  39.5233192  26.2126122   9.1534576  40.5317039  24.4054909
   9.0570240  40.3185120  23.3409004   8.2008018  41.0107880  24.6313801
  10.2908754  41.4718018  24.5988731  11.1795197  40.9952621  24.1849537
  10.0729046  42.6721497  23.6424236  10.1655922  42.3546715  22.6038094
  10.7396221  43.5104256  23.8446178   9.0734978  43.0561981  23.8468590
  10.5766983  42.0609894  25.9889660   9.6798086  42.6309090  26.2316189
  10.6828594  41.2747383  26.7363949  11.4289942  42.7323380  25.8841743
   7.8289461  38.6082687  25.5133152   7.3337173  38.8059006  26.6150379
   7.2586117  37.8743477  24.5581646   7.6356578  37.7101784  23.6356773
   5.9967856  37.2448120  24.7094288   5.5522900  37.6533852  25.6169491
   5.1420350  37.4174385  23.4062519   4.2785754  36.7538261  23.4527245
   4.6307640  38.7961884  23.0961666   3.7793856  39.0887871  23.7106915
   5.4236999  39.5432129  23.1323071   4.3736534  38.8852577  22.0406799
   5.9081111  36.9562187  22.3666363   5.4664636  36.2366371  21.9097462
   6.0762458  35.7179146  24.9951153   5.1739888  35.0139160  24.6520042
   7.1958132  35.2328873  25.5472908   7.9610300  35.8908043  25.5061951
   7.3425426  33.9815941  26.2816257   6.5005145  33.3219452  26.0719776
   8.7176428  33.3053741  25.9047432   8.5719261  33.2582359  24.8255558
   9.6229210  33.8716164  26.1236992   8.9723616  31.8368416  26.3745594
   9.3801994  31.8191223  27.3852291   8.0112705  31.3237514  26.4083328
  10.0130768  31.0575733  25.5371685  10.0467834  30.0158501  25.8561916
   9.6990242  31.1026993  24.4943676  11.4754219  31.3818760  25.6383095
  11.7555933  32.3878593  25.3258991  11.8155327  31.2663994  26.6674290
  12.2194262  30.4386482  24.8187675  11.9094429  30.3757019  23.8595753
  13.1567745  30.7638397  24.6297379  12.4004421  29.5191765  25.1954689
   7.2249150  34.2250366  27.8041840   6.8623128  33.3327522  28.5746899
   7.3913426  35.4560776  28.3051605   7.6364908  36.2708817  27.7610092
   7.0632219  35.9245071  29.6771545   7.4579382  35.1962051  30.3855877
   7.6959953  37.3641472  29.9454327   7.1848040  37.9992256  29.2219257
   7.4210463  37.7829437  30.9134789   9.2041674  37.4690742  29.8260422
   9.9379807  36.6341133  30.3143425   9.6351051  38.5105553  29.1684895
   8.9956656  39.2105598  28.8203316  10.6089211  38.6030159  28.9170303
   5.5876827  35.8301163  29.9620514   4.7737622  35.4547729  29.1185627
   5.1880002  36.1653290  31.2450733   5.8426008  36.3977242  31.9782791
   3.7678125  36.2648010  31.5635147   3.2241831  36.2033272  30.6207581
   3.3752878  35.1223183  32.5398369   2.3607199  35.4271317  32.7964325
   3.4995570  33.7552872  31.8430157   4.4941087  33.5929604  31.4275379
   3.1837320  32.9796104  32.5406380   2.8646605  33.7559242  30.9570045
   4.1620970  35.1415710  33.6904144   3.7481003  35.8221092  34.2262077
   3.4393501  37.6362572  32.1357918   4.2451916  38.4733696  32.6165657
   2.1372902  38.0585976  32.1493454   1.4526621  37.4568481  31.7142830
   1.6753371  39.4059334  32.3093262   2.4453681  40.1299820  32.5756073
   1.0466332  39.9846420  31.0222702   0.2627784  39.2795906  30.7455425
   0.5751920  40.9347801  31.2734241   1.8778802  40.1831169  29.6930618
   2.3524315  39.2279434  29.4682312   1.1729553  40.5752144  28.9599590
   2.8683560  41.3852577  29.7934265   4.0756364  41.1741829  29.5133533
   2.3619082  42.5115280  29.9788837   0.6425146  39.4270706  33.4929276
   0.1376315  38.3775482  33.9703751   0.3636725  40.6127167  34.0072250
   0.7331631  41.3601570  33.4372215  -0.5696728  40.9410477  35.0776138
  -1.2367282  40.0903664  35.2171822   0.1483906  41.2413254  36.3583832
   1.0419124  41.7986183  36.0770531  -0.4412657  41.8286362  37.0622826
   0.6587575  39.9666328  37.0570526   1.3183482  39.3764572  36.4208679
   1.4573973  40.4205284  38.2617455   0.8407113  41.0208321  38.9306488
   1.9348078  39.6280403  38.8380623   2.2158880  41.1904984  38.1205559
  -0.4477967  38.9680519  37.5643425  -0.8399071  38.4014549  36.7197571
   0.0125693  38.3275795  38.3166428  -1.2242011  39.5751648  38.0298576
  -1.4576555  42.0850525  34.6355095  -2.6714180  41.9973297  34.9374542
  -0.9459932  43.1725044  34.1789742  33.4844704  44.0208168  46.2607307
  33.1284370  44.6045799  45.5173874  32.8058929  43.2902069  46.4214973
  33.6659775  44.6293411  47.0461388  34.7531128  43.3684120  45.9621811
  35.3865623  44.1855583  45.6170540  35.3655548  42.7489281  47.2248421
  35.2719841  43.3135605  48.1524925  34.8746910  41.7874107  47.3752975
  36.7865067  42.3088684  46.9568024  37.3365288  41.8417816  47.7737503
  36.6381187  41.5530396  46.1855698  37.9473610  43.4752312  46.1574326
  38.3117409  44.4904251  47.6701622  38.9553375  45.3409462  47.4454269
  37.3554344  44.8643036  48.0359459  38.8050995  43.8978157  48.4405594
  34.5292053  42.3891487  44.7543564  33.4494820  41.8051910  44.6511993
  35.5572014  42.0977249  44.0014763  36.3778763  42.6840591  44.0544128
  35.4697609  41.1000099  42.8809242  34.5808640  41.2693443  42.2732277
  36.6926498  41.3890038  41.9922829  36.5032234  42.3403816  41.4951973
  37.6453133  41.3102722  42.5160561  36.9646530  40.3559914  40.8932953
  37.8977661  40.6182060  40.3946533  37.0445137  39.3265190  41.2424469
  35.6667519  40.3469582  39.6239662  36.3576660  39.2441177  38.3321838
  35.5806198  39.1244469  37.5772133  37.2322273  39.7509956  37.9243622
  36.6169701  38.2796822  38.7688980  35.4419212  39.6792488  43.4075050
  35.9979820  39.4289207  44.4653778  34.8301048  38.7682228  42.7255936
  34.5858994  39.0162926  41.7774734  34.9200401  37.3128510  42.9616661
  35.3736305  37.1992569  43.9462738  33.4749489  36.6105804  43.1037483
  33.7122612  35.5722160  43.3352470  32.6205673  37.2334747  44.2367554
  32.0066757  38.0486107  43.8536224  31.9183807  36.4783134  44.5899811
  33.2052002  37.6172447  45.0728302  32.6469879  36.5313492  41.7695084
  32.4400330  37.5351486  41.3984947  33.3578186  36.1635017  41.0295715
  31.3874760  35.6671600  41.7711525  31.5315666  34.7506981  42.3433685
  30.5104313  36.0806656  42.2690544  31.1297569  35.3024559  40.7768288
  35.9152298  36.6984253  42.0317764  36.0297241  37.0495682  40.8564758
  36.4738159  35.5126877  42.3701439  36.3423576  35.2368279  43.3328056
  37.4496880  34.6763496  41.6901321  37.3978577  34.7713928  40.6055183
  38.9231529  35.0374222  42.0998993  39.1435509  34.8249168  43.1460190
  39.5666695  34.3376808  41.5666504  39.2796211  36.4792709  41.7676659
  38.7419014  37.2453918  42.3262520  40.2952805  36.5702744  42.1526985
  39.3053474  36.8567085  40.3115692  40.0275803  36.1133461  39.9740944
  38.4321709  36.5133553  39.7567978  39.6996307  38.2221985  39.9180717
  39.8516006  38.8788071  40.6703148  39.8382950  38.6495018  38.6668892
  39.6219025  37.8440781  37.6742210  39.4697151  36.8617287  37.8529167
  39.7935562  38.2078094  36.7477570  40.0961266  39.8934975  38.4225922
  40.1529694  40.2104721  37.4653053  40.1934814  40.5667191  39.1691818
  37.2101707  33.2217331  41.9692116  36.5755081  32.8909035  42.9941750
  37.7678032  32.3368568  41.1198044  38.1633186  32.6925316  40.2612228
  37.7586937  30.8876896  41.3630104  37.0503197  30.6551437  42.1581421
  37.4328041  30.3478985  40.4738960  39.1607742  30.4073029  41.8408852
  40.1384544  30.8608894  41.2532082  39.3078079  29.6855278  42.9735565
  38.4879227  29.6042633  43.5577507  40.5154991  28.8696995  43.2540092
  41.3921776  29.1774044  42.6840439  40.8470612  29.0943947  44.7730179
  39.9685898  28.8065090  45.3505173  41.9823303  28.1379108  45.1669960
  41.6763306  27.1197338  44.9266243  42.9514923  28.4039803  44.7450523
  42.1976547  28.1199684  46.2353668  41.2829247  30.5960312  45.0934067
  42.3478813  30.7448368  45.2718010  40.9881554  31.2858486  44.3026085
  40.5731277  31.0575695  46.3046951  40.9623947  30.4043331  47.0856247
  40.7509766  32.1245422  46.4390106  39.5267410  30.7564716  46.2544899
  40.2687569  27.4097443  42.8794518  39.1872368  26.8184566  43.1014175
  41.2498360  26.7770786  42.1416435  42.1417847  27.2443008  42.0627098
  41.2272301  25.3839912  41.8160667  40.2284317  24.9512920  41.8733139
  41.6757469  25.2105083  40.2895126  42.0792236  26.1817551  40.0031776
  42.5000229  24.5024738  40.2037277  40.6053772  24.9479008  39.2118454
  39.9115372  25.7874813  39.2541237  41.0169334  24.9406338  38.2025528
  39.6598587  23.8147564  39.2475586  38.9699554  24.1103592  40.0379715
  39.0465965  23.6360016  38.3643494  40.3777046  22.6301479  39.7477951
  40.3612823  22.4436684  40.7402916  40.9406052  21.6933784  39.0540848
  40.9060516  21.7456093  37.7601089  41.0840759  20.9382648  37.1799355
  40.4990196  22.5239754  37.2615318  41.6890297  20.7132645  39.5335999
  42.0686417  20.1208801  38.8089790  41.7445374  20.5369625  40.5265465
  42.2816353  24.5640888  42.6388130  43.3985901  25.0363064  42.9337196
  42.0214844  23.2928448  42.9086380  41.1340294  22.9943619  42.5299110
  43.0251808  22.3129845  43.4339867  44.0035896  22.5088654  42.9952965
  43.0973053  22.4120445  44.5170784  42.7447929  20.8534851  42.9968109
  41.6749077  20.6399460  42.3884430  43.5581741  19.8885803  43.4376945
  44.2839241  20.2576313  44.0353470  43.3823318  18.4294853  43.2824516
  42.3858986  18.1383915  43.6148453  43.5912514  18.0307560  41.7724380
  43.3893204  16.9792576  41.5682831  42.9093285  18.6533909  41.1932869
  44.6087379  18.1788387  41.4106522  44.3879662  17.5976543  44.1221466
  45.5059853  18.0806789  44.4454994  43.9985046  16.3874416  44.4246559
  43.1951065  16.0940571  43.8874664  44.7142639  15.3626690  45.2405281
  45.7769775  15.4297953  45.0076447  44.6832352  15.6185360  46.7156181
  45.1049995  16.6068516  46.8984985  43.3400383  15.4883718  47.4477692
  42.6069946  16.1728535  47.0208893  42.8378105  14.5312767  47.3069801
  43.3976250  15.6661339  48.5216370  45.5628967  14.7775345  47.3133621
  45.9855881  15.2323351  48.0455399  44.2573891  13.9354725  44.7869873
  43.3778915  13.8051615  43.9804001  44.7198830  12.8111753  45.3560333
  45.3985138  12.8662682  46.1020432  44.4383011  11.3800001  44.9044113
  43.4329529  11.4297628  44.4861946  45.4162254  10.9118805  43.8145905
  45.1974640   9.8622627  43.6182556  45.3771820  11.6875019  42.5272675
  45.4611053  12.7331200  42.8234673  46.0650635  11.3221407  41.7647514
  44.3908653  11.4362993  42.1371613  46.6727142  11.2269621  44.3533440
  46.9134674  10.4914703  44.9213982  44.4921532  10.2885580  45.9613609
  45.0293617  10.5165977  47.0051422  43.9976006   9.0820189  45.6766777
  43.4961510   8.9313288  44.8129997  44.0154877   8.0285883  46.6325073
  44.9199753   8.1384201  47.2307968  42.7572174   8.1209507  47.5910416
  42.8508415   7.2314510  48.2140388  42.7168274   9.3894110  48.4896851
  42.6116447  10.3226128  47.9363594  41.9539986   9.1332502  49.2249260
  43.6297035   9.4384623  49.0832672  41.4011612   8.1424637  46.8298874
  41.2458687   9.0222359  46.2053947  41.4894485   7.3457241  46.0913010
  40.5871201   7.8422627  47.4896774  44.1528320   6.7462354  46.0270195
  43.8154068   6.5865841  44.8464737  44.7322731   5.7559137  46.7022362
  45.0000038   6.0440507  47.6325035  45.0716057   4.3543334  46.2721062
  45.1811066   4.4622884  45.1930084  46.4592934   3.9563119  46.9374504
  46.3709450   3.8172657  48.0149307  46.6686516   2.9302266  46.6350937
  47.5911179   4.9724751  46.6826897  47.3938026   6.0052109  46.9701309
  48.4642296   4.6702223  47.2609863  47.8989716   5.0568099  45.1824989
  48.0568695   6.1527591  44.6225548  47.8401108   4.0451436  44.4639854
  43.9192543   3.2736938  46.4173431  44.0570602   2.2101226  45.8170090
  42.8278542   3.6686468  47.1373978  42.7743111   4.6034513  47.5160446
  41.7448006   2.7739139  47.6442642  41.6573029   1.9720078  46.9111938
  42.1064148   2.1121831  49.0019417  42.0905914   2.8581531  49.7965355
  41.2651291   1.4530165  49.2160416  43.4268494   1.3452026  49.0499840
  43.4733963   0.5680221  48.2871437  44.2555580   2.0488398  48.9710121
  43.6282692   0.5766829  50.3839989  42.7691727  -0.0092182  50.7107620
  44.5570526   0.0231978  50.2457542  43.9335327   1.5394236  51.4994240
  44.1425400   2.5218680  51.3935051  43.8774757   1.2568914  52.7915649
  43.5693855   0.0990165  53.3088112  43.0118294  -0.5177945  52.7354202
  43.5963821  -0.1159053  54.2953110  44.2234306   2.1832044  53.6175652
  44.4059029   3.1006024  53.2365227  44.2233849   1.9785024  54.6066017
  40.4611931   3.6263766  47.6837387  40.4205513   4.8165536  48.0440445
  39.3330765   3.0162842  47.3529358  39.4926491   2.1415710  46.8738594
  37.9856377   3.6074204  47.5478745  37.9132919   4.6705279  47.3183784
  37.0783768   2.7643404  46.5420876  37.4111366   2.9617038  45.5230598
  37.2072334   1.7165982  46.8136253  35.5814438   3.1331184  46.5595512
  35.2155266   4.2152863  47.1060143  34.7585640   2.3726375  45.9683914
  37.4982185   3.3308949  48.9779396  36.8547783   2.2700679  49.2386017
  37.6122322   4.3044882  49.8847771  37.9927864   5.2063036  49.6357689
  37.1699448   4.2261887  51.2943001  36.1449013   3.8615324  51.2278671
  38.0811043   3.3037696  52.1433792  37.9218597   2.2577479  51.8814888
  39.5251160   3.5973201  52.1099548  39.9938240   3.0818145  52.9482040
  39.8463631   3.1272645  51.1804619  39.8171768   4.6391335  52.2419624
  37.6719322   3.4481082  53.4637260  36.8455620   2.9624543  53.4103012
  37.1171494   5.5944085  51.8147240  37.8580856   6.4427433  51.3740730
  36.1397591   5.9069629  52.7529488  35.6086655   5.1712379  53.1965103
  36.0602150   7.1724319  53.4167557  35.8717079   7.9487433  52.6751976
  34.8725510   7.1133914  54.4720078  34.0064430   6.8895249  53.8492279
  35.0675774   6.3214703  55.1951408  34.4336662   8.4288483  55.1281509
  35.1187592   8.7307816  55.9203568  34.4940720   9.1885796  54.3488808
  33.0522957   8.3550587  55.6722794  32.0934143   8.5553789  54.8927116
  32.8682671   8.0964661  56.8706093  37.4280701   7.5954843  54.0950394
  37.8331337   8.7659693  54.0849609  38.1568947   6.6370935  54.6566353
  37.8219376   5.6922588  54.5333939  39.4076385   6.8211999  55.4431229
  39.2332306   7.4420938  56.3218575  39.8784485   5.3813443  55.7560081
  39.9964447   4.9235005  54.7738876  40.8876724   5.4574914  56.1606941
  38.9649467   4.4880414  56.5902023  38.0360374   4.3890195  56.0285759
  39.4306335   3.5111349  56.7201691  38.7772141   4.9891810  58.0121422
  38.1647682   4.2378578  58.7973518  39.1918793   6.0913329  58.4059067
  40.6357193   7.4277377  54.6659966  41.4894218   8.0937567  55.3174324
  40.6145630   7.2765241  53.3358116  39.7135010   6.9533882  53.0136757
  41.5799828   7.8116398  52.3427734  42.5116463   8.0361948  52.8620796
  41.9274826   6.7184124  51.2904663  41.0584145   6.4222360  50.7030144
  42.5521355   7.2228365  50.5532646  42.5707550   5.3868794  51.7782784
  42.1956520   5.0484304  52.7441216  42.3177719   4.6764846  50.9912338
  44.0601044   5.5352354  51.8696251  44.6203041   6.6969600  51.9070854
  44.7054558   4.5239244  51.9021263  40.9677773   9.1013536  51.7793541
  41.6215668  10.1390829  51.9795265  39.7084389   9.0630693  51.3187447
  39.2534409   8.1613941  51.3111420  39.0392494  10.1110287  50.5720253
  39.6665535  10.2985506  49.7005730  37.6893921   9.6410847  50.1557999
  37.3088646   9.0706234  51.0030708  36.8789673  10.8086605  49.6940536
  36.4445000  11.3174095  50.5545845  37.3322639  11.5901594  49.0842285
  36.0087357  10.4491444  49.1449203  37.8487473   8.6374054  49.0022430
  37.9217186   9.2548256  48.1069374  38.6891289   7.9751868  49.2103958
  36.6544991   7.7786312  48.6970329  36.3990936   7.1033731  49.5136604
  35.7906075   8.4404650  48.6356659  36.9291840   7.1719871  47.8341141
  39.0232239  11.3676548  51.4854660  39.4824142  12.4709291  51.1683235
  38.4393311  11.1757889  52.6751328  38.0950699  10.2634649  52.9382858
  38.1025314  12.3340969  53.5239639  37.5643959  12.9876995  52.8374405
  36.9970474  11.8286562  54.4892807  36.1853561  11.4805508  53.8504677
  37.3556290  11.0179529  55.1235352  36.2790489  12.8162413  55.3999634
  36.1740417  13.8293562  55.0118027  34.8911476  12.2567272  55.6938248
  35.0456772  11.3391075  56.2614555  34.3637123  13.0472813  56.2276230
  34.3659363  11.8798828  54.8161926  36.9216156  12.9149618  56.8325195
  36.7820053  11.9532270  57.3261566  37.9335785  13.2713966  56.6401901
  36.5121193  13.7366858  57.4200401  39.3175468  13.0405483  54.0635033
  39.4316559  14.2545719  53.9817352  40.3454285  12.1973171  54.3839989
  40.3066559  11.2740688  53.9763107  41.4960899  12.7090302  55.1461220
  41.1613274  13.4626312  55.8589478  42.1067581  11.5238991  55.8743706
  42.3297424  10.6808300  55.2204514  43.0198326  11.8777580  56.3531036
  41.1790123  11.0322304  56.9834938  40.1552658  10.9132214  56.6286964
  41.5525322  10.0529394  57.2827873  41.2683220  11.8845387  58.2354164
  41.7221909  12.9850473  58.2858162  40.8024178  11.3957949  59.3716774
  40.4137764  10.4643850  59.3325081  40.8474197  11.8523312  60.2714844
  42.3550453  13.4800148  54.1838608  42.6536446  14.6232872  54.4429741
  42.6315002  12.9033909  53.0351486  42.3186531  11.9779606  52.7786217
  43.3157806  13.6485853  51.9268684  44.2428169  14.0053225  52.3757019
  43.8152199  12.6980896  50.7552490  43.0058556  12.0050726  50.5255394
  44.0536766  13.4428272  49.9959030  45.1413536  11.9358854  51.0605354
  45.5942574  11.5747509  50.1371956  45.8313980  12.4901524  51.6967163
  44.7724419  10.6605797  51.8971748  44.3157272  10.9452047  52.8450661
  44.1389999  10.0308723  51.2724190  46.0507851   9.9075413  52.1343269
  46.4940681   9.4836416  51.2332687  46.7594032  10.6673136  52.4640388
  45.8172493   8.8023787  53.0617294  45.3466911   8.9407053  53.9446449
  45.3060112   8.0908947  52.5592079  46.6618690   8.3410692  53.3681793
  42.4913521  14.8349104  51.4453773  43.0426178  15.8881083  51.1083946
  41.1177902  14.8188496  51.4152260  40.6292229  13.9892168  51.7203903
  40.3326225  15.9783134  51.0307770  40.6908188  16.3472614  50.0696983
  38.9028091  15.5816135  50.8185501  38.4054909  15.1921835  51.7068748
  38.0960770  16.7981567  50.2888680  37.8443527  17.5832672  51.0018501
  38.7327499  17.3137779  49.5699196  37.1728439  16.4339962  49.8381691
  38.7637749  14.6303864  49.8392487  39.1197701  13.8315239  50.2350845
  40.4264488  17.1509113  52.0166283  40.7054825  18.2850456  51.6670570
  40.3193436  16.8629303  53.3168564  40.1228104  15.9012947  53.5550423
  40.5198097  17.7113018  54.4781494  39.8732758  18.5888405  54.4828148
  40.1697083  16.9848061  55.8005829  39.1087189  16.7699757  55.9280815
  40.6315880  16.0000477  55.7297516  40.5813942  17.8790550  57.0335579
  41.5819435  18.3102913  57.0012932  39.9071693  18.7336273  56.9767609
  40.5065918  17.0518723  58.3485832  40.3440475  17.7549686  59.1654892
  39.5520744  16.5328617  58.4358711  41.7014923  16.1726398  58.6988907
  41.8148727  15.3685589  57.9717712  42.6974182  16.6147919  58.6718254
  41.4295197  15.6308870  60.0142822  41.5126419  16.3665123  60.7013359
  40.5512886  15.1463108  60.1325798  42.1924973  15.0040588  60.2265320
  41.9275932  18.2398262  54.5041733  42.1152992  19.4133129  54.7474213
  42.9433060  17.4406662  54.1819763  42.7672348  16.4839802  53.9102211
  44.3495750  17.9776344  54.0267296  44.6236763  18.5194702  54.9319267
  45.3700600  16.8805962  53.9290619  45.0837631  16.2652073  53.0761642
  46.3280563  17.3165169  53.6456528  45.4118195  16.0640450  55.2441711
  45.8594780  16.6620407  56.0379639  44.4127541  16.0104084  55.6767197
  45.8487930  14.5984316  55.2125053  46.4394264  14.0317411  54.3059578
  45.5456314  13.8477430  56.2010078  45.8352127  12.8811102  56.1578293
  45.0969505  14.2160177  57.0275459  44.5770798  19.0002937  52.8834610
  45.3016510  19.9767170  52.9950218  43.9057770  18.6554508  51.7335052
  43.5214195  17.7215538  51.7192039  43.8847656  19.6157970  50.5974884
  44.8983536  19.9610653  50.3936768  43.3240166  18.9453793  49.3745766
  43.9099121  18.0404949  49.2132988  42.3385963  18.5834236  49.6678963
  43.1327095  19.7470703  48.0366974  42.6530380  20.6975288  48.2704582
  44.5215988  20.0757465  47.3488350  44.3825188  20.5582962  46.3814125
  45.0480957  20.8118973  47.9562759  45.1850510  19.2125053  47.2963371
  42.1343422  19.1007385  47.0974312  41.7328796  19.8482056  46.4131584
  42.5871010  18.2768211  46.5458221  41.2195168  18.7906399  47.6024361
  43.1335793  20.8479996  50.9285278  43.5824280  21.9458447  50.4802742
  41.8951607  20.7714043  51.4302673  41.5966339  19.8921890  51.8277168
  41.1881371  21.9567146  51.7415581  41.0411682  22.6308441  50.8977242
  39.8328400  21.6247215  52.3773727  40.0450783  20.8658543  53.1304855
  39.5503922  22.5517101  52.8763962  38.7253304  21.2601738  51.3554802
  39.0888977  20.5338287  50.6286087  37.5912018  20.4774952  52.0366592
  37.2575951  20.9203949  52.9750862  36.6822739  20.5503139  51.4394608
  37.8483849  19.4362583  52.2310562  38.1170654  22.4480877  50.5948029
  37.8572502  23.3388653  51.1667519  38.8994789  22.7697906  49.9074631
  37.3136368  22.0287800  49.9891777  41.9076042  22.8029404  52.7945976
  41.9624252  24.0326576  52.6116447  42.4883842  22.2369366  53.9078827
  42.4561691  21.2481289  54.1111526  43.2249489  23.1356831  54.8114014
  42.4607925  23.8168316  55.1858406  43.9168510  22.4218216  55.9212837
  44.7467613  21.8076057  55.5718765  44.4256401  23.1742249  56.5238800
  42.8147087  21.7921925  56.8885155  41.9185448  21.5679226  56.3099899
  43.1340942  20.8612328  57.3569374  42.4580536  22.8260136  58.0531387
  42.3557472  24.0591450  57.8096619  42.1106682  22.4093533  59.2014847
  44.3803291  23.9215145  54.2055588  44.5764694  25.1305733  54.4846573
  45.1031342  23.3820343  53.1522789  45.0492210  22.4025574  52.9118195
  46.1118736  24.1548176  52.4079018  46.5881386  24.7972603  53.1485367
  47.1309929  23.2094746  51.8390388  47.2722549  22.2596684  52.3548050
  46.7276802  22.9526367  50.8595123  48.5518761  23.6917934  51.6586113
  49.1061058  22.7990074  51.3690224  48.3970718  24.3477688  50.8019714
  49.1926270  24.5016918  52.8136559  48.5516548  25.3542366  53.0382004
  49.2164993  23.9092388  53.7282829  50.6247063  24.8640156  52.4086838
  51.1687431  23.9263287  52.2952538  50.6476173  25.2567005  51.3921318
  51.2757416  25.8159828  53.2852020  51.0061760  26.7811527  53.1591682
  51.2744370  25.4824200  54.2385292  52.2203484  25.8436928  52.9287567
  45.4990158  25.0948868  51.3622971  45.8521652  26.2520599  51.3547134
  44.4923477  24.7015171  50.5779686  44.2381859  23.7242813  50.5553055
  43.7358665  25.5741444  49.6972008  44.4853325  25.9089241  48.9800377
  42.6008186  24.7789879  49.1267700  42.3171463  24.0500393  49.8858910
  41.3988266  25.6428280  48.7325935  41.0184021  26.1476059  49.6206131
  41.5200882  26.4902306  48.0578308  40.5491524  25.1179886  48.2959023
  43.0630264  24.0774536  47.7615700  43.9415817  23.4895267  48.0272369
  42.3613510  23.2683926  47.5586624  43.4541817  24.9602375  46.5966034
  42.6186333  25.4905014  46.1396790  44.1953087  25.7163963  46.8555412
  43.8865013  24.3104649  45.8356819  43.4170265  26.9279118  50.4546242
  43.8534355  27.9689808  50.0763512  42.8468018  26.7581139  51.6468582
  42.6749725  25.8777943  52.1111946  42.4390526  27.8449631  52.4843674
  41.9130669  28.5310993  51.8205452  41.5238609  27.2844753  53.6248817
  41.9459038  26.3922825  54.0874519  41.4063454  28.3660164  54.6708298
  42.3546906  28.7276382  55.0682945  40.9804878  29.2924442  54.2854996
  40.8374481  28.0201855  55.5338821  40.1269989  26.7478905  53.1832848
  39.5293961  27.6165733  52.9069519  40.2292023  26.0785408  52.3291054
  39.5479126  25.8790016  54.2262077  40.3219566  25.1964378  54.5770226
  39.3652611  26.4161320  55.1569252  38.6199493  25.3901787  53.9295044
  43.6959610  28.5650749  53.0203209  43.7726364  29.7474689  52.7182693
  44.6610947  27.9745483  53.6887207  44.5737495  26.9947300  53.9176979
  45.8409386  28.5987110  54.2983971  45.5786591  29.2697086  55.1163673
  46.8059273  27.5283985  54.8394585  46.2201653  27.0930176  55.6490402
  46.9277458  26.7771778  54.0591202  48.1862335  28.0156498  55.2702141
  48.7027054  28.3962097  54.3890038  48.1648788  28.9187412  55.8801918
  49.0102959  26.9176273  55.8828049  48.4111252  25.9314823  56.2845917
  50.2539215  26.9812145  55.8962173  46.5819244  29.4316044  53.2607498
  47.0274811  30.5809574  53.6564903  46.8813248  28.8551559  52.0602875
  46.3787422  28.0092239  51.8324471  47.6314812  29.5770206  51.0544357
  48.5384026  29.8895264  51.5720711  48.0319786  28.5260334  49.9595375
  47.1456070  27.9528923  49.6875916  48.3846703  29.1276474  49.1218185
  49.1818390  27.5401268  50.3090172  48.8877831  27.0441074  51.2340012
  49.2350349  26.7751560  49.5343628  50.5131378  28.2240906  50.5906258
  50.9810104  28.2928772  51.7969360  51.0785866  28.9781704  49.7622604
  46.9782028  30.8429966  50.4248886  47.6705589  31.7892399  50.1682167
  45.6628304  30.8021412  50.2907181  45.0951920  30.0288372  50.6067696
  44.8453789  31.9701042  49.8334389  45.3272247  32.7120895  49.1967354
  43.7512894  31.3715191  48.9237404  43.2584763  30.6020489  49.5180054
  43.0354042  32.1380348  48.6269836  44.3728333  30.7297859  47.6908073
  44.7752686  31.3846970  46.6936836  44.3397789  29.3704567  47.6392479
  44.7824020  28.9597702  46.8295975  43.8926620  28.9570255  48.4450150
  44.2368393  32.8343391  51.0580521  43.3783340  33.7451630  50.8824120
  44.6754570  32.4081955  52.2957802  45.1718178  31.5306568  52.3561707
  44.1740341  33.0476189  53.5883102  44.5659599  32.3665199  54.3436928
  44.9199181  34.3198166  53.8521347  44.3857193  35.0587082  53.2548332
  44.8716812  34.6943130  54.8746452  46.3645935  34.3966484  53.4299583
  47.4535942  33.5869255  53.8450317  47.4794502  32.8636627  54.5495338
  48.5473022  33.9682388  53.2531815  49.5582733  33.8214569  53.6036034
  48.1978302  34.9445229  52.3516884  48.7465935  35.5375404  51.7456474
  46.8468399  35.1756248  52.4364357  46.2216759  35.8854027  51.9151115
  42.6817818  33.0486183  53.8104439  42.0439034  33.9166794  54.5179482
  42.0240555  32.0728073  53.2291794  42.5869789  31.3891506  52.7435532
  40.5890923  32.0707855  52.9984169  40.4030724  33.0263138  52.5080376
  40.1092262  30.9170189  52.1583519  40.5662003  29.9967766  52.5222588
  38.5555763  30.7525482  52.0326920  38.0545235  31.7151890  51.9308090
  38.2800102  30.0738506  51.2255173  38.1290970  30.3775005  52.9630432
  40.6130714  31.0342598  50.8719826  40.2934418  31.8425903  50.4645004
  39.8505974  31.9375000  54.3158035  40.1801414  31.2233829  55.3086586
  38.7337151  32.7208443  54.4601288  38.4726372  33.2216949  53.6228218
  37.7152596  32.5629616  55.5759354  38.0498505  31.7474213  56.2170639
  37.6787186  33.8478470  56.4282875  36.8860664  33.8709183  57.1761360
  38.6312447  33.9457359  56.9490662  37.4729805  35.1499672  55.5766678
  38.2227211  35.3029518  54.8004074  36.4489937  35.0913734  55.2077217
  37.5730629  36.3834000  56.5234642  36.9514275  36.2631493  57.4107132
  38.6040306  36.3903275  56.8772392  37.2975044  37.7798615  55.9067459
  38.0052681  38.0141220  55.1115761  36.3970070  37.6864891  55.2997093
  37.1166458  38.9410400  56.8078957  36.8708992  39.7625237  56.2741585
  36.2526894  38.7388611  57.2903900  37.8748894  39.1387215  57.4451447
  36.3978958  32.1283035  55.0288315  36.1193161  32.4783821  53.8773880
  35.5023994  31.3661308  55.6605873  35.8023491  30.9009914  56.9637413
  36.1327667  31.7864952  57.5067062  36.6468124  30.2152309  56.8951149
  34.4869766  30.2813282  57.4862862  33.8998108  30.9667854  58.0974236
  34.6403275  29.5111103  58.2421646  33.7369499  29.8686733  56.2226639
  32.6534843  29.8994961  56.3377876  33.9116592  28.8160515  56.0000343
  34.2869911  30.8181744  55.0675926  34.5019646  30.0857582  54.2894821
  33.2509270  31.9065876  54.5642014  32.5948677  31.6554661  53.5624237
  33.0549049  33.0288467  55.2036819  33.4882317  33.0430527  56.1158905
  32.0996590  34.0828056  54.7436676  31.0947742  33.7208900  54.5261230
  32.0666428  35.1946449  55.8541641  33.0981750  35.4456902  56.1011963
  31.4849377  35.9841194  55.3782959  31.5030251  34.8242722  57.2421150
  31.1256332  35.7578354  57.6594124  30.6423149  34.1719856  57.0944595
  32.5030365  34.2445564  58.2243042  32.1500740  34.0970879  59.4226265
  33.5549393  33.6906242  57.9421425  32.4830475  34.6400871  53.3819160
  31.6133957  34.9043465  52.5439796  33.7666245  34.7405663  53.1017151
  34.3863831  34.6610832  53.8952408  34.3066750  35.2204552  51.8002396
  33.8018188  36.0978546  51.3960190  35.7450447  35.6511536  51.9449883
  36.3032227  34.9272652  52.5387268  36.0508919  35.8869286  50.9256897
  36.0330505  36.9579277  52.5803070  37.2254639  37.1826210  52.9126472
  35.1359291  37.7729378  52.7643127  34.1098518  34.1989937  50.7119026
  34.1419640  34.5390816  49.5059509  33.8244057  32.9298706  50.9426117
  33.8051529  32.7139091  51.9290657  33.4439812  31.9355373  50.0364227
  34.0702782  31.9655647  49.1448250  33.6451187  30.4735394  50.5153885
  32.9755020  30.2810860  51.3536453  33.2808723  29.3346996  49.5763626
  33.2863464  28.3869991  50.1148148  32.2614632  29.4551907  49.2097816
  34.0062218  29.3278503  48.7627754  35.0040245  30.1699104  51.1003723
  34.9885216  29.1570644  51.5028534  35.8155289  30.2824974  50.3814240
  35.2563896  30.8608646  51.9047318  31.9910698  32.1539879  49.5337524
  30.9952526  32.0805817  50.2918587  31.9170361  32.2424583  48.2033234
  32.7815056  32.5053596  47.7520180  30.5731354  32.2777557  47.5067558
  29.9146824  33.0550194  47.8945732  30.8483658  32.5492439  46.0532417
  31.4894791  31.7393608  45.7051582  29.5937786  32.5858765  45.1229248
  28.9655800  31.6954536  45.0979652  28.9021587  33.3335419  45.5112038
  29.9084568  32.8543968  44.1144753  31.5925636  33.9223824  45.8528175
  31.8508911  34.1428719  44.8170815  30.9873562  34.7715683  46.1701584
  32.5096092  33.9111633  46.4418869  29.9007912  30.9399452  47.5816994
  28.7586536  30.8578796  48.0456581  30.5654144  29.8395119  47.0965996
  31.5499115  29.9776592  46.9183350  30.1626225  28.4400463  46.9966393
  29.7757702  28.1667900  47.9783592  29.0943413  28.2036858  45.9345245
  28.8768806  27.1386089  45.8544388  28.2306385  28.7814388  46.2636414
  29.4796143  28.7313042  44.5468483  29.8237762  29.7392445  44.7786026
  30.3236122  28.1984482  44.1088600  28.2867317  28.9946518  43.6241112
  27.2592335  29.5136986  44.0978165  28.4127464  28.6552067  42.4045486
  29.3211174  28.3314323  42.1043205  27.5815697  28.6755047  41.8311081
  31.3994064  27.6369877  46.6433640  32.3879051  28.1412868  46.1154137
  31.2838707  26.3004646  46.7376213  30.4365234  25.9075108  47.1219215
  32.3523293  25.3610611  46.4559059  33.1058807  25.8131466  45.8110161
  32.8472748  24.9433174  47.8657188  33.1616287  25.8251438  48.4239883
  32.0776405  24.4315948  48.4435616  34.1538811  24.1192036  47.7617607
  33.9469910  23.4295845  46.9433937  34.9826736  24.7443161  47.4294395
  34.6542625  23.0850449  49.1566772  35.1959267  24.3733673  50.3409309
  35.3327751  23.9151173  51.3204155  36.1392288  24.8214664  50.0286980
  34.3908691  25.0832062  50.5309563  31.8586769  24.1587334  45.6066742
  30.7221737  23.8878403  45.5989075  32.6878815  23.4579334  44.8465843
  33.6332855  23.8113918  44.8837128  32.3652420  22.3563099  43.8872719
  31.4293556  21.8377209  44.0953217  32.1738281  22.9757576  42.4517632
  31.3836098  23.7262363  42.4726677  33.0710602  23.5411358  42.1999092
  31.7931423  21.9230728  41.3587189  32.5250854  21.1196175  41.2761574
  30.3903484  21.3882484  41.6336975  29.7450790  22.1876621  41.9979248
  30.1204929  20.9364204  40.6791649  30.5109177  20.5673504  42.3405838
  31.7275505  22.6785069  39.9918022  31.8717003  22.0324917  39.1257858
  30.7551022  23.1708908  39.9921455  32.4531021  23.4868984  39.9013977
  33.4547691  21.3381310  44.0624771  34.6218109  21.5827389  43.7080040
  33.1445847  20.1437035  44.5502815  32.1877518  19.9180794  44.7819481
  34.0370445  19.0307121  44.7042809  35.0757179  19.3567905  44.6500778
  33.7344322  18.2158451  45.9317398  32.6485481  18.1927433  46.0235405
  34.1797829  17.2449188  45.7147942  34.4007988  18.6179466  47.2660027
  34.1075058  17.8603764  47.9927521  35.9346924  18.6681595  47.1461334
  36.3833389  18.8460560  48.1234589  36.3009415  17.7725563  46.6442795
  36.2509918  19.5597286  46.6046829  33.8290749  19.9817772  47.7618675
  34.0462303  20.0114861  48.8296051  34.3255386  20.8167610  47.2674713
  32.7491989  20.0296745  47.6216164  33.8174629  18.0912781  43.5133972
  32.6981583  18.0791607  43.0057755  34.9141884  17.5175610  43.0283165
  35.7569427  17.8582840  43.4685097  34.8111267  16.6781273  41.8211784
  33.8098831  16.2476425  41.8384247  34.9460564  17.5325356  40.4775848
  34.0990143  18.2178612  40.5084190  35.8395538  18.1558971  40.5120430
  34.9214020  16.6393623  39.3450165  35.3862610  17.0566139  38.6160393
  35.7369003  15.4385300  41.8351974  36.7766075  15.4107904  42.4947319
  35.2254486  14.3635931  41.2522697  34.3061981  14.3948727  40.8350220
  35.6924362  13.0365019  41.4683647  36.7485809  13.0915461  41.7322464
  34.9791565  12.5732193  42.7526512  33.8953934  12.6718035  42.6905708
  35.3356514  11.5487585  42.8598480  35.2492142  13.1717844  43.6226425
  35.5865746  12.1367960  40.2382812  34.4745407  12.0293779  39.6631203
  36.5878830  11.2866697  39.9623108  37.4542885  11.3944464  40.4700775
  36.5076904  10.2240705  38.9663277  35.9564209  10.5965586  38.1029282
  37.8716660   9.8804541  38.3647842  37.6695633   9.2542086  37.4958344
  38.6294174  11.2353630  37.9767265  38.8101921  11.8514986  38.8575211
  39.5931320  10.9384680  37.5629463  38.2699928  11.7976980  37.1149254
  38.7748566   9.2604656  39.1551933  38.7583923   8.3153772  38.9874458
  35.7136154   8.9959965  39.5286293  35.7896271   8.7711515  40.7282486
  34.9857407   8.2629404  38.6678734  34.6797256   8.6873350  37.2987061
  35.5312767   8.6601696  36.6188354  34.4564362   9.7538910  37.3251762
  33.4710732   7.9447994  36.7732964  33.6224899   7.6891522  35.7245750
  32.5264130   8.4730520  36.9024124  33.4195862   6.6666183  37.5872383
  33.9282417   5.7925644  37.1805458  32.3628120   6.4715691  37.7697067
  34.0806961   7.1216636  38.8947868  33.3212738   7.4535589  39.6027565
  34.7587700   5.8499832  39.5699501  34.0323715   4.8719749  39.7895012
  36.1268196   5.8495145  39.8548317  36.6096535   6.7233825  39.7020988
  36.8162193   4.9588299  40.7924309  36.7302132   4.0312576  40.2264709
  38.3063087   5.3171167  40.7846565  38.4051971   6.1904459  41.4293404
  38.9065018   4.5203986  41.2241096  38.8683090   5.5503922  39.3396912
  39.2843323   4.5183697  38.7668190  39.1358185   6.7273111  38.9627190
  36.2335815   4.8107638  42.2032318  36.2778244   3.7578111  42.7980652
  35.7127686   5.9193635  42.7083969  35.5488930   6.7207766  42.1159592
  35.4509468   6.0983624  44.1378517  35.7707214   5.2368283  44.7240295
  36.1277618   7.3702364  44.6777382  35.7223511   8.3076105  44.2968597
  36.1019554   7.2613082  45.7619781  37.6097565   7.6437650  44.2881279
  37.8062859   7.5930185  43.2171936  38.1633186   8.9864798  44.7242050
  39.2202759   8.8369532  44.5037994  37.7071304   9.8946438  44.3302116
  38.0717239   9.0250378  45.8096657  38.3412170   6.5139198  44.9584618
  38.0818520   5.5878510  44.4454079  39.4230499   6.5712399  44.8382645
  38.0811119   6.4765687  46.0163155  33.9496040   6.1652856  44.4307632
  33.3302040   7.1093330  43.9255829  33.4566002   5.2351785  45.2052956
  34.0321579   4.7455087  45.8754120  31.9932671   4.9460249  45.4075737
  31.3979988   5.6920929  44.8811340  31.6362858   3.5188048  44.9142151
  32.0597992   2.7533293  45.5644341  30.5644283   3.3321860  44.9805145
  32.1183319   3.2878900  43.4854660  33.3629303   2.7757850  43.1916161
  34.0247421   2.3744302  43.8404732  33.5260887   2.8882480  41.8806610
  34.3896027   2.4897480  41.3688507  32.4306145   3.4670103  41.3647079
  32.2823715   3.7832627  40.4170227  31.5854378   3.8228922  42.3474007
  30.5841446   4.2086968  42.2250557  31.5678349   5.0041399  46.8778267
  30.3645306   4.9484620  47.1855316  32.4711304   5.2483149  47.7627411
  33.4184074   5.2496161  47.4123611  32.2411957   5.1240268  49.2061729
  31.5990467   4.2769384  49.4473991  33.5760117   4.8741674  49.8965912
  33.3024483   4.7489862  50.9442558  34.0450172   3.9345679  49.6045494
  34.2050018   5.7399511  49.6894913  31.6065025   6.3904524  49.8308830
  30.7993507   6.2263632  50.7452736  31.9351978   7.6289964  49.3935699
  32.6872787   7.6946411  48.7226295  31.5446510   8.9152613  50.0703964
  30.4683475   8.8631172  50.2345619  32.3686104   9.1076345  51.3598366
  32.0539818   8.3682384  52.0963135  33.8628120   8.9741259  51.2426224
  34.3470230   9.6485529  50.5363655  34.3054123   9.1605406  52.2211189
  34.1756096   7.9487863  51.0452995  32.1900139  10.5540419  52.0036011
  31.1744919  10.8905296  52.2123947  32.6371994  10.4478579  52.9919586
  32.7297592  11.3295660  51.4601517  31.8647327   9.9997158  49.0693016
  33.0048447  10.0222969  48.5422440  30.8532963  10.8825130  48.8588753
  29.9390144  10.7185268  49.2554817  31.0178909  12.1954947  48.1487465
  31.2950592  12.0066814  47.1116180  29.6984386  12.9073467  48.1785202
  29.3389912  12.9067440  49.2075462  29.8402061  13.8881607  47.7246437
  28.5077000  12.2234068  47.4658813  27.5324993  11.5546846  48.3033104
  27.6105537  11.4103165  49.3707695  26.4360542  11.0541992  47.7071953
  25.8040428  10.4099522  48.3004112  26.2204857  11.1170015  46.3201408
  25.4148598  10.5369186  45.8948441  27.1743851  11.7245483  45.4950752
  27.0770512  11.8083334  44.4227371  28.2839890  12.3225288  46.0768242
  29.0095901  12.6728964  45.3576965  32.1293755  13.0902195  48.8154488
  31.9800434  13.4155550  50.0020752  33.1313553  13.6824427  48.2050705
  33.6535683  13.3120499  46.8966331  33.2117310  14.0136175  46.1890373
  33.3287926  12.3067465  46.6283264  35.1346207  13.3812504  47.1219482
  35.6029816  13.5427046  46.1510353  35.6083527  12.6199341  47.7416878
  35.3021431  14.6631060  47.9360466  34.9960365  15.4955826  47.3024979
  36.3071632  14.7736578  48.3432465  34.1924286  14.3945713  48.9778290
  34.4909248  13.6773500  49.7424164  33.7242432  15.7017279  49.6969643
  34.4048271  16.1298923  50.6190948  32.5226974  16.2007790  49.2845535
  32.1455154  15.8838511  48.4028549  31.8662434  17.3111401  49.9781952
  32.6195335  18.0973244  49.9275322  30.5195560  17.6305389  49.2872810
  30.2113228  18.6244411  49.6117058  30.6840019  17.6714306  48.2105331
  29.8031254  16.8508320  49.5459061  31.7502155  17.1010456  51.5080605
  32.0769768  18.0119305  52.3080406  31.5627060  15.8470678  52.0519142
  31.5852280  15.1412678  51.3298073  31.5989017  15.4657745  53.4814415
  30.6601906  15.8804607  53.8488121  31.3583755  13.9130020  53.6246490
  30.7080593  13.5916662  52.8110580  32.3345299  13.4641848  53.4408340
  30.8101768  13.4945650  54.9387817  31.6331921  13.5829506  55.6479607
  29.9672966  14.0784264  55.3085938  30.4416046  11.9772816  54.9412308
  29.5841866  11.8434162  54.2816734  31.2899780  11.5298548  54.4233780
  30.3090305  11.4739370  56.3643761  31.1911621  11.7129927  56.9583397
  29.4808006  11.9762907  56.8641510  30.1103344   9.9397612  56.4330750
  29.2889099   9.5000963  56.0431290  30.8080215   9.3948116  55.9468994
  30.0462265   9.6141405  57.3869934  32.7916336  16.0325375  54.2560310
  32.6581383  16.1547451  55.4758759  33.9397659  16.2393456  53.5896912
  34.0266533  16.2433510  52.5834465  35.1174355  16.6301289  54.2782974
  35.2526512  15.9119015  55.0869789  36.3286819  16.5543785  53.2410736
  36.2274780  17.3628063  52.5169792  37.2979813  16.7625179  53.6941032
  36.3324966  15.5527544  52.8111496  35.0456772  17.9461117  55.0026627
  35.6152153  18.0841923  56.0749207  34.2530594  18.8901711  54.4984398
  33.8137436  18.6691875  53.6162415  34.0311470  20.2784100  55.0185165
  34.9814720  20.8088169  55.0789452  33.3163795  21.1025429  53.9454575
  32.3741150  20.6492081  53.6376801  33.1022453  22.5644932  54.3964424
  34.0404015  22.9810905  54.7630653  32.6321297  23.2289295  53.6714439
  32.3395195  22.5349026  55.1745644  34.1413345  21.2338600  52.6644325
  34.3296165  20.2334938  52.2746582  33.5463142  21.7696934  51.9248848
  35.0785255  21.7743988  52.7970695  33.3279724  20.2172012  56.3832016
  33.3834801  21.2654057  57.0489349  32.7602997  19.1317253  56.8700333
  32.7626953  18.3146286  56.2763596  32.2273140  18.9999199  58.2817612
  31.4582787  19.7684059  58.3599701  31.5671120  17.5889759  58.5431976
  30.9685516  17.6147346  59.4537811  30.8304310  17.3446369  57.7778816
  32.4393539  16.3241119  58.6987114  33.1697083  16.3866634  57.8920097
  33.1501541  16.4222069  59.5192223  31.6444721  14.9727116  58.7124825
  30.7078915  15.1707811  59.2337189  31.4897614  14.7777233  57.6512833
  32.3631058  13.8964834  59.4433632  33.3714943  13.8627472  59.3973770
  31.8105354  12.9422617  60.0955696  30.5222282  12.6764946  59.9152718
  29.9779949  13.3498707  59.3951988  30.0261230  12.1583633  60.6262665
  32.4622841  12.1145525  60.8483772  31.8366013  11.3972120  61.1860847
  33.4716492  12.0939131  60.8190689  33.2523804  19.3077126  59.3733788
  32.9355812  19.5875397  60.4799728  34.5483322  19.1806469  59.0828972
  34.7969589  19.0220318  58.1169128  35.6903915  19.2756004  59.9690742
  35.3344116  18.8358555  60.9007454  36.8661613  18.3786945  59.4972038
  37.2694855  18.8322830  58.5918350  37.6291199  18.2138271  60.2579994
  36.5116272  16.9416046  59.1110878  35.8793488  16.8728466  58.2258759
  37.4586258  16.4253521  58.9536858  35.7552185  16.1358089  60.2233620
  35.1001663  15.1271429  59.8653793  35.5750656  16.4914074  61.4030647
  36.2333832  20.6781979  60.2416382  37.0390320  20.9009647  61.1361427
  35.7909279  21.6291466  59.4252663  35.0200233  21.3041573  58.8594093
  36.3123131  22.9250870  59.2453232  37.3238144  22.9000816  59.6507111
  36.4720116  23.2915745  57.7607918  35.4702950  23.3739529  57.3390388
  36.8962631  24.2916679  57.6717796  37.3112335  22.2583313  56.9711685
  36.9041481  21.2536240  57.0849419  37.3958244  22.5391521  55.4682159
  37.7537041  23.5682049  55.4354591  38.0497322  21.8608646  54.9200935
  36.3844757  22.4350605  55.0752296  38.7343864  22.1045113  57.4356956
  39.2118416  23.0632954  57.6378708  38.7265358  21.4066124  58.2729340
  39.3812523  21.6157055  56.7071800  35.4751434  23.9256039  60.1195946
  34.2510910  24.0604687  59.9078369  36.0246925  24.6093178  61.1388664
  37.0025520  24.5516853  61.3849716  35.1957474  25.4712391  61.9625587
  34.3739548  24.8614655  62.3379745  36.0581512  26.0005493  63.0896759
  36.9892960  26.4130173  62.7011681  35.5403633  26.8503227  63.5345192
  36.3526840  25.0363636  64.0193253  36.7961044  24.3365879  63.5342560
  34.6317635  26.6999798  61.2318459  35.2841988  27.4303665  60.4472198
  33.3131027  26.8692131  61.4278374  32.8405952  26.2103386  62.0300980
  32.5102310  27.9697914  60.9028511  31.5710278  28.0435677  61.4510803
  33.0644264  28.8939552  61.0668297  32.2927895  27.9314156  59.3602257
  32.1221542  29.0386257  58.7487717  32.3005562  26.7476330  58.7731934
  32.6033058  25.9273281  59.2787056  31.9688911  26.4431973  57.3321114
  31.9766083  27.3587875  56.7407265  33.0435295  25.5229359  56.7433853
  33.1245155  24.7350349  57.4922218  32.7042427  25.1338673  55.7833824
  34.3726234  26.1160259  56.4449081  35.2143707  26.4144096  57.4778214
  34.8685455  26.3550396  58.4992332  36.2638283  27.1476879  57.0069313
  37.0071259  27.5762863  57.5397682  36.2093239  27.2872467  55.6304474
  37.1066513  27.9089775  54.7665977  38.0074959  28.3639584  55.1511421
  36.8269119  27.8490810  53.3998375  37.4661827  28.2641792  52.6347008
  35.6517944  27.1522617  53.0056114  35.3279533  27.1724949  51.9755058
  34.7667389  26.5444660  53.8934784  33.8605919  26.1009941  53.5079308
  35.0495911  26.5779266  55.2430573  30.5554085  25.7597179  57.1637268
  30.1958427  25.3596191  56.0370064  29.7453175  25.6009560  58.1997643
  30.1167297  25.8805485  59.0964127  28.4671001  24.8230991  58.1468201
  28.6826649  23.8245792  57.7665672  27.8506737  24.8444958  59.6102600
  27.8817139  25.8606071  60.0035248  26.8571796  24.3966236  59.5882607
  28.6081200  23.9545612  60.5669556  27.8432007  23.7608013  61.3189240
  28.8782845  23.0049362  60.1050835  29.9157066  24.5147076  61.2432175
  30.3170910  25.6481819  61.0387955  30.6821041  23.8239632  62.0401459
  30.2946701  22.9880352  62.4539337  31.3813343  24.3618946  62.5318832
  27.4285316  25.4379005  57.2687187  26.6573162  24.7356453  56.7029495
  27.4916096  26.7547226  57.0873184  28.1789207  27.3540287  57.5215263
  26.6578827  27.4756813  56.1945877  25.7011490  26.9634876  56.0924873
  26.2437115  28.7994423  56.9694633  27.0842590  29.4932747  56.9562073
  25.4198284  29.2552338  56.4202995  25.6352520  28.6037598  58.3424797
  24.3952484  27.9251862  58.4663048  23.8386650  27.7124157  57.5655556
  23.8685436  27.7195721  59.8049240  22.9006157  27.2640667  59.9533501
  24.5209255  28.2861805  60.9034195  23.8611126  28.3296356  62.1141014
  24.4805679  28.3547058  62.8470726  25.7115459  29.0322628  60.7920914
  26.0335617  29.6778870  61.5957642  26.3150463  29.0497608  59.5248947
  27.2392139  29.5859776  59.3674469  27.1101017  27.7289944  54.7629089
  26.3061619  28.1849594  53.9153786  28.3703365  27.3927917  54.4076309
  28.9744720  27.1393757  55.1763344  28.9450912  27.4129333  53.0606728
  28.8014946  28.4309044  52.6984215  30.4323769  27.0609570  52.9770470
  30.6822014  26.1596966  53.5368919  31.0479527  26.8922367  51.5697784
  32.0498886  26.4956989  51.7340317  30.4575977  26.1512375  51.0307922
  31.1572571  27.8241444  51.0150681  31.2776699  28.2812996  53.4480476
  31.0730839  29.2135830  52.9216423  30.9632683  28.5823116  54.4473724
  32.3637123  28.2311516  53.3699799  28.2467251  26.3830757  52.1281624
  28.1053314  25.2112999  52.5030670  27.8928909  26.8027039  50.8772049
  27.5200691  28.2447586  50.5721207  28.4301968  28.7611103  50.2669220
  27.0163059  28.7842064  51.3741913  26.5862484  28.2579765  49.4401779
  26.6467037  29.0138054  48.6571274  25.5635605  28.2877369  49.8161125
  26.6725559  26.8776455  48.8129272  27.3335018  26.9427986  47.9486313
  25.7260704  26.4680653  48.4600677  27.3498478  25.9706554  49.8606911
  26.5492210  25.3428822  50.2518425  28.3802376  25.0040817  49.2428055
  29.2160664  25.3988266  48.4478951  28.3494453  23.6642761  49.6239471
  27.6544113  23.3555908  50.2885818  29.3733215  22.6823635  49.1460609
  30.0730858  23.2536812  48.5361214  30.1500683  22.0210400  50.3569984
  29.4990520  21.4519081  51.0205994  31.3409519  21.2180462  49.8508530
  31.7690411  20.6760864  50.6941376  30.9865417  20.5695438  49.0496407
  32.0351791  21.9083633  49.3716812  30.8114738  23.2217426  51.1126480
  30.0978031  23.5334263  51.8752899  31.6589470  22.9614315  51.7467804
  31.1592026  23.9817123  50.4129105  28.8378067  21.5918961  48.1914978
  28.4353561  20.5124054  48.5475426  28.8186550  21.9462414  46.9036026
  29.3662930  22.7356873  46.5922050  28.3591270  21.0697975  45.8166046
  27.4785728  20.5228577  46.1536293  27.7742920  21.8155842  44.5886192
  27.7127972  21.1034603  43.7656975  26.3857613  22.3994999  44.7814064
  26.5336189  23.2544117  45.4412270  26.0057926  22.7973785  43.8404388
  25.7472973  21.6418533  45.2357559  28.6352139  22.7426796  44.1153717
  28.8212833  23.3583946  44.8280258  29.4446888  19.9808311  45.4533157
  30.6482563  19.9329796  45.8556442  28.9927559  18.8787804  44.7469025
  28.0175724  18.8574142  44.4848747  29.9145641  17.8518410  44.2316055
  30.8836555  18.3462963  44.1647301  29.8794498  16.7059498  45.3107452
  29.8870831  17.0665836  46.3393288  28.9524765  16.1425304  45.2040749
  31.1274414  15.3812323  45.0731697  30.2963142  14.5467644  44.4424667
  29.4058456  17.2917061  42.8800087  28.2226830  17.3286018  42.6832924
  30.2847710  16.6813202  42.1681366  31.2234859  16.7120399  42.5395775
  29.9900684  15.9481373  40.9641533  29.0535049  15.4023838  41.0786057
  29.7995281  16.9588032  39.8154526  29.4128151  16.4421654  38.9370232
  29.0026016  17.6573315  40.0705338  31.1628933  17.5486221  39.4243927
  31.7223415  17.7982845  40.3259430  31.8003922  16.9258862  38.7967873
  30.8436928  19.1545830  38.5376892  32.4368324  19.6407299  37.9828682
  32.8220253  18.8408566  37.3504639  32.3660011  20.5120773  37.3318405
  32.9631538  19.8211784  38.9201622  30.9812145  14.9262133  40.4805145
  32.0793724  14.8979216  40.9627113  30.6065350  14.2015810  39.4104271
  29.6908703  14.3388615  39.0069275  31.5191898  13.3919830  38.6430779
  32.2274857  12.9546251  39.3467369  30.7424488  12.2204723  37.9900398
  29.8567486  11.8684053  38.5188904  30.3356361  12.5654278  37.0394554
  31.6594620  11.0509405  37.8817329  31.4899178  10.6077871  36.9004250
  32.6999207  11.3757601  37.8885689  31.5230770   9.9861164  39.0141563
  30.6100330   9.1995850  39.0124664  32.4262543   9.9816408  39.9732475
  33.2168236  10.6100245  39.9577713  32.1819305   9.4116640  40.7704506
  32.2911644  14.2149935  37.5934105  31.6815758  14.9795170  36.7880974
  33.6121140  14.0378914  37.6016464  33.9720535  13.3778524  38.2761078
  34.5529366  14.4752264  36.5024185  34.2697029  15.4910030  36.2265968
  36.0742569  14.4861860  36.8693733  36.1185303  15.0184898  37.8195305
  36.5283241  13.4964361  36.9175377  36.9098930  15.3155622  35.8876915
  37.9517555  15.0042753  35.9633064  36.5945549  15.1376038  34.8595886
  37.0716553  16.8008118  36.1932335  37.7510071  17.5028667  35.3927002
  36.3520203  17.3949184  37.0584259  34.3327980  13.5384874  35.2404060
  34.1520500  12.3363619  35.3193512  34.5112801  14.1381063  34.0407410
  34.6946030  15.1312723  34.0300446  34.3382416  13.6073637  32.7185326
  33.3125305  13.2665300  32.5776558  34.5538635  14.8308487  31.7599430
  33.7514114  15.5231018  32.0148048  35.5303040  15.2884684  31.9188328
  34.3787498  14.4338884  30.2965546  35.0592422  13.6159487  30.0598946
  33.3725929  14.1870842  29.9576817  35.0378113  15.7350750  29.2341480
  35.3971672  14.7168503  27.7380581  36.2827492  14.1035709  27.9046173
  34.5637093  14.0560942  27.4996319  35.7130585  15.3900557  26.9411221
  35.3933830  12.5125589  32.3810158  36.5566216  12.5886984  32.8490906
  35.1711693  11.5778742  31.4541264  34.2646828  11.5907612  31.0089130
  36.0850868  10.4514923  31.1507549  36.7966766  10.3113756  31.9644527
  35.2596779   9.1008453  31.0283566  34.5920906   9.1850548  30.1708374
  35.8979988   8.2526665  30.7808952  34.4206009   8.7419367  32.2469788
  34.7388954   9.2628660  33.3595695  33.5226326   7.8851576  32.0929070
  36.8491554  10.6590366  29.7713718  36.2421379  10.7113647  28.6490707
  38.1759148  10.5032187  29.8841572  38.5768929  10.2336683  30.7710934
  39.1263428  10.6333742  28.8106213  38.6381721  10.6863089  27.8374863
  39.7987213  12.0338202  28.8289871  40.2501335  12.2394590  29.7995796
  40.8968544  12.1744251  27.8295116  41.6666298  11.4309902  28.0365257
  40.5140648  11.8516197  26.8613338  41.2666626  13.1997747  27.8282051
  38.7523003  13.0476265  28.5185490  39.1813316  14.0445251  28.6196175
  38.3045616  12.8646631  27.5417404  37.9377136  12.9207668  29.2316170
  40.0764313   9.4852057  28.8144779  40.5625610   9.0632963  29.8368092
  40.3891716   9.0793228  27.5825825  39.8518105   9.4771128  26.8255444
  41.2703972   7.9319148  27.3844967  40.8769302   7.0627193  27.9115486
  41.2623291   7.5754466  25.8872051  41.8983307   8.2329826  25.2945423
  41.8445129   6.0742636  25.7973576  42.7280350   6.0841408  26.4356270
  41.1248779   5.3102031  26.0913639  42.2296944   5.9631586  24.7837543
  39.9964523   7.4528956  25.3422337  40.0534897   8.0857296  24.6226025
  42.6710739   8.2580042  27.9129295  43.2791901   9.2369509  27.4535542
  43.2371330   7.4993362  28.8425884  42.7083015   6.7192841  29.2058430
  44.4747314   7.8372583  29.5185070  44.8151283   6.9013882  29.9616547
  45.2028809   8.0841084  28.7458668  44.5932045   8.8984089  30.5371399
  45.6714287   9.0186777  31.1254807  43.5574303   9.6999674  30.9030247
  42.7648125   9.5058193  30.3079014  43.4677811  10.5351629  32.0417976
  44.3192406  11.2121410  31.9723034  42.5174561  11.0687933  32.0271149
  43.7441711   9.8427353  33.4135666  43.4284134   8.6310129  33.5696297
  44.3838043  10.5982924  34.3313217  44.7717552  11.4486341  33.9485512
  44.7572021  10.1885834  35.7071190  45.4811096   9.3799686  35.6061249
  45.2430229  11.4993038  36.4374161  46.2283096  11.6902275  36.0121384
  44.8071671  12.4431143  36.1097717  45.4459152  11.4430895  37.9596825
  44.4758873  11.2344637  38.4109306  46.4973946  10.4423828  38.3487091
  46.0820618   9.4429226  38.2195358  47.3922615  10.5567503  37.7369614
  46.6524353  10.4611263  39.4274635  45.8122063  12.7343121  38.5343208
  46.7418633  13.0467863  38.0587234  44.9334602  13.3790846  38.5473557
  45.9618645  12.6719894  39.6121979  43.5909882   9.6378183  36.4938698
  42.5256195  10.2304459  36.6423683  43.6985741   8.4781055  37.1413918
  44.5497284   7.9418993  37.0512581  42.5856171   7.8138614  37.8945770
  41.5987701   8.0468750  37.4946556  42.6694183   6.2556353  37.7908745
  43.5502892   5.8503633  38.2887917  41.9052582   5.7837801  38.4085426
  42.6074448   5.6797709  36.3812447  43.4615402   6.1193643  35.8660965
  42.7975006   4.6064787  36.3860550  41.3880234   6.0946836  35.5293312
  41.3620224   7.1833138  35.4812889  41.4843864   5.8300867  34.4763374
  40.1317329   5.5099859  36.0682030  39.9941292   4.4430194  35.8928528
  40.1027451   5.7566748  37.1295242  39.0420952   6.0955973  35.3947029
  38.1235962   5.6761026  35.4168739  38.8512611   7.0838509  35.4785919
  39.2942734   6.0752554  34.4169044  42.6083717   8.1555185  39.3956528
  43.5785713   8.6893158  39.9439392  41.4511375   7.9003286  40.0516090
  40.7484894   7.4570494  39.4772453  41.1639328   8.0561771  41.5086365
  40.1091652   7.8145642  41.6397438  41.9861717   6.9811778  42.3104897
  43.0605354   7.0610375  42.1447792  41.8176384   7.1160727  43.3788986
  41.7327156   5.5745974  41.9261436  40.6622696   5.3801284  41.9926834
  41.9216385   5.4679646  40.8579483  42.6219025   4.5557466  42.7156830
  43.6547699   4.7982435  42.4657249  42.5876541   4.7278285  43.7914734
  42.2806549   3.1197543  42.4433136  41.2280464   2.8849869  42.6014252
  42.5402145   2.9281111  41.4021568  43.0556488   2.2224019  43.2939644
  43.9902916   2.6041152  43.2650490  42.6995277   2.3443513  44.2311974
  43.0493431   1.2200314  43.1702118  41.4729271   9.5073528  42.0022583
  41.9909248   9.6937714  43.1097755  41.1112633  10.5131550  41.2292709
  40.5888290  10.3190708  40.3869553  41.4591446  11.9246693  41.5883293
  42.1439209  11.9716005  42.4350739  42.0667763  12.6240368  40.3804817
  42.9295883  12.0822868  39.9929771  41.2875023  12.6443052  39.6186295
  42.4455185  14.3565378  40.6602554  42.6585159  14.3577843  41.9791679
  40.2640305  12.7167730  42.1273766  39.2009583  12.7468767  41.4635239
  40.4329910  13.3633366  43.2853127  41.3825760  13.3467464  43.6289940
  39.5415306  14.2626724  43.9038200  38.5459404  14.2465591  43.4603806
  39.3159714  14.1099482  45.4735031  40.2740631  14.3024378  45.9563141
  38.2363358  15.1116552  45.9003868  37.5303764  15.2674570  45.0846405
  37.8110008  14.8741646  46.8754692  38.7281647  16.0750179  46.0350685
  38.9034233  12.7077427  45.8340149  38.2844696  12.8499117  46.7198944
  38.3035278  12.2459021  45.0498352  40.1391296  11.8570271  46.2414131
  39.7374802  10.8660860  46.4531212  40.8011589  11.7577238  45.3812065
  40.6247787  12.3174047  47.1018181  40.0963135  15.6132956  43.5240135
  41.2827034  15.9114742  43.4713593  39.1947823  16.5833015  43.4263344
  38.2407799  16.2525692  43.4019318  39.3899193  17.8776627  42.7381973
  40.4612350  18.0716839  42.6858826  38.8902512  17.8969307  41.2600174
  37.8302650  17.6446381  41.2896194  38.9347191  18.9320679  40.9214706
  39.8349991  17.0649033  40.3741417  40.7707710  17.5642967  40.6252022
  39.7756996  16.0287876  40.7073822  39.3101387  17.2036457  38.9243851
  38.4189644  16.5882378  38.8011665  38.9354210  18.2051277  38.7128983
  40.4009743  16.8497906  37.9931183  41.0013809  17.5453033  37.5737457
  40.6336136  15.6435423  37.4394035  40.0131302  14.6269798  38.0254822
  39.3858986  14.6693153  38.8159828  40.3294334  13.7356462  37.6711159
  41.5466309  15.4612703  36.5083885  41.8681297  16.2700977  35.9960060
  41.7921638  14.5326166  36.1962738  38.6069832  18.9384060  43.5600014
  37.4780769  18.6441803  44.0058975  39.1959381  20.0913277  43.7474747
  40.0857582  20.2607670  43.3006973  38.5299072  21.2630081  44.1813393
  37.5159302  20.9998760  44.4825211  39.1810341  21.8976154  45.4237175
  40.2550774  21.9261646  45.2400970  38.8102684  23.3020439  45.7597008
  39.2764359  23.4610863  46.7320633  39.2618980  24.0370312  45.0934181
  37.7713394  23.6175766  45.6640015  38.8718224  20.9996662  46.6525116
  39.7231216  21.1013126  47.3256149  37.8956757  21.1897316  47.0987396
  38.8885231  19.9369431  46.4107628  38.3078499  22.3409252  43.1057739
  39.2742958  22.6542950  42.3544769  37.1068611  22.9788551  42.9878845
  36.2704048  22.7331886  43.4978714  37.0181961  24.4147720  42.6182098
  38.0242386  24.8231049  42.5220718  36.2605553  24.5998554  41.2789993
  36.7670441  23.8734493  40.6434631  35.2165108  24.3172474  41.4139175
  36.3769569  26.0909634  40.8739243  35.8526878  26.6974297  41.6124611
  37.4038200  26.4307804  41.0087395  35.7689362  26.5665607  39.1757965
  36.7568550  25.8524570  37.8342171  36.5769691  26.4937344  36.9713707
  37.8101082  25.9759903  38.0862122  36.5039978  24.8279152  37.5613136
  36.2712173  25.2051830  43.7636261  35.3286018  24.6991425  44.3135033
  36.7436295  26.4388409  44.0883598  37.3694382  26.8810940  43.4304276
  36.1801605  27.2762890  45.2587967  35.2607727  26.7848606  45.5771179
  37.0777321  27.1794949  46.5572205  37.2566338  26.1278019  46.7809143
  38.0352402  27.6361599  46.3067589  36.4948540  27.7810726  47.8121872
  36.3566628  28.8619537  47.7856827  35.5162048  27.3344269  47.9878540
  37.4528923  27.4819870  49.3138313  38.9438629  28.4898300  49.0979919
  38.5310020  29.4643879  48.8374405  39.2828331  28.6742687  50.1173935
  39.6486435  28.1388969  48.3441811  35.9881134  28.7425442  44.9255981
  36.9028625  29.3540668  44.4084625  34.7859688  29.3471088  44.9834099
  34.0353737  28.7978554  45.3771439  34.5784454  30.7189808  44.5058746
  35.3580933  31.0225182  43.8072205  33.2766342  30.7946129  43.6625862
  32.5076752  30.6050339  44.4114914  33.1887970  32.0902748  42.8741531
  32.2910652  32.0994110  42.2560081  33.2836914  32.9873657  43.4859695
  34.1367264  32.1567230  42.3401909  33.3038101  29.6544552  42.7481041
  34.0314255  29.9122028  42.1773682  34.6406898  31.7093239  45.6832352
  34.1017952  31.3937111  46.7638588  35.4215126  32.7595863  45.5948792
  35.9031906  33.0554924  44.7579041  35.6254768  33.6328278  46.7709732
  34.8599014  33.5782166  47.5449333  36.9468231  33.2775345  47.4676857
  37.0088921  34.0693359  48.2142105  36.8889351  31.9842453  48.2820015
  37.8613281  31.7335911  48.7059402  36.2946053  32.2029800  49.1691437
  36.4704361  31.1771183  47.6807480  38.2209282  33.4810219  46.6630058
  38.3180084  34.5272293  46.3729477  39.0450630  33.3270149  47.3595581
  38.2336235  32.9744377  45.6979599  35.7282791  35.1593590  46.4636002
  36.0779152  35.4829750  45.2454109  35.3447227  36.0267868  47.3501205
  35.0208244  35.6695290  48.2375641  35.5234489  37.4462738  47.0346603
  35.5277557  37.6938667  45.9731636  34.4483757  38.2385941  47.6946716
  34.6400871  39.2653847  47.3831406  33.4947777  38.0005951  47.2233887
  34.4227333  38.1249084  49.2163811  33.9468880  37.1786919  49.4739609
  35.4250183  38.1143951  49.6446495  33.6536903  39.2723885  49.9021301
  33.3954315  40.3217773  49.3182640  33.2851906  39.0225067  51.1618423
  33.6518288  38.1543808  51.5252075  32.6665115  39.6160545  51.6957283
  36.9418373  37.8125610  47.4528999  37.2606735  37.5946007  48.6140594
  37.7339439  38.3833923  46.5743980  37.3244858  38.6254425  45.6834106
  39.1521645  38.6608620  46.7719078  39.3747063  38.9389877  47.8020630
  39.9261284  37.4307365  46.4486275  39.4513054  36.5328445  46.8441467
  39.9950371  36.9825821  44.9800568  40.3913918  37.8564911  44.4630585
  40.5933113  36.0978966  44.7621155  38.9970284  36.7145920  44.6332703
  41.1833344  37.5326500  47.0880699  41.0456505  37.4394379  48.0335617
  39.6194420  39.8777809  46.0482407  39.1590500  40.2100487  44.9479179
  40.4531746  40.6655884  46.6972427  40.5710068  40.4239616  47.6708069
  41.2994270  41.7387924  46.1491127  40.7821198  42.3815956  45.4368629
  41.5813255  42.8203621  47.2853661  42.0121460  43.7193146  46.8444786
  40.6028748  43.1403236  47.6436386  42.4246178  42.3206177  48.5175285
  43.3394165  41.4745102  48.4076500  42.1668777  42.7726746  49.6531143
  42.5503426  41.3426476  45.3369675  43.2230492  42.1822281  44.7564087
  42.8423347  40.0852890  45.2808304  42.3204956  39.4196243  45.8328018
  43.9322968  39.4823685  44.4450836  44.7387047  40.2150345  44.4768105
  44.4954376  38.1561165  44.9599495  43.6726532  37.4532166  44.8293686
  45.6698647  37.5374908  44.2360153  46.4817047  38.2534752  44.1080208
  45.9797173  36.7180901  44.8846092  45.2976227  37.0408020  43.3400040
  44.7593346  38.1527252  46.5053864  45.0784454  37.1592445  46.8204651
  45.4902916  38.9331512  46.7168961  43.8573112  38.4158401  47.0578613
  43.4883194  39.3311310  42.9769020  42.3785591  38.8564262  42.7586555
  44.4149017  39.6935921  42.0153275  45.6282921  40.4249001  42.2168770
  46.3870697  39.9647064  42.8497887  45.4179268  41.3615227  42.7331924
  46.1512909  40.7071037  40.8052254  46.7393456  39.8226204  40.5603104
  46.6643829  41.6606178  40.6801109  44.9686089  40.6557274  39.9157791
  45.2163467  40.4702568  38.8706322  44.3552666  41.5412216  40.0825424
  44.1143723  39.5649529  40.5924950  43.0717468  39.7861557  40.3642426
  44.3803406  38.1793022  40.0245056  45.0051956  37.3837318  40.6367188
  43.8127823  37.8505058  38.8108635  43.2484245  38.5306244  38.3219452
  43.6808205  36.4669876  38.3397141  43.0338135  35.8279724  38.9406700
  43.0758362  36.4968872  36.9596672  42.1619301  37.0877113  37.0213661
  43.7938309  36.9840164  36.2999039  42.8497810  35.0633469  36.5335083
  43.7849312  34.5176468  36.4077950  42.0904808  34.6158409  37.1748352
  42.1528587  35.3467026  35.1855545  42.7388649  35.5202560  34.1399841
  40.8759270  35.3384323  35.2377777  40.4815178  35.1747017  36.1530571
  40.3601151  35.7693710  34.4839020  45.0802803  35.7563400  38.2315445
  45.2174606  34.5830574  38.5517921  46.1250763  36.4210548  37.6570282
  46.0071411  37.3604202  37.3051949  47.3788834  35.7746735  37.3113556
  47.2370796  34.7570915  36.9473152  48.0318413  36.6488457  36.3076057
  49.0245705  36.2859535  36.0413361  47.3922234  36.6618233  35.4250946
  48.2623863  38.1154060  36.6552658  49.4071083  38.5765572  36.7160645
  47.2375145  38.8509789  36.7883873  48.2988358  35.4566116  38.5083542
  49.5185661  35.1732330  38.3012886  47.7016678  35.5981750  39.7296638
  46.7521477  35.9417114  39.7518845  48.3860931  35.5620956  41.0234489
  49.3405151  35.0490532  40.9052582  48.5252075  37.0781937  41.4179077
  47.5886536  37.6357918  41.4249153  49.0140343  37.0454597  42.3915977
  49.4547729  37.8303795  40.4633942  50.3936577  37.2766724  40.4615860
  48.9723625  37.8218155  39.4859924  49.7701378  39.2955589  40.7850838
  49.6385269  39.7006035  41.8963013  50.4363327  39.8547249  39.7848206
  50.5550995  39.3663902  38.9087372  50.7602730  40.8070259  39.8758430
  47.6197243  34.7900810  42.1098137  48.0686188  34.6325722  43.2196770
  46.4743118  34.2587738  41.7882347  46.1493721  34.6312943  40.9074745
  45.7552605  33.2681770  42.6105766  45.6010399  33.6503677  43.6196594
  44.3390770  33.0034637  42.0435677  44.4145355  32.6648445  41.0102501
  43.5730438  31.8877659  42.7423058  43.8974800  30.9112797  42.3827019
  43.6243629  31.9913139  43.8261604  42.5344391  31.9777393  42.4240150
  43.5634041  34.3147659  42.0927391  44.1602516  35.0154343  41.5088425
  42.5900345  34.1992264  41.6159744  43.3374176  35.0055542  43.4726677
  42.7761421  34.3897820  44.1754456  44.2969398  35.2749176  43.9140968
  42.9142113  36.0018883  43.3449478  46.5505447  31.9726067  42.8836746
  47.0475883  31.3902397  41.9450645  46.4822350  31.3699036  44.1011848
  45.8782654  31.7646599  44.8079300  47.2876282  30.1905956  44.4800339
  48.1362534  30.1692886  43.7963028  47.9068871  30.3037434  45.9423065
  47.1361656  30.3677559  46.7104187  48.3527260  29.3131313  46.0318298
  48.9682236  31.3584042  46.1066093  49.4079285  31.1540642  45.1303902
  48.6500816  32.3993149  46.1648674  49.9681358  31.1079445  47.2202187
  49.4852486  31.1980457  48.1932564  50.4471321  30.1374035  47.0909157
  51.0522232  32.0179596  47.1179352  50.8687935  32.8449554  46.5679092
  52.1777916  32.0799065  47.7815514  52.5625038  31.1433086  48.5908699
  53.3833313  31.2700558  49.1655731  51.8490372  30.5016251  48.9059944
  53.0319290  33.0184555  47.6398964  53.9065704  32.8825111  48.1263390
  53.0274620  33.5304718  46.7693100  46.3546867  28.9687519  44.2553215
  45.6244125  28.5165863  45.0885506  46.5137444  28.2653236  43.1197128
  47.0455399  28.7293797  42.3972549  46.0314026  26.9136429  42.7748871
  45.1101799  26.7535648  43.3350906  45.7897606  26.8962154  41.3369522
  46.6944809  26.8293762  40.7327080  45.2062492  26.0222759  41.0473938
  44.9397163  28.0223103  40.7671089  43.5680389  28.3202114  41.0660210
  43.3315468  29.4119549  40.2919731  42.3349266  29.8142910  40.1857834
  44.3428955  29.6564274  39.4216881  44.2833138  30.4128857  38.7551155
  45.3977699  28.8778362  39.7848015  46.3318176  28.6926956  39.2752190
  47.0243149  25.8630295  43.2596474  48.1700287  25.8432903  42.9075928
  46.5703812  24.9633293  44.1169739  45.6193886  25.0845127  44.4348373
  47.4052849  24.0173607  44.8979225  48.4799919  24.1395683  44.7631378
  47.2235107  24.2260685  46.4285927  46.1727562  24.1258163  46.7005501
  48.1687698  23.3717480  47.3080330  47.8124275  23.3118591  48.3363991
  48.1691933  22.3202000  47.0210648  49.2466240  23.5324574  47.2856293
  47.4802055  25.6727066  46.8699989  47.2425995  25.7159843  47.9329033
  48.4496346  26.0988941  46.6117897  46.7213936  26.3245583  46.4371109
  47.0770607  22.5283108  44.6049843  45.9186363  22.1096706  44.4718246
  48.0988503  21.7233143  44.3772812  49.0430527  22.0533905  44.5173798
  47.9530716  20.3330593  43.9182587  46.9085808  20.0301914  43.9918022
  48.2855225  20.3981514  42.4169464  49.1777649  20.9875965  42.2058716
  48.5005646  19.3989964  42.0380707  47.2008820  20.9236584  41.4759865
  46.9403152  22.2825565  41.3321304  47.4946976  22.9480572  41.9772415
  45.9235268  22.7435207  40.4438591  45.7308159  23.8043346  40.3811340
  45.1831932  21.7657337  39.6963387  44.3427048  22.1913013  38.7400589
  43.8460007  21.4335709  38.4226837  45.4084244  20.3891296  39.8442802
  44.8117218  19.6849461  39.2835007  46.4437485  20.0022221  40.7469368
  46.5319595  18.9353733  40.8899536  48.8181953  19.4420528  44.7734795
  50.0115700  19.6772556  45.0141563  48.3014984  18.3002605  45.2343979
  47.4872665  17.9386044  44.7586555  48.8593254  17.3952026  46.2590179
  49.9318123  17.5897732  46.2558022  48.3211937  17.6152096  47.6665192
  47.2542686  17.5608292  47.4501572  48.4255562  16.7732849  48.3508949
  48.6597748  18.9945431  48.3058968  48.8184662  19.8353729  47.6306763
  47.6466103  19.4470558  49.3399734  47.4355202  18.6903152  50.0955429
  47.9260216  20.4323864  49.7130089  46.6837006  19.6759434  48.8833351
  50.0600090  18.8659229  48.9986839  50.7541199  18.4788761  48.2526894
  50.3727798  19.8922882  49.1906662  50.0625648  18.1831264  49.8483200
  48.7502785  15.9305305  45.8870811  48.1971130  15.6975594  44.8223228
  49.3174591  15.0768280  46.7095909  49.8280945  15.4330835  47.5048485
  49.6327782  13.6441240  46.4089432  50.3902512  13.2948370  47.1106071
  48.4347992  12.7089920  46.5823174  47.6253624  13.1606693  46.0088196
  48.6890030  11.6813707  46.3225594  47.9081841  12.6457243  48.0623970
  47.7957535  13.6553555  48.4575005  46.9030876  12.2570400  48.2261200
  48.7658310  11.8880348  49.0496330  49.1594124  12.4014044  50.0979500
  48.8876457  10.6556997  48.8039131  50.2152863  13.5725698  44.9932022
  51.2860909  14.1808424  44.7848167  49.6789055  12.8128729  44.0797348
  48.7785606  12.3736238  44.2083435  50.1961708  12.5472775  42.7858620
  51.2608261  12.7696028  42.8578644  49.8961411  11.1226826  42.4894142
  48.8162727  10.9994307  42.5718765  50.1712837  10.9793787  41.4444885
  50.6431656  10.1304464  43.3869896  51.7264328  10.2349901  43.3261261
  50.4277954  10.2884951  44.4437485  50.2822189   8.6794958  43.0357323
  49.1966858   8.6059036  42.9701500  50.6531143   8.5862494  42.0150261
  50.9652519   7.6532521  44.0614128  52.0150414   7.9425249  44.1100388
  50.4640312   7.7940397  45.0190430  50.6464500   6.2292562  43.5751381
  50.6615601   6.1794438  42.5664825  51.4256554   5.6475000  43.8480988
  49.7806244   5.8641949  43.9455109  49.5884972  13.5078506  41.7339020
  50.0973358  13.5210047  40.6222382  48.5023041  14.2421722  42.1293106
  48.3041115  14.2961597  43.1182022  47.8408661  15.2534323  41.2899055
  47.4777565  14.6403208  40.4650726  46.5703125  15.8200445  42.0867157
  46.9976463  16.5582829  42.7653160  45.9640045  16.3680038  41.3654442
  45.9567680  15.0504780  42.5551491  48.7833252  16.3712196  40.7703362
  48.6256638  16.9993706  39.7526588  50.0336227  16.4593773  41.3373718
  50.2662582  15.9126501  42.1541176  51.0783272  17.3742580  40.8342285
  50.7605972  18.4169121  40.8290138  52.2788391  17.2268295  41.7727089
  53.0322723  17.8150406  41.2488251  51.9836922  17.7885780  43.1063614
  52.8831253  17.6804180  43.7125168  51.6423492  18.8184261  43.2112274
  51.3130035  17.1595554  43.6916885  52.9023170  15.8352041  41.7883072
  52.4825897  15.2042160  42.5717545  52.8303604  15.3642731  40.8079300
  53.9246292  16.0762463  42.0796394  51.4779053  17.0285492  39.3487244
  52.1169472  17.8408546  38.6785812  51.1671524  15.8441849  38.8401527
  50.7418747  15.1582880  39.4474297  51.2539062  15.4528236  37.4081841
  52.2907829  15.5919580  37.1021919  51.0271988  13.9369717  37.2410469
  51.5590057  13.3523903  37.9917488  49.5924797  13.4311323  37.4702454
  49.5471764  12.3911066  37.7933502  49.1046715  14.0561218  38.2182617
  49.0710335  13.4814224  36.5143814  51.5986137  13.3074455  35.9677582
  52.6874847  13.3528728  35.9873466  51.3722916  12.2411995  35.9677734
  51.2353630  13.8019094  35.0668373  50.3563042  16.2284184  36.5024185
  50.6026497  16.4156475  35.3014526  49.1910362  16.7061825  37.0032883
  49.1543655  16.6228485  38.0091782  48.2054367  17.4434643  36.2340927
  47.9916687  16.8432407  35.3497124  47.0127373  17.7281456  37.1614532
  47.3585968  18.2335644  38.0631371  46.3421364  18.4827862  36.7504692
  46.2423477  16.5083675  37.6398239  46.9590874  15.8244638  38.0944290
  45.0678253  16.9335613  38.6180534  44.4679985  17.6544552  38.0625191
  44.5365448  16.0716972  39.0218239  45.5080872  17.4169273  39.4901886
  45.6144562  15.7914925  36.4217987  45.0391273  16.5732307  35.9258385
  46.3417664  15.3720741  35.7266731  44.9607658  14.9978952  36.7837334
  48.7932739  18.7964458  35.6624870  48.3498726  19.2969685  34.6498184
  49.7197952  19.4078693  36.3976593  50.1841316  18.7755661  37.0338135
  49.9286270  20.8979187  36.3906441  49.3825035  21.3346233  35.5545006
  49.2757492  21.5915623  37.5362854  49.5018158  20.9862385  38.4141121
  49.6785240  22.5999470  37.6313553  47.7936401  21.7878685  37.5689163
  47.3342400  20.8080254  37.6991501  47.5383568  22.3213024  38.4845505
  47.0790558  22.3358803  36.2719498  47.3233376  21.7894554  35.3609886
  45.9962845  22.2150879  36.3053436  47.4574699  23.7009315  36.2033272
  48.1707954  24.0266781  35.5668068  46.7156410  24.6722469  36.7188377
  45.6691780  24.4453983  37.4972725  45.1538849  25.2594776  37.8003464
  45.4252052  23.5183125  37.8152161  47.1099815  25.9191570  36.5545502
  46.4141884  26.6325111  36.7191620  47.9573441  26.1652908  36.0631256
  51.4201088  21.3709068  36.1758575  51.9276199  22.0006828  37.0728035
  51.9630356  21.1004562  35.0017853  51.3029671  20.4817371  33.8450317
  50.5692635  21.2199097  33.5211792  50.7436295  19.5913486  34.1321754
  52.2889786  20.4015598  32.7509842  51.9396706  21.1548500  32.0448380
  52.2230988  19.5161381  32.1186905  53.6196022  20.7115631  33.3237343
  54.2667923  21.3235645  32.6954842  54.1617813  19.7882099  33.5276146
  53.2702942  21.5475807  34.6131935  54.0213051  21.2834911  35.3577309
  53.5352402  22.9767838  34.4247475  54.6582527  23.2884655  34.0572166
  52.5349503  23.8363247  34.5591240  51.5825653  23.5313072  34.7006569
  52.7280464  25.2738304  34.7279930  53.6311607  25.5879955  34.2047462
  51.5381355  26.0610580  34.1587372  51.7265053  27.1335411  34.2076759
  51.5013046  25.8192024  33.0965462  50.2167397  25.7100430  34.8876343
  49.8130608  24.5170326  34.9511261  49.4521751  26.6726971  35.2556610
  52.9293709  25.5493164  36.2509079  53.6776237  26.4925613  36.5895119
  52.2090263  24.9008007  37.1404648  51.4087753  24.3564739  36.8516617
  52.3195610  25.1554718  38.6079407  52.4290237  26.2030334  38.8885345
  51.1174507  24.6971436  39.3969383  51.1040077  23.6125240  39.5042648
  51.2044792  25.1223392  40.3968086  49.7902107  25.2437439  38.8455811
  49.5575790  24.7456703  37.9043541  48.6623802  24.9299183  39.8279266
  48.6965828  25.5832291  40.6997719  47.6800537  24.9946499  39.3600121
  48.7490463  23.9074039  40.1954231  49.6876984  26.7648373  38.4900169
  50.2182007  27.3217812  39.2623405  50.2426567  26.8884926  37.5600548
  48.6604729  27.1080990  38.3672142  53.4438019  24.4279480  39.3143845
  54.1483078  24.8898220  40.2532043  53.7886772  23.2976379  38.7433319
  53.2632065  23.0027962  37.9327469  54.9363785  22.5684166  39.0597343
  54.8628159  22.4786091  40.1435394  54.9454536  21.1071911  38.6152039
  53.9927673  20.7318954  38.9888878  54.8367348  21.0479794  37.5322571
  56.0628777  20.3491116  39.0745544  55.8977509  19.4061775  39.0023804
  56.2238884  23.2985477  38.5902557  56.4115334  23.7929993  37.5109634
  57.1261940  23.3901653  39.5957603  56.8056946  22.8985996  40.4177971
  58.4522858  24.0738811  39.6368408  58.9522896  23.9857121  40.6013718
  59.3277702  23.3967495  38.5956497  58.9485207  23.5904045  37.5922699
  60.2894669  23.8829556  38.7594833  59.5066376  21.8179836  38.6463509
  58.5457115  21.3040695  38.6710129  60.2321930  21.3775749  37.4196320
  59.7328415  21.7123528  36.5104141  61.2639961  21.7231560  37.3559227
  60.0673447  20.3029213  37.3418655  60.3414383  21.4531040  39.8674049
  59.8408928  21.7219219  40.7976151  60.4374008  20.3703022  39.7871971
  61.2812881  22.0051098  39.8587685  58.3144379  25.6126690  39.3754845
  59.2501221  26.1378136  38.7377739  57.1694145  26.2567215  39.6022682
  56.3647041  25.6629810  39.7437859  56.9355736  27.5898495  39.0018654
  57.0931969  27.5183907  37.9256859  55.4386559  27.8637581  39.1717186
  54.9359055  26.9504642  38.8535538  54.8588829  28.1916103  40.4603920
  53.8433838  28.5268078  40.2494354  54.9897003  27.3015518  41.0758476
  55.3339577  28.9588814  41.0716972  55.1322060  28.9490280  38.3298836
  54.1814346  28.8879242  38.2119865  57.8135147  28.7574387  39.5393867
  58.1313591  28.7947426  40.7243843  58.0816116  29.7899132  38.7704697
  57.7360115  29.8382053  37.8226700  59.1042404  30.8262768  39.1634979
  59.5293770  30.5468140  40.1274796  60.3440094  30.8249607  38.2526169
  59.9400024  30.9964256  37.2548790  61.0638313  31.5814247  38.5652161
  61.1026840  29.4947243  38.1424713  60.4025383  28.6794128  37.9603806
  61.6697426  29.6153984  37.2194405  61.9336815  29.2650013  39.4123268
  62.5779457  30.1280174  39.5803528  61.2717667  29.1551895  40.2713394
  62.8486404  28.0163078  39.1766472  63.4165840  28.1235085  38.2524986
  63.4485130  27.8958759  40.0787277  62.0149956  26.7778625  39.0790710
  61.5376396  26.6069679  39.9525833  61.3974953  26.9029045  38.2896614
  62.6211548  25.9979668  38.8682899  58.4939270  32.2393456  39.4179115
  59.3249550  33.0869370  39.5469208  57.1881714  32.4135780  39.2699928
  56.5654297  31.6184101  39.2706337  56.4712410  33.6494408  39.5722733
  56.7811661  34.3588448  38.8049431  54.9915314  33.4160500  39.2397957
  54.8635406  32.9412575  38.2670212  54.5153656  32.8552017  40.0440445
  54.2048759  34.6887589  39.1395607  54.3506050  35.5818138  40.0108604
  53.4413948  34.8988304  38.0601387  53.1635284  34.2433281  37.3437500
  52.9027290  35.7361336  38.2300301  56.7330284  34.2276497  40.9655380
  56.6329460  33.4717445  41.9471512  57.1779938  35.4653168  40.9808731
  57.0942192  35.9708710  40.1105270  57.4409714  36.1701088  42.2673492
  58.0588455  35.6383171  42.9909019  58.4628220  37.2900162  41.9806671
  58.7458153  37.7565842  42.9242401  59.7116966  36.7858429  41.2425423
  59.5400162  36.5364304  40.1954422  60.6294022  37.3712158  41.2995949
  59.8906059  35.8206177  41.7162857  57.8781357  38.2125893  41.0356445
  57.2768326  38.8195038  41.4734688  56.2511215  36.8847427  42.8938789
  56.2712288  37.3024597  44.0788574  55.1856995  37.1034012  42.1874008
  55.1557083  36.8155441  41.2197571  53.9707794  37.7996368  42.7070808
  54.2342529  38.4577065  43.5351067  53.4035339  38.7036438  41.5438614
  53.2758675  38.0915527  40.6510315  52.4382782  39.1045265  41.8531761
  54.3086700  39.7812157  41.0627823  54.7988052  39.3091049  40.2113266
  53.6224480  40.5214729  40.6514244  55.2013092  40.3947487  42.1900406
  54.6760597  40.8660316  43.1953545  56.4281693  40.2583160  42.1787148
  52.8681602  36.8419991  43.1472664  51.9387627  37.1440201  43.8910599
  52.9312820  35.6542015  42.6644592  53.6624603  35.5119095  41.9823799
  52.0464020  34.4290047  42.9982300  51.0066948  34.7556381  42.9774742
  52.4306793  33.3228226  41.9870911  52.2119942  33.6402206  40.9675102
  53.4823189  33.2018089  42.2469139  51.7425842  31.9743309  42.3109131
  52.0349007  31.5704880  43.2802238  50.2640877  32.1237068  42.1142197
  49.8693466  31.1085148  42.0734444  49.7975960  32.6751633  42.9305458
  50.1044922  32.4885559  41.0995674  52.3317528  31.0952930  41.2469597
  53.3964195  30.9954433  41.4582062  51.9076538  30.0960026  41.3452225
  52.0592690  31.3764858  40.2297173  52.3662376  33.9813957  44.4459496
  51.4781456  33.9760704  45.3060722  53.5578842  33.7501411  44.6649437
  26.5365124  43.5599518  50.7802887  27.2393742  44.2318420  50.5070763
  25.8381042  44.1357841  51.2283325  26.7432518  42.9029427  51.5190048
  26.1389961  42.8551674  49.5323410  25.3423252  42.1498604  49.7688980
  25.5460720  43.8284264  48.5263519  24.6059933  44.2561264  48.8748093
  26.2938404  44.6212349  48.5063400  25.3045101  43.3105316  47.0736008
  24.9891109  44.1162224  46.4106636  26.2496910  42.9432373  46.6738129
  24.0645103  41.9657822  46.8959618  22.5094624  42.9614372  47.1175919
  21.7130871  42.4036560  47.6103134  22.8112774  43.8110237  47.7301369
  22.1984425  43.1673813  46.0934067  27.2694511  42.0796089  48.9474792
  28.2682209  42.7325058  48.4979019  27.0513878  40.7966118  48.8718071
  26.1843433  40.4491463  49.2559967  27.8955250  39.9218788  48.0762177
  28.4861889  40.4247437  47.3104782  28.8795605  39.1934166  49.0718422
  29.6495781  39.8884697  49.4066162  28.3879948  38.9488907  50.0134811
  29.5276451  37.8735428  48.5733376  28.6802559  37.2162247  48.3784866
  29.9417191  38.2673569  47.6451416  30.7524700  37.2335701  49.7868843
  31.0835361  35.5786247  48.9874458  31.6160831  34.9793358  49.7259254
  30.2560329  34.8876953  48.8263474  31.5830536  35.7212219  48.0291939
  27.1039124  38.9257660  47.2078781  25.8500595  38.8814888  47.3767700
  27.6221466  38.4814682  46.0960541  28.5188961  38.8573570  45.8228416
  27.2068634  37.2685776  45.3284225  26.1454811  37.3428535  45.0916672
  27.9368095  37.1626091  43.9374161  28.9838028  36.9332771  44.1357002
  27.3478947  36.0344086  43.1407700  26.2686253  36.1828423  43.1053467
  27.7397270  35.9750023  42.1253700  27.5142460  35.1102524  43.6942749
  27.7707081  38.6046524  43.3085976  26.7162857  38.8595810  43.2022552
  28.2138958  39.3574791  43.9604683  28.4704723  38.7199173  41.9937401
  28.6941929  39.7641754  41.7756157  29.4156303  38.1770058  41.9986801
  27.8430290  38.3029938  41.2059631  27.4376030  36.0170670  46.1683655
  28.5357990  35.7759132  46.6587868  26.3367348  35.2409172  46.3266144
  25.5067997  35.6336021  45.9057732  26.3104687  33.9314995  46.9916077
  27.3544044  33.6180534  46.9985619  25.8246403  34.0995293  48.4182892
  24.7657452  34.3578720  48.4284706  25.9172783  33.1721802  48.9835739
  26.5920029  35.0667038  49.2780952  27.6561108  34.8337517  49.2392235
  26.3776150  36.0595093  48.8825302  26.2585735  35.1595879  50.7925491
  25.2515564  35.5550652  50.9252777  26.2273579  34.1435623  51.1860123
  27.2138138  35.9659882  51.6446342  26.9094391  36.8579369  52.0077972
  28.4335098  35.5864906  51.9397469  28.9896908  34.4475288  51.7121887
  29.9830894  34.3722610  51.8782997  28.4037800  33.7305756  51.3087158
  29.2813091  36.3653221  52.4846077  29.0402031  37.3237877  52.6927223
  30.2590561  36.1144676  52.5190125  25.5778503  32.7648506  46.2250481
  24.9077663  33.2133255  45.3429604  25.7355785  31.4422321  46.5779457
  26.4790459  31.2806454  47.2422142  24.9346027  30.2917633  46.1769791
  24.5510864  30.5067616  45.1795883  25.5287209  29.3784180  46.1465759
  23.7337532  29.9837856  47.0683632  23.8687496  30.0767632  48.3394470
  22.6408215  29.5216560  46.4479294  22.7478218  29.4152813  45.4492645
  21.4694157  28.9601059  47.1297417  21.7790699  28.8779049  48.1715965
  20.2736034  29.9075871  47.1334877  19.8766041  29.9328232  46.1186714
  19.3056984  29.3989506  48.1988983  18.9515858  28.3873329  48.0005760
  19.7716484  29.3822136  49.1841431  18.4727135  30.0938663  48.3053780
  20.6235714  31.4111633  47.2747879  21.3613377  31.6411896  48.0434837
  21.2561722  31.7508488  46.4547081  19.3480568  32.3215065  47.3839645
  18.7541313  32.1358681  48.2788887  19.6653709  33.3642960  47.3846397
  18.6950417  32.2049942  46.5190315  21.1176567  27.6051807  46.5380096
  20.8810501  27.4321308  45.3245468  20.9624157  26.6319427  47.4366226
  20.9606266  26.8134117  48.4301834  20.6991291  25.2936573  47.0815468
  20.7921410  25.2298584  45.9973984  21.7944374  24.3495922  47.6441040
  21.5595436  24.2361221  48.7024307  21.6375523  23.3477974  47.2442360
  23.2706203  24.7695198  47.5314293  23.4543743  24.9670601  46.4753456
  23.3824234  25.6880150  48.1075974  24.2111073  23.6748447  48.0364609
  25.1889706  23.8821049  47.6018066  24.2261696  23.6710167  49.1263504
  23.9725609  22.4307861  47.4190292  23.9199257  22.4526615  46.4106407
  23.9546318  21.1697884  47.9010620  23.8304615  20.9756317  49.1506081
  23.9227333  21.7880440  49.7435455  23.5411434  20.0650272  49.4780121
  23.8887730  20.1664276  47.0696983  23.9838753  20.2330952  46.0663986
  23.7842026  19.2668552  47.5168381  19.3037148  24.7241306  47.3713837
  18.5548992  25.2050915  48.2056313  19.0688171  23.5160866  46.8358841
  19.7430019  23.0829868  46.2210655  18.0963364  22.5389957  47.3202324
  18.3931732  22.3371105  48.3494225  17.0953941  22.9657516  47.2562294
  18.1481533  21.1757507  46.6453247  18.8525181  21.1372986  45.6114655
  17.3966503  20.1517391  47.1000595  16.8628597  20.3145885  47.9418716
  17.2388039  18.8448467  46.4687119  17.3314095  18.8741302  45.3830452
  18.3728313  17.9333324  47.0503769  19.2182255  18.4990463  46.6587334
  18.3216820  17.9562454  48.1389351  18.4423275  16.8952370  46.7253685
  15.8872004  18.1405087  46.6991348  15.2859097  18.3274536  47.7833939
  15.5362005  17.1079998  45.8721008  16.2849121  16.8766499  45.2349167
  14.1984081  16.4001923  45.7732086  13.8327732  16.1301117  46.7639008
  13.1385088  17.3177567  45.0335197  13.1868086  18.2982750  45.5071754
  13.4574308  17.4631557  43.5782776  14.4283485  17.9585323  43.5747070
  13.3911753  16.4693146  43.1355667  12.7537384  18.1945534  43.1808014
  11.9098692  16.6890411  45.1677170  11.2517033  17.3241692  44.8761177
  14.3927765  15.0000019  45.0602989  15.4432383  14.7790241  44.4561882
  13.4133301  14.0825787  44.9832458  12.5792198  14.2177372  45.5364990
  13.5801468  12.7450304  44.3392220  14.3698206  12.7416363  43.5878868
  13.9238796  11.6883440  45.4838371  13.9924669  10.7348804  44.9600983
  15.1925030  11.7995834  46.2693405  15.9728632  11.9519844  45.5237465
  15.1914082  12.6307745  46.9744797  15.3940353  10.8057013  46.6689453
  12.8845053  11.6702871  46.3717842  12.2376852  11.1453037  45.8946915
  12.3170166  12.3482809  43.4656754  11.2961054  13.0029507  43.5515175
  12.4693127  11.2589207  42.7003899  13.3540449  10.7787504  42.6180153
  11.3053484  10.7504511  41.9423370  10.3664913  11.0998869  42.3719215
  11.2017708  11.3503132  40.4769135  10.2052746  11.0975761  40.1146622
  11.2244139  12.8778696  40.3561325  10.2854986  13.2105923  40.7986526
  12.1408720  13.2220707  40.8354340  11.2247009  13.1405706  39.2982635
  12.3482351  10.8210497  39.5453224  12.3550968  11.4164152  38.6323051
  13.3234787  10.8528833  40.0311050  12.2101431   9.7956257  39.2024841
  11.2844267   9.2675362  41.9163895  12.3079767   8.5977030  41.9578171
  10.1277170   8.5862112  41.8744202   9.2889299   9.1488218  41.8765411
  10.0138712   7.1488419  41.9155388  10.7085667   6.7781219  42.6692390
   8.5392485   6.7294769  42.2509575   7.9821172   7.3527098  41.5514679
   8.3946667   5.6686850  42.0462036   7.9968858   7.0693555  43.7087212
   7.7049346   8.1170740  43.7804985   7.1171942   6.4712305  43.9463959
   9.0353680   6.6933656  44.7964172   9.3432150   5.4815583  45.0101814
   9.4671535   7.7185407  45.4554939  10.4966469   6.4661016  40.6633720
  11.0587597   5.4495564  40.7160530  10.2483101   7.0541177  39.4782028
   9.9405861   8.0158529  39.4564705  10.4885054   6.4171720  38.2069168
  11.2428255   5.6358542  38.2998962   9.1869144   5.7044663  37.7202492
   9.3393621   5.4176421  36.6797714   9.0077801   4.7932291  38.2909126
   7.9123955   6.6002879  37.8748436   7.7759447   6.8349290  38.9305038
   8.0887299   7.4698281  37.2416725   6.7029877   5.9210300  37.3580780
   6.9178977   5.7412729  36.3047028   6.4350758   4.9743657  37.8272781
   5.4550824   6.7082934  37.4555130   4.9451289   6.7409754  38.3267059
   4.8560638   7.3447685  36.4744377   5.4230785   7.4154272  35.2785416
   6.2638793   6.9051118  35.0489044   4.8824940   7.8453832  34.5416527
   3.7567403   7.9740028  36.7097702   3.4847109   8.0025034  37.6820297
   3.2980750   8.5115814  35.9881516  11.0748472   7.4769011  37.2323418
  10.9133959   8.6738396  37.4392128  11.8111610   7.0960188  36.1884079
  11.9617348   6.1119390  36.0180664  12.4128637   7.9407401  35.1939926
  12.7694340   8.7925825  35.7730598  13.6273060   7.2219372  34.5859489
  14.4062977   7.1946034  35.3478737  13.3716516   6.2205987  34.2394485
  14.2453527   8.0705061  33.3819962  14.0264320   9.3157196  33.3463821
  14.8409529   7.4411521  32.5217743  11.4310741   8.4333878  34.1248970
  11.3050098   7.7792034  33.1101875  10.7782326   9.5719547  34.3386269
  10.8783045  10.0331411  35.2315941   9.9897776  10.2137365  33.3070869
  10.3788414   9.8661022  32.3500671   8.6398191   9.5765839  33.4662209
   8.6991901   8.4896650  33.5226479   7.7652984  10.0881386  34.5973053
   7.2393084  11.0192709  34.3865204   6.9804325   9.3886356  34.8850212
   8.4206104  10.2148905  35.4590530   7.8615594   9.8924866  32.3378334
   8.2581177   9.5873785  31.5185337   9.9665384  11.7089453  33.2551270
  10.0799837  12.3114605  34.3514938   9.7078867  12.4189157  32.1233482
   9.4622908  11.9038286  31.2900028   9.5344296  13.8352299  32.0291252
  10.4666920  14.2056246  32.4555016   9.5443382  14.4057331  30.6195793
   9.7675581  15.4688501  30.5298252  10.3863792  14.0714493  30.0135059
   8.3154535  14.2455177  29.6719532   7.5477171  14.9840403  29.9027481
   8.7341957  14.4293547  28.6825294   7.8569775  12.7984848  29.7504654
   6.6405525  12.6230631  30.1261787   8.6171923  11.8051882  29.5202312
   8.3438330  14.4119625  32.8474197   8.4406681  15.5455084  33.3412514
   7.2580070  13.7478809  33.0790710   7.0502849  12.9332294  32.5193405
   6.2322702  14.2447290  33.9478188   6.0360465  15.3042555  33.7835007
   4.8711743  13.5829430  33.5883942   4.7323856  13.4530754  32.5150948
   4.8162737  12.6340895  34.1220284   3.5916002  14.3093081  33.9999313
   3.6600022  14.4181881  35.0823212   3.6929796  15.3002739  33.5574265
   2.4021571  13.4577990  33.5947380   2.4667361  12.2101240  33.4547501
   1.3978990  14.1284523  33.3777924   6.5931764  14.1722565  35.4370003
   5.9949007  14.8060226  36.2661743   7.5431223  13.2781572  35.8718796
   8.2236099  12.9288187  35.2123337   8.0803032  13.4015656  37.2234764
   7.3205047  13.9131670  37.8142967   8.3033838  11.9892120  37.9207649
   9.0880022  11.4458971  37.3941879   8.5518761  12.1937628  38.9621658
   6.9402828  11.2050238  38.0584602   6.4128747  11.2869015  37.1080704
   7.1425257  10.1534929  38.2621269   5.9937177  11.6735716  39.1696510
   6.4471560  11.9298038  40.3241959   4.7693315  11.8939037  38.9345436
   9.2053022  14.3668909  37.3505898   9.2421055  15.3235292  38.1142921
  10.2666044  14.1198378  36.5716324  10.1903505  13.3445492  35.9288139
  11.5172739  14.8783045  36.6076698  12.0380030  14.8098745  37.5627975
  12.4952545  14.3212318  35.6137581  12.0129414  14.4468164  34.6443787
  13.8675184  15.0884991  35.6254730  13.6401138  16.1449146  35.4827156
  14.4203043  14.9557371  36.5554771  14.5932760  14.6924171  34.9151955
  12.9496222  12.8313503  35.9138031  13.6459522  12.7867641  36.7512016
  12.0201883  12.2842789  36.0718269  13.4952650  12.1459990  34.6654739
  14.4249239  12.5364103  34.2514534  13.8466711  11.1474524  34.9253197
  12.8415985  11.9763947  33.8098755  11.2979126  16.3816071  36.4368095
  11.7771692  17.1405449  37.2694969  10.6627283  16.8986015  35.4160957
  10.1011715  16.2917652  34.8359985  10.5438471  18.3239670  35.2902832
  11.5704784  18.6529388  35.4512329  10.0092134  18.8052883  33.8885803
   8.9603481  18.5335922  33.7695694  10.1304998  19.8884487  33.8762665
  10.8525143  18.3996410  32.6819496  10.7888832  17.3174362  32.5684280
  10.2705603  19.0106907  31.3926182  10.8203859  18.6897583  30.5078602
   9.1955080  18.8386841  31.3399200  10.4213428  20.0899925  31.3707733
  12.3738165  18.7216587  32.8049583  12.5289011  19.7568264  33.1090584
  12.7984066  18.1781960  33.6490364  12.9676104  18.5555000  31.9061241
   9.7005024  18.8971653  36.3638229  10.0378218  19.8872967  36.9034882
   8.5707598  18.2066917  36.7058563   8.4903793  17.2969875  36.2744904
   7.6929846  18.7783337  37.7032089   7.5928898  19.7797356  37.2845497
   6.3073401  18.1098747  37.7409248   5.9190836  17.9023438  36.7437820
   6.3397760  17.1260872  38.2091217   5.1075335  18.8025856  38.4959679
   4.3767576  18.0247993  38.7175903   5.3884282  19.1021862  39.5056381
   4.4687867  20.0006180  37.7625847   4.8978033  20.4891529  36.7607269
   3.3841023  20.5176964  38.3521919   3.0993154  20.1482048  39.2480011
   3.0007048  21.3527241  37.9328613   8.2406349  18.9180717  39.0880661
   8.0882158  19.9366264  39.7080116   8.9570169  17.9315605  39.6205673
   9.1903334  17.1259117  39.0579033   9.5978136  17.9823799  40.8775291
   8.8756084  18.3447266  41.6091194  10.1009693  16.5940762  41.3855782
  10.3942223  15.9789467  40.5348587  10.9256268  16.5452251  42.0966721
   8.9809237  15.7982702  42.1610069   9.3985157  14.8578806  42.5207062
   8.6103048  16.2941475  43.0581398   7.6985493  15.5654831  41.2804298
   7.4422140  16.4649239  40.7206116   7.9505010  14.8065176  40.5397568
   6.4793186  15.1738281  41.9967575   6.4823527  15.8561201  42.8468018
   5.5102463  15.3263035  41.5216255   6.4606333  13.7858696  42.4728699
   5.5002718  13.5754976  42.7042770   6.7661381  13.1833696  41.7220268
   7.1200027  13.7494621  43.2370758  10.7834120  18.9038887  41.0002861
  10.8355999  19.7200928  41.9422112  11.4961491  19.1375847  39.9390221
  11.2891064  18.6178246  39.0981407  12.5237093  20.2064304  39.8088989
  13.1682339  20.1236877  40.6840248  13.2710934  20.1676674  38.4839401
  12.7259064  20.5601997  37.6255760  14.3921566  21.1751251  38.4961433
  14.9679775  21.2105064  39.4209557  14.9505186  20.8210468  37.6295662
  13.9092073  22.1234989  38.2606735  13.7254839  18.8600407  38.2098846
  12.9854565  18.2740593  38.0349960  11.8383436  21.5787945  39.9465599
  12.3981409  22.5452518  40.5106583  10.6996260  21.7279186  39.2701378
  10.3957615  20.8598080  38.8528214   9.8097506  22.8718719  39.3503494
  10.4346495  23.7270069  39.0927734   8.6955757  22.7003613  38.3180542
   8.9869537  22.1345100  37.4331741   7.9707346  22.0276585  38.7765045
   8.1270275  23.9823742  37.7366829   7.7160664  24.6069508  38.5298500
   8.9588089  24.5752983  37.3563118   6.9879656  23.8609314  36.6641197
   6.6706824  24.8432350  36.3141022   7.3461742  23.3040962  35.7982559
   5.6985831  23.2272625  37.2333450   5.9219251  22.2551155  37.6728325
   5.2693906  23.9227467  37.9546013   4.7192154  23.1607628  36.1339264
   4.8131523  23.9430275  35.5019951   4.7502351  22.3153057  35.5822487
   3.7753508  23.2053680  36.4906197   9.3004704  23.2316418  40.7808266
   9.4482355  24.4191265  41.1642532   8.7793922  22.2246819  41.4292068
   8.5548916  21.4046211  40.8840446   8.3168182  22.4255085  42.8383598
   7.6174016  23.2573929  42.9213371   7.5534205  21.2414169  43.3698387
   8.3839073  20.5362396  43.4032745   7.3222089  21.4129601  44.4211273
   6.3948574  20.7716732  42.5139847   5.5038505  21.3721733  42.6973076
   6.5960579  21.0019627  41.4677544   6.0185308  19.2903538  42.7928543
   6.7701125  18.4722290  43.2870598   4.8490534  18.7803802  42.4214249
   4.1904178  19.4210472  42.0020828   4.7868667  17.7753620  42.4999771
   9.5152655  22.8700428  43.7787971   9.3480492  23.6842461  44.6646004
  10.7759686  22.3912792  43.5033340  10.9380064  21.6688404  42.8163643
  11.9731197  22.7258530  44.3542900  11.6307192  22.7640533  45.3884087
  12.9512224  21.6842670  43.9881935  12.5198288  20.7075100  44.2071648
  13.1375542  21.7690868  42.9175949  14.2687674  21.7953873  44.7471161
  14.6360655  22.8192902  44.6777458  14.1369581  21.5027046  46.2968597
  15.1134825  21.6111965  46.7687988  13.4328060  22.1951008  46.7582283
  13.7951174  20.4874191  46.4979591  15.2499256  20.7895107  44.1273499
  14.9566212  19.7959671  44.4664001  15.3424129  20.9069366  43.0476456
  16.2117348  20.9944324  44.5974884  12.5121117  24.1475315  44.0324402
  12.6544123  24.9832287  44.9219398  12.8676691  24.4533501  42.7505264
  12.7364826  23.7096100  42.0798988  13.2321682  25.8766727  42.2448158
  14.1371794  26.1307068  42.7966499  13.4070721  25.7778282  40.7162247
  14.2558689  25.1142960  40.5507812  12.5658693  25.3047771  40.2095680
  13.5328960  27.1015034  39.9452515  12.5765982  27.5825062  40.1507492
  14.5627813  28.0259857  40.3927460  14.4570618  28.2563801  41.4528542
  15.5142670  27.5254917  40.2130775  14.3351479  28.9092884  39.7960434
  13.6186638  26.8243465  38.4687805  13.2952757  27.6475811  37.8317528
  14.6228800  26.4814777  38.2196007  12.9092369  26.0276566  38.2449532
  12.1122675  26.8898373  42.6057091  12.4411030  28.0054874  43.1000175
  10.8241701  26.4739971  42.4645958  10.6288977  25.5516987  42.1021957
   9.7508736  27.4105225  42.8096657   9.8807354  28.3463058  42.2660141
   8.2959051  26.9553223  42.4098663   8.2434311  26.8458500  41.3266487
   8.2452993  26.0030956  42.9378891   7.1470618  27.7843723  42.8872566
   7.3031278  28.0939140  43.9206619   7.0947361  28.7264385  42.3414764
   5.7803359  27.1933994  42.8341980   5.4823055  26.4257545  41.9278984
   4.9907222  27.6339722  43.7106323   9.8422117  27.6328220  44.3187752
   9.7001810  28.7524738  44.7295265  10.0471048  26.6282215  45.2525902
  10.0026274  25.6795521  44.9088631  10.0983124  26.9045353  46.6989861
   9.2656918  27.5685253  46.9312782   9.7765617  25.6176414  47.4840851
  10.4264364  24.7962475  47.1822968   9.8374958  25.8150845  48.5543213
   8.2634401  25.3048592  47.2254753   7.6054101  26.0339241  47.6982994
   8.0695724  25.2638760  46.1536369   7.8894167  23.9701862  47.8743210
   8.5065889  23.1379547  47.5358086   8.1745424  24.0960350  48.9188118
   6.4022036  23.5799274  47.7089348   5.8515081  24.3714924  48.2171326
   6.1281953  23.3333435  46.6831589   6.1189785  22.3611336  48.4307137
   6.3320189  22.4043026  49.4170456   5.1250000  22.2134037  48.3292694
   6.5976930  21.5752716  48.0143547  11.3221464  27.6262131  47.1288414
  11.2042780  28.4156647  48.0625038  12.4932613  27.4600773  46.4425278
  12.4104357  26.9133739  45.5973320  13.6648998  28.2882805  46.8227463
  13.8171082  28.1368008  47.8913841  14.9444447  27.8880978  46.0852585
  14.8281937  27.7455902  45.0108871  16.1677208  28.8154564  46.2889061
  17.0243759  28.3703976  45.7827721  15.8856411  29.7320843  45.7709045
  16.4090767  29.0036030  47.3350639  15.2568216  26.4309998  46.6102715
  15.6638737  26.5021019  47.6189117  14.3256254  25.8873367  46.7696533
  16.1201458  25.5881538  45.6832314  15.4783411  25.0312653  45.0005531
  16.9153214  26.1473560  45.1901855  16.6796265  24.7638702  46.1255417
  13.4246969  29.7924862  46.5867043  13.7483892  30.5959377  47.5140877
  12.8139372  30.1430264  45.4523811  12.7328453  29.3659687  44.8122978
  12.3643150  31.4234982  44.9756012  13.2386303  32.0591812  44.8356667
  11.5943756  31.3431225  43.6172485  11.0430927  30.4040527  43.6655655
  10.6456528  32.5024567  43.2689705   9.8075218  32.4979439  43.9658279
  11.1817427  33.4511948  43.2936325  10.3239594  32.4425011  42.2292480
  12.6308174  31.1701107  42.5294342  13.1323872  32.1290894  42.3994675
  13.4014177  30.4699593  42.8520241  12.1220627  30.8301525  41.1617012
  12.8443241  30.3754044  40.4837341  11.2408037  30.2097034  41.3245735
  11.8492365  31.7994137  40.7443314  11.4212866  32.0788231  46.0503464
  11.6138010  33.2621536  46.4226532  10.4574909  31.3580704  46.6507988
  10.2672138  30.4676590  46.2136955   9.5511713  31.7938900  47.6648483
   9.1923532  32.7393341  47.2580490   8.4026327  30.8114147  47.6310310
   8.1211042  30.4271507  46.6506310   8.9153223  29.8899651  47.9070435
   7.2735453  31.0819054  48.5604897   6.7216215  30.1420326  48.5714149
   7.5899019  31.2012405  49.5967216   6.4031606  32.3386993  48.0973930
   6.9828153  33.3763885  47.7460098   5.1754227  32.2405243  48.0909843
  10.1685915  31.9334335  49.0030785   9.9560175  33.0207367  49.6013145
  10.9621134  30.9605370  49.4280968  11.1053314  30.1713448  48.8142853
  11.5643215  30.9071922  50.7981644  10.7929659  31.1254826  51.5367165
  12.1848602  29.5220680  51.0319481  11.4865675  28.7277431  50.7682495
  12.8662977  29.4962692  50.1816063  12.8682308  29.2769833  52.3862877
  13.5687180  28.4605618  52.2105751  13.4397860  30.1851711  52.5776596
  11.8997192  28.8582211  53.5018234  10.7388754  29.3447342  53.5868073
  12.3660231  28.1313992  54.4392548  12.5103436  32.1751556  50.9426498
  12.5909271  32.6357422  52.0942345  13.2583361  32.5019379  49.8764687
  13.2245073  31.9286060  49.0456581  14.3235245  33.5290337  49.8681107
  14.3860035  33.8888702  50.8951035  15.7034225  32.8518333  49.4393768
  15.6650887  32.6238670  48.3741722  16.5454025  33.5423660  49.4876862
  16.0787544  31.5411358  50.1226120  16.8397217  31.5340557  51.0482559
  15.5270319  30.4645462  49.5834885  15.8754539  29.6107197  49.9954147
  14.9017849  30.5440197  48.7942810  13.9649467  34.7798309  49.0963402
  14.8098097  35.6486740  49.0599518  12.7518511  34.8488617  48.5872993
  12.1784678  34.0201416  48.6547890  12.0801153  36.0990295  48.0777702
  11.1017418  35.8012009  47.7006989  11.8979416  37.1941109  49.1428375
  12.8298931  37.6660347  49.4540520  11.3051882  37.9878197  48.6881142
  11.2160263  36.7974319  50.3782578  10.1528864  35.9332962  50.5866966
   9.4625397  35.7357941  49.8764076  10.0355482  35.7103500  51.8777618
   9.2363987  35.2044220  52.3991051  10.9904680  36.3703880  52.5236435
  11.0069036  36.4827919  53.5272369  11.7226429  37.1230125  51.6131630
  12.5917349  37.7198677  51.8473511  12.8173418  36.6464882  46.8316231
  13.1936312  37.8453674  46.8465424  13.1581316  35.8335495  45.8284035
  12.7909622  34.8939819  45.8783760  14.1690865  36.0628967  44.8201294
  14.8511868  36.8171234  45.2125511  14.9174137  34.7212524  44.7903671
  14.2929945  34.0092430  44.2506943  16.2117348  34.9088860  44.0222321
  16.0765705  35.1316681  42.9638367  16.6629353  35.7789688  44.4991798
  16.7881088  33.9852943  44.0758553  15.2759218  34.1782608  46.0576744
  15.6832924  34.8999825  46.5422020  13.5332098  36.4831924  43.5075150
  12.4107571  36.2324028  43.1657791  14.2960043  37.2341728  42.7145042
  15.1576395  37.6174240  43.0761719  14.0517635  37.5667267  41.3215942
  13.1223669  37.1085701  40.9833374  13.4715471  38.9598007  41.2797050
  13.2347736  39.2221794  40.2485886  12.6376171  39.0204353  41.9789772
  14.5312538  39.9630737  41.6394577  15.0346766  39.6508484  42.5544319
  15.1735973  40.0502396  40.7631607  13.9654856  41.3959618  41.8936806
  13.1552420  41.5087624  41.1733437  13.5627403  41.4119873  42.9064255
  15.0064058  42.4885139  41.8204269  15.6241236  42.2837639  40.9460106
  14.4783802  43.4411049  41.7773094  15.9531651  42.4480247  42.9633865
  16.5725899  41.6555367  42.8718414  16.5230026  43.2791710  43.0310860
  15.5396557  42.3266335  43.8768272  15.1955385  37.2465057  40.2884598
  16.3457756  37.6380272  40.5625534  14.9733515  36.5605469  39.1137848
  13.6768551  36.2469025  38.7141266  13.0513620  37.1361046  38.7927322
  13.3577232  35.3845482  39.2994499  13.7245131  36.0061264  37.2314568
  13.6540270  36.9699020  36.7272072  13.0439281  35.2524376  36.8354034
  15.2032194  35.4577713  37.0109406  15.4759760  35.6828194  35.9798927
  15.3440161  34.3846664  37.1402855  15.9707279  36.1532135  38.1120186
  16.5933552  35.3474197  38.5007782  16.8865948  37.2621155  37.5768013
  17.9007816  36.9031982  36.9908028  16.6841087  38.5395050  37.6473999
  15.8991079  38.9514961  38.1312752  17.6633797  39.6344795  37.2807655
  18.0150738  39.4439240  36.2668114  16.8588009  40.9220543  37.2976341
  16.0149612  40.8438148  36.6121330  16.5239582  41.1532288  38.3088417
  17.7089787  42.1512146  36.8321953  18.3421173  42.5814018  37.6081924
  18.4619732  41.8803940  36.0920868  16.9167519  43.3806419  36.4235191
  17.4681816  44.3322067  35.8224907  15.7143002  43.4951744  36.4983711
  18.9198818  39.7168465  38.1650162  20.0364819  39.9930305  37.6906090
  18.7016277  39.3080215  39.4021454  17.8009186  38.9324913  39.6625366
  19.7971439  39.3526077  40.4116440  20.3964844  40.2627716  40.3894463
  19.2822495  39.2547722  41.8287773  18.7280464  38.3504753  42.0801811
  20.1630955  39.2549324  42.4708138  18.4878101  40.5349731  42.2585335
  18.7930412  41.6374092  41.7177505  17.7439594  40.4940567  43.2028084
  20.6577244  38.1384087  40.1697884  21.7339592  37.9673615  40.7568970
  20.2458858  37.1733665  39.3024864  19.4363518  37.2982063  38.7115784
  20.7260303  35.8114204  39.2957115  21.1572399  35.5210457  40.2537537
  19.5774746  34.7921791  39.2096672  18.9470577  35.0867424  38.3706741
  20.1188488  33.3680992  39.0152245  20.6592007  33.0128670  39.8926849
  19.2414093  32.7271461  38.9293137  20.5506897  33.3672943  38.0144196
  18.5711517  34.8095169  40.4073029  17.9097424  35.6700974  40.3071594
  17.9162540  33.9387245  40.3766632  19.1153126  34.8028336  41.3517303
  21.8301983  35.5650444  38.2624817  21.7186127  35.6813660  37.0298157
  23.0236282  35.3049507  38.7995987  23.1306362  35.0665665  39.7752113
  24.2354298  35.2477722  38.0556831  24.2730217  36.1199341  37.4029770
  25.4499302  35.2368507  39.0516548  25.2869949  34.3808784  39.7065315
  26.7600937  35.0223770  38.2882614  26.7579536  34.1982231  37.5749092
  26.9802513  35.9401207  37.7429390  27.5221634  34.7626991  39.0230522
  25.5482845  36.4643288  39.8771553  26.2794781  36.2531853  40.6574593
  25.5922813  37.4162483  39.3479958  24.6142044  36.6214828  40.4165001
  24.2432365  33.9946747  37.2176514  24.7782745  34.0019188  36.0858421
  23.7207623  32.8726387  37.7111168  23.4974194  32.9022980  38.6956673
  23.7168579  31.5964203  36.9962387  23.3339119  31.6773300  35.9789352
  25.1492977  31.0001945  36.9650421  25.0945625  30.0649052  36.4079666
  25.7956715  31.7239952  36.4686432  25.7597218  30.6425781  38.3465195
  26.0152569  31.5913525  38.8183632  25.0623035  30.0483742  38.9369659
  27.1576843  30.0630989  38.2231216  27.8867245  29.8403492  37.2835999
  27.7425308  30.0185928  39.3963203  28.7519302  29.9839554  39.4004059
  27.2390060  30.0935669  40.2686386  22.8099041  30.6042595  37.7652512
  22.4788208  30.8704472  38.9167824  22.6604366  29.4181728  37.1435814
  22.8564587  29.3920689  36.1531296  22.0338440  28.2238598  37.7684937
  22.0500202  28.3733253  38.8480759  20.5599289  28.3203907  37.3016472
  20.1326981  29.1811428  37.8161201  20.5122433  28.4179535  36.2170715
  19.6867065  27.0864372  37.6444931  18.7097607  27.0965328  37.1611977
  20.1517334  26.1372585  37.3781776  19.3805027  26.9544773  39.4300232
  17.9072704  25.7386684  39.3682785  17.0383892  26.0367985  38.7815399
  18.3008003  24.8108044  38.9531822  17.6189137  25.5836029  40.4079475
  22.8217258  27.0003967  37.3960075  23.0942020  26.7927551  36.2297478
  23.0534019  26.1472931  38.3462791  22.7718239  26.3745308  39.2892418
  23.6541748  24.8269653  38.3209839  23.9675789  24.7717285  37.2784767
  24.8014030  24.7881298  39.2606392  24.4357224  25.1487846  40.2220459
  24.9096394  23.7160397  39.4249992  26.1754684  25.3189011  38.8276253
  26.4999752  24.7018299  37.9897614  26.2435856  26.7738056  38.4270096
  25.4889183  27.0420055  37.6876564  26.0375595  27.4382877  39.2661285
  27.1720924  27.0797577  37.9449692  27.1576042  25.1412964  39.9939537
  27.0619621  25.9648685  40.7015419  27.0099583  24.1903858  40.5058784
  28.1621475  25.0160389  39.5898361  22.6744976  23.7686577  38.6795616
  21.8220062  23.9513073  39.5349846  22.6904125  22.6232128  38.0207176
  23.3652821  22.4355488  37.2930946  21.7461796  21.4366264  38.2238998
  21.2527962  21.5110779  39.1929893  20.5774155  21.5237598  37.2085724
  21.0245705  21.2670860  36.2482262  19.8012981  20.8159313  37.4996414
  19.7328110  22.8082199  37.1140366  19.8555183  23.3797779  38.0340157
  20.2840919  23.7035561  35.9506493  21.3631306  23.8483372  36.0036087
  20.0926819  23.1310749  35.0430527  19.8125877  24.6836433  35.8784332
  18.2848682  22.4949493  36.8807793  17.9604206  21.8809700  37.7209320
  17.7102776  23.4201069  36.8357430  18.2828884  21.9329414  35.9468422
  22.4422760  20.1527557  38.2289696  23.4226360  19.8606339  37.6096344
  22.0143375  19.1954384  39.0728264  21.1743679  19.3039837  39.6230736
  22.6315422  17.8559723  39.0416527  23.0256577  17.6704369  38.0424805
  23.7065220  17.8497581  40.1036987  24.3802223  18.7066307  40.1040268
  23.1824551  17.8546562  41.0594330  24.5547028  16.6646881  40.0602303
  24.9740334  16.6210117  39.1977577  21.5855312  16.7823009  39.3966637
  20.6093445  17.0955067  40.0160027  21.7703781  15.6054554  38.9029312
  22.6752720  15.4343824  38.4882011  20.7555695  14.4736881  38.7396698
  20.1192017  14.5099125  39.6238785  19.8085461  14.6706409  37.5344353
  19.2931061  15.6056652  37.7538643  20.3567429  14.8583832  36.6112137
  19.2125092  13.7655706  37.4174385  21.5035553  13.1860447  38.6378021
  22.5309525  13.0372353  38.0680313  20.9540577  12.1851864  39.2237015
  20.0264835  12.4635153  39.5104790  21.5638924  10.8394642  39.4263420
  22.5914154  10.9419231  39.7753410  20.7233696  10.0991974  40.4908295
  21.0599422   9.0782766  40.6712227  20.8273430  10.7066393  41.8649979
  20.4879036  11.7377119  41.9637947  20.2631454  10.0673876  42.5440712
  21.8940392  10.6712618  42.0863686  19.3333492  10.1054344  40.4018860
  19.1006527   9.4273701  39.7633858  21.6493454  10.0222931  38.1171532
  20.7799168  10.2398548  37.2809448  22.6087818   9.0550528  37.9666176
  23.6016884   8.6903296  38.9385033  23.1241608   8.6453285  39.9173012
  24.4024582   9.4275799  38.9962158  24.1476517   7.3449788  38.4714317
  23.4567356   6.5530872  38.7606430  25.1433144   7.0868883  38.8321877
  24.1544476   7.4639716  36.9278641  24.2949066   6.5119171  36.4160385
  25.0179653   8.0612736  36.6351662  22.8220139   8.2291584  36.6911278
  22.9436741   8.8178177  35.7818565  21.6695099   7.2865195  36.3089371
  21.8773079   6.3293829  35.5218811  20.4797802   7.4280744  36.9180298
  20.3759212   8.2505932  37.4949036  19.3257828   6.5436149  36.6186256
  19.6241589   5.8666863  35.8181000  19.0291004   5.7107129  37.8873138
  18.1282597   5.1848125  37.5710640  19.7663460   4.9226313  38.0405998
  18.8414116   6.4391050  39.2122917  18.9604855   7.6979747  39.2765388
  18.6307106   5.7506924  40.2647324  18.1721172   7.3034067  35.9525604
  17.3023758   6.6700239  35.3404694  18.1358376   8.6200771  36.0785141
  18.7362995   9.0076189  36.7922096  17.2265701   9.4919500  35.3039169
  16.2738533   8.9757233  35.1858482  16.9804382  10.7878590  36.0440369
  17.9618206  11.2594414  36.0950432  16.2159481  11.3884773  35.5511780
  16.5286846  10.5707054  37.4956551  17.2857170  10.0926781  38.1173401
  16.3655167  11.9093275  38.3284836  17.3312798  12.0674763  38.8084869
  16.0070820  12.7423906  37.7238083  15.6266403  11.7796307  39.1192703
  15.2189465   9.7218819  37.5854263  14.4308329  10.1791077  36.9871559
  15.3977222   8.6981535  37.2566071  14.9513330   9.6958904  38.6417427
  17.7747765   9.8046789  33.8464088  18.9026566  10.3292875  33.6932259
  16.9060497   9.6490097  32.8134804  16.0626392   9.1368484  33.0290031
  17.3666077   9.7212696  31.4413185  18.1687489  10.4573660  31.3881111
  17.7070370   8.2769842  30.9835072  16.8446827   7.6188622  30.8771133
  18.1375561   8.4568386  29.9984150  18.7433567   7.5966344  31.7819004
  20.0007362   8.0682163  32.1597672  20.3792763   8.9710016  31.9111958
  20.6878395   7.1688118  32.9344063  21.6871319   7.3738604  33.2890472
  19.8885632   6.0703211  32.9197273  20.1512413   5.1919327  33.3434448
  18.6506767   6.3858495  32.2988243  17.8995609   5.6624708  32.0178452
  16.3651905  10.3197308  30.4518414  16.5733814  10.3652334  29.2759495
  15.1594820  10.6534281  30.8852730  14.9229288  10.4637146  31.8486805
  14.0679426  11.1036396  29.9812069  13.8191051  10.3335142  29.2510757
  12.8038216  11.0777826  30.8132763  11.9657326  11.3877726  30.1890888
  12.6484909  10.0931902  31.2543526  12.9735718  11.7978477  31.6137733
  14.2908850  12.4174433  29.2401886  13.7730694  12.7202215  28.1386261
  14.8786354  13.4133291  29.9415474  15.3139124  13.1203461  30.8045616
  14.9007168  14.8781738  29.6952114  15.1805239  14.9893751  28.6476192
  13.5410986  15.4798288  30.0487499  12.8015432  14.8246441  29.5884342
  13.3092985  15.5811787  31.5404510  12.2464514  15.4749537  31.7576485
  13.5696125  14.6725140  32.0832825  13.7757626  16.4355316  32.0309563
  13.3949337  16.8055038  29.3960209  14.0765467  17.5506058  29.8062992
  13.6307220  16.6952457  28.3375568  12.3233986  17.0049686  29.3844910
  15.9251776  15.5682697  30.5336952  16.3571281  14.9834023  31.5235081
  16.4838276  16.7317333  30.0549965  16.0821953  17.1177063  29.2124920
  17.5030785  17.5407391  30.7545223  18.1540508  16.8238964  31.2549992
  18.4594250  18.5056953  29.9326782  17.7744694  18.9764328  29.2274513
  18.7807350  19.3910313  30.4813499  19.6795845  17.8041801  29.3149033
  20.8232365  17.5205936  30.0804081  20.8698006  17.7950191  31.1239223
  21.9558105  16.8827820  29.5445366  22.8794899  16.8583736  30.1036606
  21.9233360  16.4317875  28.2679005  22.7808285  15.9000025  27.8827896
  20.7636375  16.6650410  27.4332428  20.7650490  16.3172894  26.4107628
  19.6465549  17.4213581  27.9359627  18.8627548  17.6858940  27.2416439
  16.6189423  18.4140129  31.7411041  15.8355055  19.2693157  31.2488651
  16.9525776  18.4144497  33.0200348  17.7687569  17.3934517  33.7418060
  18.8264465  17.6563702  33.7254791  17.6839123  16.5099545  33.1090851
  17.0833893  17.2474442  35.1345634  17.7482452  16.8124161  35.8807640
  16.1937504  16.6753654  34.8711777  16.6215420  18.7424641  35.3905907
  17.3085556  19.4665985  35.8284760  15.7903290  18.8873825  36.0806580
  16.2827682  19.2179585  33.9740410  15.2320595  18.9378567  33.8988342
  16.2963314  20.7282848  33.8858757  15.4821615  21.3801556  34.5317421
  17.1971874  21.2636185  33.0869064  17.8638611  20.6738033  32.6096611
  17.3065262  22.7219296  32.8776665  17.5270119  23.2194080  33.8221245
  18.4438057  22.8877640  31.8732491  19.4333801  22.5548115  32.1862640
  18.1855774  22.3441963  30.9644299  18.4997578  23.9484425  31.6284351
  16.0310574  23.2671700  32.1235886  15.8337107  24.4961052  32.1431656
  15.2730589  22.3572388  31.5182209  15.4264402  21.3716908  31.6771812
  14.0382309  22.8141575  30.7963009  14.2066278  23.6901608  30.1699142
  13.4909954  21.6081352  29.9278297  13.3389807  20.6684647  30.4588776
  12.4837513  21.9717484  29.7244968  14.3996572  21.3605423  28.6857681
  14.7836790  22.3030415  28.2954807  15.2327280  20.6994972  28.9247665
  13.5333691  20.6222630  27.5598164  13.2059336  19.6299782  27.8700714
  12.6876125  21.2344246  27.2466621  14.4694595  20.5176792  26.3764286
  15.0501204  21.4218998  26.1938915  15.2472773  19.7868786  26.5978565
  13.7056160  20.0972404  25.1312599  14.3678064  19.7899933  24.4332600
  13.0237341  19.3620491  25.2522259  13.2823391  20.9625168  24.8275623
  12.9648228  23.2230415  31.8254585  12.1556816  24.0908031  31.5497627
  13.0540657  22.6883640  33.0136337  13.8640633  22.1276894  33.2364540
  12.1721888  23.0495224  34.1324043  11.1250124  23.0361137  33.8301735
  12.3364210  22.0887260  35.2788773  11.9608555  21.0735378  35.1506386
  13.3429241  22.0472336  35.6952057  11.5699654  22.4357395  35.9718666
  12.3191338  24.4703159  34.6354256  11.3210859  25.1432667  34.9853363
  13.5898294  25.0005112  34.6492767  14.4064693  24.4424725  34.4448471
  13.9411812  26.3581867  34.9594841  13.6297264  26.6173992  35.9713669
  15.5003090  26.5387516  34.7537231  15.6525116  26.5262604  33.6744728
  15.9689999  27.9055099  35.2682571  17.0493183  28.0492535  35.2492943
  15.4930029  28.6314259  34.6090355  15.4909067  28.0495281  36.2371674
  16.3729458  25.4357376  35.4062004  16.4217701  25.5936298  36.4836006
  16.1031437  24.4360142  35.0658150  17.3599777  25.5014973  34.9484291
  13.1861162  27.3411942  34.0617447  12.7193613  28.3243313  34.5331879
  12.9895382  26.9927197  32.7845078  13.5161676  26.2468052  32.3527985
  12.3883076  27.8733940  31.7393608  12.6505089  28.8839302  32.0526733
  12.9900312  27.5334816  30.3083153  12.7744284  26.4983845  30.0433807
  12.4778261  28.1397228  29.5611763  14.4352007  27.9932861  30.1547432
  14.6472921  28.9969368  30.5232582  14.9775686  27.2532234  30.7431736
  14.8460922  27.9053288  28.6961803  14.3520460  27.0379829  28.2583179
  14.3308067  28.7138252  28.1776123  16.2671432  28.0565929  28.5094299
  16.7159481  28.9612713  28.5246887  17.1735706  27.1074123  28.5140438
  16.8502331  25.8295574  28.5924644  15.8710699  25.6436443  28.7561035
  17.5758438  25.1269989  28.5914326  18.4278107  27.3377800  28.4871693
  19.0144062  26.5162601  28.4538536  18.7729931  28.2263298  28.8209763
  10.8617954  27.7590179  31.6766758  10.2168922  28.5046120  30.9661808
  10.2743044  26.9613628  32.5922165  10.8731594  26.2743340  33.0274925
   8.7795115  26.9805317  32.7187157   8.1484375  26.9599209  31.8302231
   8.2934933  25.8567867  33.7178802   8.8594732  25.7811356  34.6463432
   7.2326221  25.9752922  33.9383545   8.3250971  24.5108852  32.9831543
   9.3528624  24.2714882  32.7102280   8.0012236  23.7733574  33.7174988
   7.3757625  24.4487076  31.6945992   6.3857470  25.2110138  31.6195831
   7.7002554  23.8242950  30.6676407   8.3008661  28.3230171  33.5028954
   7.2112899  28.8346519  33.2659264   9.1490269  28.8843136  34.3709412
  10.0295296  28.3896847  34.3583832   9.0372915  30.1377201  35.0601196
   7.9863195  30.2844448  35.3091850   9.9754972  30.0761719  36.3439713
  11.0018940  29.8310757  36.0709572   9.9572916  31.0647182  36.8028183
   9.5018091  29.2002296  37.4748459   8.4382687  29.3955631  37.6120529
   9.5440550  27.6931515  37.1599312  10.5215425  27.4467030  36.7453537
   9.2625456  27.0711727  38.0096321   8.7049704  27.5140553  36.4876518
  10.2567759  29.4057713  38.7781868   9.7819777  28.8023891  39.5518761
  11.2916937  29.0724373  38.7010956  10.2035770  30.4334641  39.1375198
   9.3980026  31.3867188  34.2404099  10.2502842  31.3036766  33.3428459
   8.7820120  32.5168991  34.5397797   8.2832804  32.5098534  35.4180260
   8.8896294  33.7636185  33.7688141   9.1686649  33.5071754  32.7468109
   7.5648909  34.5390396  33.7844620   6.9427972  33.8509903  33.2120209
   7.2789922  34.6526222  34.8301468   7.8224578  35.7678947  33.0596085
   8.2772284  36.3617821  33.6613426  10.1633539  34.5884399  34.2369156
  10.5174332  34.4232559  35.4295464  10.7324343  35.4299736  33.4240532
  10.3050995  35.5507469  32.5169144  12.1276312  35.8996773  33.4661140
  12.2749901  36.5332680  32.5915031  12.2172022  36.4729805  34.3888283
  13.2698259  34.8512192  33.5590668  14.4176931  35.2438202  33.5238762
  13.0361185  33.5589218  33.8323326  12.0699549  33.2663918  33.7998314
  14.1779413  32.6385994  33.8715324  15.0022526  33.1604424  34.3576317
  13.8674068  31.4465122  34.6954460  12.9736376  31.0069942  34.2526131
  14.7138443  30.7678986  34.5899620  13.8245058  31.6508350  36.1754341
  12.8196363  32.1122246  37.0087700  11.8051777  32.3393898  36.7160759
  13.3363800  32.2641449  38.3030739  12.8020582  32.6890068  39.0474472
  14.5912237  31.9060097  38.4290352  15.4881086  31.7962265  39.4805603
  15.2954865  32.1842079  40.4698906  16.7530136  31.2243862  39.2481995
  17.4802284  31.1364269  40.0418205  17.1656609  30.8328552  37.9762077
  18.1011143  30.3244076  37.7950745  16.2065468  30.9213982  36.9326401
  16.4363747  30.5732460  35.9364624  14.9187145  31.4115791  37.1337967
  14.6719780  32.2868233  32.4350319  15.7511806  31.7227345  32.3349228
  14.0228271  32.7006798  31.3470020  13.0667419  33.0058556  31.4604416
  14.6258593  32.5341148  30.0200405  14.8696756  31.4861355  29.8456745
  13.5427685  32.9353828  29.0314903  13.8381147  32.6863670  28.0122452
  12.7128811  32.2730560  29.2778778  13.2157927  34.3964615  28.9974461
  12.7901392  34.7462845  29.9379482  14.1494293  34.9361801  28.8389301
  12.2330446  34.7465706  27.8089924  12.4519749  34.3272209  26.6652050
  11.1896296  35.4955902  28.0245991  10.8906717  35.8317375  28.9288845
  10.8633232  35.9929695  27.2083626  15.9379587  33.2948380  29.8238182
  16.9335098  32.9207344  29.1382027  16.1480083  34.3823280  30.6193886
  15.3690577  34.6610298  31.1987572  17.3983803  35.1530228  30.5680199
  17.7117233  35.2511024  29.5286427  17.1138630  36.5974007  31.0517559
  16.9642067  36.5667496  32.1310005  17.9765911  37.2592735  30.9760590
  15.9345369  37.3235092  30.3510323  16.0700226  37.7129478  28.9929218
  17.0152740  37.5278320  28.5044231  14.9179077  38.1380348  28.2629414
  15.0116701  38.4929504  27.2472439  13.6791534  38.3167229  28.9284401
  12.6326523  38.6915207  28.1982307  12.7937050  38.8775978  27.2703094
  13.5443048  37.8936920  30.2487564  12.5913696  37.9706230  30.7511482
  14.6479950  37.2995911  30.9120102  14.7031050  37.0073509  31.9502602
  18.5911140  34.4661293  31.3048801  19.7500610  34.6933327  30.9160728
  18.2223663  33.6130180  32.2714615  17.2420292  33.4063339  32.3992310
  19.2634525  32.9990730  33.1212769  19.9705391  33.7952423  33.3541870
  18.6547604  32.5099640  34.4502754  17.7542152  31.9305916  34.2466850
  19.5477657  31.4503632  35.1881065  18.9663391  30.9645653  35.9717255
  19.7842636  30.6631699  34.4722176  20.4516277  31.8818417  35.6181755
  18.3056488  33.6191483  35.4685860  17.5166569  33.3103104  36.1543083
  19.1504765  33.9790344  36.0558243  17.9197464  34.4958954  34.9484978
  20.0136166  31.9253025  32.4077797  19.4596272  31.1288853  31.6511326
  21.3865662  31.7588215  32.5544662  22.2512970  32.7716522  33.1567955
  22.0933914  32.7338791  34.2346344  22.2024727  33.7376251  32.6541862
  23.7163658  32.3535690  33.0022659  24.0987148  32.0061798  33.9620743
  24.3226357  33.1487465  32.5684166  23.6446609  31.1707325  31.9469376
  24.4369812  30.4388466  32.1040230  23.7256622  31.5714760  30.9365196
  22.2459602  30.6606960  32.0772781  21.9765701  30.4289093  31.0468388
  22.2177296  29.4237423  33.0080452  22.4551792  29.5518036  34.2320862
  21.9116249  28.2430172  32.5065575  21.8810291  28.2242317  31.4971962
  21.7953415  26.9761047  33.1788979  21.7540989  27.1818409  34.2485161
  20.5679150  26.2495365  32.8113060  20.6100349  25.2612858  33.2692223
  19.3789558  26.9592133  33.5231438  18.3961887  26.6969585  33.1313553
  19.4250946  26.7239513  34.5864525  19.4180737  28.0442696  33.4271278
  20.2566090  26.1403217  31.3329315  19.1829281  26.0730305  31.1574879
  20.4984264  27.1136341  30.9059811  20.7915363  25.3069992  30.8773785
  23.0165539  26.0880356  32.8244019  23.3693447  26.1420403  31.6520863
  23.6081085  25.3333321  33.7390099  23.4010544  25.5540962  34.7025948
  24.2755032  24.0773067  33.3821297  23.7905769  23.7908325  32.4489212
  25.7380390  24.1451073  33.0511818  25.7852230  24.7154369  32.1234970
  26.5771122  24.8848686  34.1076622  26.4951420  24.3819923  35.0712509
  27.6298714  24.8147640  33.8340073  26.2631531  25.9280033  34.1450691
  26.1865597  22.8341122  32.8312836  26.5972958  22.5718975  33.6584091
  23.8938599  22.8424530  34.2814255  24.1734104  22.8053074  35.4329300
  23.4620228  21.8154144  33.6476440  23.2216301  21.8642445  32.6678848
  23.4556351  20.4893494  34.2336235  23.0751019  20.5420361  35.2536812
  22.5684280  19.4118633  33.6309395  22.8208885  19.2406311  32.5844955
  22.5711193  18.4540310  34.1511765  20.8503990  19.9419975  33.5510139
  21.0476303  20.7551250  32.5094643  24.8602962  19.8411255  34.4581566
  25.7300797  20.1171398  33.6579552  25.0779305  18.9683037  35.4773598
  24.4535694  19.0731831  36.2642975  26.3064671  18.0760403  35.6789932
  26.6638699  17.8419800  34.6762085  27.3868504  18.9127941  36.4966087
  28.2443657  18.2935181  36.7597885  27.6857891  19.6519623  35.7533913
  26.8999310  19.6209793  37.7137146  26.0408840  19.1306362  38.1716461
  27.6634674  19.6007481  38.4913406  26.3849792  21.4318161  37.5513000
  27.9969692  22.1892776  38.0590744  28.2082386  22.0975399  39.1244583
  28.8609123  21.8066730  37.5156441  27.9653683  23.2515583  37.8168716
  25.9726295  16.7665424  36.4640083  25.3608284  16.7220154  37.5653381
  26.4217148  15.6190376  35.9170227  26.8676720  15.6354809  35.0109596
  26.1399250  14.3253422  36.5550995  25.0548115  14.3189440  36.6580009
  26.5560875  13.1663465  35.6285934  26.2384567  13.3910370  34.6103935
  27.6220894  12.9388914  35.6270905  25.8730659  11.7742996  35.9947052
  26.2491360  11.5220690  36.9861946  24.7907467  11.9020624  35.9757080
  26.2639370  10.7124214  34.9733734  25.4909210  10.5289526  34.0665474
  27.3398018   9.9644165  35.0587387  27.4990768   9.2905350  34.3234749
  27.9634285  10.0808325  35.8446388  26.7692642  14.0423307  37.9833717
  27.9439754  14.1609058  38.2220421  25.8636112  13.6305227  38.8646698
  24.9048920  13.5388155  38.5604515  26.1267948  13.1979275  40.2134323
  26.4807301  14.0544901  40.7871323  24.7217197  12.8381433  40.8704834
  24.0447369  13.6905804  40.9265671  24.1651325  12.1513147  40.2328453
  24.7601681  12.1792994  42.1971817  23.9536667  11.4464016  42.2199516
  25.6429462  11.5700054  42.3909874  24.3708763  13.1394348  43.4027824
  23.3332348  12.8066988  44.0455399  24.9271622  14.2536116  43.6081924
  27.0972900  12.0120840  40.2538338  27.1307220  11.1622744  39.3925362
  27.9849987  12.1408272  41.2450943  27.8219643  12.8076811  41.9859200
  29.0678577  11.1767979  41.4757118  29.6047287  10.9874849  40.5461769
  29.9545231  11.7791138  42.5667763  30.1514664  12.8146753  42.2894173
  29.2981110  11.8256130  43.4357185  31.2525806  11.2133083  42.8524132
  31.1024399  10.1479578  43.0273056  32.0552826  11.3360386  42.1252861
  32.0288696  11.6609840  44.4348640  33.1776161  10.3279581  44.6379738
  33.7345924  10.6098289  45.5315247  32.5377464   9.4899836  44.9144974
  33.8522224  10.1526470  43.7999496  28.4726696   9.8245964  41.8823280
  27.6343136   9.7870302  42.7656288  28.8192730   8.7017336  41.2711067
  29.4736786   8.7836275  40.5061569  28.1113377   7.4385176  41.4316254
  27.0471668   7.6673589  41.4888763  28.4379215   6.5263948  40.2801399
  27.8909473   6.9810653  39.4541893  29.5017204   6.5432529  40.0431824
  27.9587440   5.0725751  40.3960342  28.4514637   4.2305765  39.5898247
  27.0431252   4.7331982  41.2020111  28.5293388   6.7848010  42.7502174
  29.6702805   6.4265976  42.8852463  27.6396675   6.8244600  43.8118095
  26.7413616   7.2692280  43.6879997  28.0436726   6.5799828  45.1877975
  28.9405422   5.9615903  45.1515236  28.3856792   7.9408793  45.8286819
  27.5180874   8.5944157  45.7377357  28.5700073   7.6742010  47.3550262
  29.0059738   8.5647964  47.8076553  27.6062775   7.4615965  47.8177757
  29.2715778   6.8657837  47.5608368  29.7034073   8.6349220  45.3616257
  30.5531483   7.9543605  45.4152374  29.6209087   9.0953312  44.3770866
  29.8947563   9.4622536  46.0450058  27.0029087   5.8754787  45.9476662
  25.8031120   6.1748333  45.8148232  27.4214554   4.8256574  46.7426987
  28.3971539   4.5648146  46.7341080  26.5640869   3.8426404  47.4562836
  26.0160198   3.3269081  46.6677780  27.3752117   2.8939245  48.2421608
  27.7924519   3.4932573  49.0513649  26.6448174   1.7693911  48.9665642
  25.5923843   1.9660282  49.1710510  26.6466637   0.9929679  48.2015381
  27.1676941   1.3646200  49.8330879  28.5885105   2.4147956  47.6301231
  29.1751404   2.3857622  48.3894806  25.3915386   4.4243307  48.2284546
  24.2076435   4.1126814  47.8949318  25.6779137   5.2927465  49.1865578
  26.6252079   5.6111717  49.3326416  24.6840801   5.9917650  50.0183182
  23.9181347   5.2303386  50.1655045  25.1695061   6.2343044  50.9636421
  24.0622292   7.1858616  49.3200340  23.3571434   7.8961530  50.0126419
  24.3492832   7.5356565  48.1061401  25.0467014   6.9356732  47.6893349
  23.6629639   8.5225716  47.3009796  23.8335075   9.4635201  47.8240776
  24.0982304   8.7528639  46.3285522  22.1988506   8.2213421  47.2070847
  21.8390846   7.0728846  46.9982452  21.3859406   9.2664061  47.3952179
  21.7848148  10.0942211  47.8144073  19.9734802   9.1810980  47.1061516
  19.6453247   8.3903999  47.7808456  19.2773037  10.5342751  47.3627090
  19.9798965  11.2561378  46.9463234  18.3594303  10.5770693  46.7763863
  18.9085121  10.7578840  48.8942719  19.8065357  10.8088980  49.5099449
  18.3675823  12.1899729  48.9642067  18.4927807  12.5161438  49.9967003
  18.9256020  12.8049526  48.2581482  17.3230209  12.1853733  48.6528091
  17.8944244   9.7472506  49.5385246  18.1813469   8.6956911  49.5406494
  17.8440895   9.9501047  50.6082993  16.8794155   9.7943430  49.1440163
  19.7836361   8.7003002  45.6398315  20.1270561   9.4005470  44.6940536
  19.1321907   7.5712409  45.3818970  18.7111111   7.0340567  46.1263618
  18.8190231   7.0841422  43.9704094  19.7081337   7.3482828  43.3978577
  18.6459694   5.5520887  43.9150009  17.6383247   5.3447957  44.2752533
  18.6883698   5.2556205  42.8669510  19.6284866   4.7097974  44.7559662
  19.6955643   5.3393245  45.6432648  19.2177887   3.7525225  45.0769844
  21.1267052   4.6695929  44.1788330  21.2063160   4.0218401  43.3058014
  21.4280434   5.6458459  43.7990608  22.1313248   4.2470546  45.2348824
  21.9465599   4.8548074  46.1206589  22.0357914   3.1812747  45.4424553
  23.5241508   4.5984859  44.8359146  23.7617512   4.1769185  43.9493866
  23.7767773   5.5757847  44.8017578  24.1610699   4.1466131  45.4764137
  17.6408195   7.9355640  43.4086418  16.7340813   8.3154078  44.0971336
  17.6012077   8.2446251  42.0959816  18.3825455   7.9334617  41.5367050
  16.5722370   9.0713177  41.4182663  16.9422493   9.3089457  40.4209061
  15.2472105   8.3633680  41.2881203  14.9387178   7.9770207  42.2595444
  14.4751625   9.0534077  40.9476929  15.3875761   7.1810827  40.2957306
  15.8888941   7.4320636  39.3609619  15.8388767   6.3704023  40.8677673
  14.0336695   6.6908493  39.8278046  13.2878752   6.7666092  40.6190987
  13.6446638   7.2490091  38.9761963  13.9494638   5.2280788  39.5691299
  13.1982527   5.0814729  38.7930565  14.8357658   4.8663421  39.0478668
  13.5156393   4.4335666  40.8208733  14.2389908   4.5385532  41.5178947
  12.5827484   4.7022743  41.0994720  13.4575901   3.4573967  40.5682411
  16.4718266  10.4965496  42.0363007  15.3487043  11.0352726  42.1566887
  17.5937881  11.0757589  42.4501839  18.4652901  10.5990267  42.2676506
  17.6744881  12.3848352  43.2214203  16.6383667  12.5760403  43.5007057
  18.6530914  12.3714600  44.4008064  18.4271927  11.5001345  45.0155106
  19.6253242  12.2419739  43.9253082  18.4673729  13.7249908  45.5237083
  17.1991215  14.0168295  45.2216034  18.0650272  13.5387297  42.2780952
  18.8708744  13.3427467  41.3218575  17.4513893  14.7381945  42.4326935
  16.8123665  14.9098883  43.1957626  17.7638016  16.0110970  41.7708778
  18.4454956  15.8400297  40.9377327  16.4932842  16.5122318  41.1908340
  15.5840168  16.4553204  41.7892532  16.5380306  17.9736843  40.7056503
  15.5677576  18.1891441  40.2581635  16.6395779  18.7224979  41.4911880
  17.4279594  18.0963383  40.0883408  16.1881924  15.5750866  40.0037003
  16.5160465  16.0685368  39.0887566  16.8614902  14.7190580  40.0482712
  14.6960201  15.2329607  39.9086075  14.5091162  14.6754532  40.8264046
  14.0948992  16.1389103  39.8310814  14.5728321  14.5979738  39.0312691
  18.3449154  17.0459919  42.8211479  17.8703098  16.9762478  43.9463844
  19.2965832  17.8812599  42.4052925  19.6442146  17.8286705  41.4584618
  19.9059906  18.9340591  43.2826691  19.1366234  19.0973244  44.0373383
  21.2206936  18.4454060  43.8718033  21.9551716  18.5399284  43.0719910
  21.4646263  19.2190056  44.5999107  21.2358227  17.0487366  44.5237465
  20.4317303  16.9742851  45.2558594  21.0078144  16.2558880  43.8113518
  22.6184616  16.7552490  45.1812973  23.4869976  17.1345539  44.6428986
  22.5733795  17.3171749  46.1142006  22.7643356  15.3093805  45.4730186
  22.9685783  14.7491217  44.6578522  22.4023628  14.6349354  46.5590134
  22.1070080  15.2405033  47.6502037  22.0902004  14.7695951  48.5435486
  22.4092579  16.2024956  47.7077789  22.2034512  13.3568420  46.4750595
  22.3497696  12.9265137  47.3770103  22.5111446  12.8688469  45.6460342
  20.1884861  20.1585884  42.4225769  20.1857815  19.9645634  41.1858788
  20.4053097  21.3142338  42.9690742  20.1545506  21.3717461  43.9457588
  20.4453449  22.6107674  42.2223892  21.0207119  22.4893627  41.3046112
  19.0535603  23.2630768  41.8466225  19.2967052  24.1349163  41.2392693
  18.2036438  22.3914089  40.8874207  18.6662426  22.4119911  39.9006653
  18.1667404  21.3336926  41.1481361  17.2412224  22.9016018  40.8480263
  18.1640873  23.7733688  43.0619812  18.6487827  24.6288128  43.5325050
  17.2021275  24.0448761  42.6272202  17.9859715  22.9965172  43.8055420
  21.1972046  23.6451492  43.0506783  21.0857086  23.6546650  44.3142815
  22.0555305  24.4375076  42.4203987  22.1628914  24.2048912  41.4434319
  22.5979500  25.5959530  43.0206451  22.0433712  25.8616791  43.9206085
  24.0342999  25.4027367  43.3921318  24.0807838  24.4881096  43.9832306
  24.6986885  25.3440475  42.5300102  24.4928341  26.5280495  44.3144417
  24.7292862  27.4105816  43.7200241  23.7414398  26.7063103  45.0836830
  26.0054989  26.1408939  45.1146660  27.1288071  25.8695869  43.6886902
  28.1351643  25.8808079  44.1072731  26.9741783  24.8725548  43.2762375
  27.0539455  26.5704021  42.8572121  22.4661064  26.7306423  42.0702209
  23.2037086  26.8357830  41.1013832  21.5411930  27.6064510  42.3809624
  21.1020317  27.5189323  43.2862663  21.6073856  28.9611473  41.8076973
  21.8928967  28.8113937  40.7664680  20.2762508  29.6626167  41.9498787
  20.1298466  30.2709980  41.0573845  19.5322628  28.8695126  42.0245132
  20.0818825  30.6494884  43.1539459  19.9461861  30.0389748  44.0466690
  21.0195141  31.1718807  43.3438148  18.8609047  31.9425926  42.9134369
  17.3698368  30.8312111  43.2178879  16.3869762  31.3022079  43.2336426
  17.3426800  30.0840073  42.4247627  17.3919029  30.3386574  44.1900063
  22.7368088  29.7673473  42.4535904  23.1933212  29.5036240  43.5728951
  23.3440800  30.7675476  41.7549744  23.0548210  30.9485798  40.8043671
  24.1537399  31.8920269  42.3299255  24.1942329  31.7713356  43.4124641
  25.6026058  31.8464985  41.8068237  25.5177402  32.1579437  40.7657204
  26.5141907  32.8077507  42.5879364  26.7637920  32.3290787  43.5348587
  27.4315491  33.0710144  42.0613899  25.9922485  33.7521858  42.7419434
  26.1655560  30.5124645  41.9340324  26.2817230  30.2905903  42.8607903
  23.5257301  33.2456894  41.9876022  23.0902328  33.4810219  40.8723335
  23.5221977  34.1958923  42.9709892  23.9439869  33.9114761  43.8435135
  22.7492008  35.4135246  42.9327354  22.8201427  35.7416840  41.8957291
  21.2506714  35.1483765  43.3995705  20.9834576  34.2584953  42.8296509
  21.1904926  34.6799469  44.8898392  20.2926998  34.0840302  45.0540009
  21.9487228  33.9080315  45.0215416  21.2475300  35.5264015  45.5742073
  20.1839581  36.2208557  43.2871971  20.4450855  37.1623268  43.7704620
  20.0224457  36.4382286  42.2313690  19.2009068  35.9625778  43.6808968
  23.3389568  36.4848289  43.7483253  24.0330410  36.1787796  44.7069740
  23.2399864  37.7931404  43.3726311  22.6648617  37.9645615  42.5602608
  23.5394020  38.9321899  44.2407913  24.5028782  38.7154922  44.7021523
  23.5050545  40.3193665  43.5761147  22.4630222  40.4871597  43.3038750
  23.9652443  41.1605949  44.0944405  24.3076534  40.4127197  42.2094765
  25.3151436  40.7926598  42.3789215  24.4237804  39.4319420  41.7482834
  23.6940403  41.3846664  41.2356377  23.7222919  42.5693512  41.3224640
  23.0727272  40.9434090  40.2191620  22.4909954  41.6840858  39.8543549
  22.9791679  39.9860191  39.9113388  22.5605412  38.9402847  45.4822235
  21.3790798  38.7981796  45.2270088  22.9887524  39.0031586  46.7506180
  23.9917202  38.9960556  46.8693810  22.1550903  39.1129379  47.9170609
  21.4028835  39.7851639  47.5042725  21.5483551  37.7915573  48.3186836
  20.7770233  37.5216331  47.5973740  22.5088444  36.6879616  48.4841003
  21.9638824  35.8323326  48.8828621  22.9777908  36.3834801  47.5484314
  23.2461967  36.9500160  49.2428780  21.0466175  37.9180603  49.6241455
  20.1009731  38.0260506  49.4988670  22.8799553  39.7999496  49.0707436
  24.0406704  39.5045433  49.2976418  22.2063580  40.6507759  49.7373505
  21.2550716  40.8461533  49.4598961  22.7177181  41.3045502  50.9924469
  23.8071537  41.3199921  50.9609871  22.0714092  42.6960297  51.2008820
  21.9516048  43.1443214  50.2145844  21.0689850  42.6385422  51.6250763
  22.8257618  43.6395454  52.1222076  22.0935097  44.4090004  52.8265343
  24.0759468  43.6582413  52.1117058  22.4312458  40.5272064  52.2799301
  22.8250084  40.8701477  53.3444901  21.8631630  39.3320694  52.0845718
  21.7160664  39.0176086  51.1361122  21.5136738  38.3575592  53.1415215
  21.0818138  38.9476624  53.9498367  20.3478432  37.4902382  52.6834793
  20.6134167  36.9411621  51.7801018  19.9073544  36.3961296  53.6771927
  19.2553043  35.6744957  53.1850777  20.7369976  35.8607101  54.1388435
  19.5668507  36.9712257  54.5382576  19.1024265  38.3241234  52.4269028
  18.8563709  38.9287643  53.2998123  19.3635063  39.0084915  51.6196976
  18.1892052  37.8369026  52.0852280  22.7740421  37.5383339  53.6256409
  23.5030155  37.0034218  52.8082390  23.0242825  37.5103340  54.9665909
  22.2909184  38.1678391  56.0929184  21.4478340  37.5187950  56.3296700
  21.9154491  39.1456833  55.7913589  23.2143745  38.2755432  57.3122025
  22.6190834  38.1589241  58.2178116  23.8414459  39.1670799  57.3183022
  24.1744881  37.0766869  57.0610733  23.6284466  36.2478981  57.5116920
  25.1777153  37.3211021  57.4102097  24.2015896  36.8249855  55.5321960
  25.0957279  37.2536240  55.0795555  24.2497082  35.3554688  55.1376724
  23.1584969  34.7555885  55.0621300  25.4609280  34.7559891  54.9788399
  26.3045044  35.3113289  54.9878426  25.6173992  33.3566856  54.7282829
  25.3950844  33.2247887  53.6693802  27.1158447  33.0697289  54.7952309
  27.6696892  33.6973915  54.0970955  27.4223690  33.2229042  55.8299713
  27.4232101  31.6278725  54.3702507  27.0767212  30.8720169  55.0750389
  27.0573063  31.3573627  53.3797722  28.9173431  31.3494205  54.3406792
  29.5832844  31.2231903  55.3151207  29.5380859  31.4549522  53.2684097
  30.5377617  31.5848751  53.3306236  29.0989075  31.6518784  52.3804665
  24.7457981  32.3828697  55.5660858  24.1869125  31.4324799  55.0217896
  24.6364555  32.6840439  56.8906479  25.1844501  33.4634247  57.2258568
  23.9585705  31.7840519  57.8552780  24.0460663  30.7448502  57.5382500
  24.6246605  31.9080505  59.1880989  24.1623230  31.2606506  59.9332275
  25.6943073  31.7461071  59.0549393  24.2710896  33.3617172  59.7949600
  23.2361832  33.5792389  60.5149879  24.9976406  34.3516502  59.6767349
  22.4165192  32.0000267  57.8128891  21.6282997  31.0613041  58.0404663
  22.0111485  33.1905594  57.3980446  22.6733093  33.8688583  57.0494003
  20.6084480  33.5722122  57.2086525  20.0540733  33.2195854  58.0783768
  20.4582863  35.1162910  57.2331848  21.4196224  35.5758743  57.0035706
  19.6047916  35.3989258  56.6169357  20.1516228  35.4976768  58.7393036
  19.2434978  34.9771156  59.0433197  21.0618324  35.2796135  59.2979317
  19.7670364  37.0265388  58.9347115  18.8757954  37.6435966  58.3935661
  20.3977928  37.6642570  59.8253288  21.1731930  37.1906166  60.2663727
  20.2014904  38.6534004  59.8815765  19.9237213  32.9765320  55.9544029
  18.7211494  32.7192039  56.0321236  20.6032486  32.7182465  54.8622551
  21.5907116  32.9060936  54.9609070  20.1105194  32.0849953  53.5807877
  19.2960815  32.6831398  53.1721115  21.2225723  31.8965111  52.4815979
  22.0820732  31.3930054  52.9241333  20.6956882  31.1025505  51.2210121
  21.5140457  30.8663292  50.5408707  20.2708187  30.1270409  51.4575653
  20.0069122  31.6582832  50.5847359  21.5284996  33.3633575  52.0573997
  20.5533543  33.7811699  51.8071518  21.8773441  33.9784622  52.8868904
  22.5077972  33.4077148  50.8789940  22.1606655  33.0710564  49.9021339
  23.0549717  34.3373146  50.7223167  23.3656330  32.7972641  51.1610603
  19.4440308  30.7130203  53.9485321  19.8741207  30.0532761  54.8860626
  18.3889751  30.2990112  53.1606827  18.2478657  30.7631721  52.2748222
  17.5420456  29.1291199  53.3816833  18.0505180  28.6101971  54.1942558
  16.1020031  29.6199417  53.7943687  15.6902323  30.1585732  52.9408913
  15.4989986  28.7210827  53.9229660  16.0963707  30.4167862  55.1409874
  16.6505585  31.3476524  55.0207214  15.0775967  30.7665501  55.3079262
  16.6671200  29.7807808  56.3789330  17.5764103  29.2361126  56.1247139
  16.8914108  30.6206760  57.0364838  15.7664375  28.7915802  57.0497971
  14.7796354  28.9837513  56.9528847  16.1415138  27.7183800  57.8361244
  17.3749714  27.4444199  58.0996628  17.5786781  26.5944328  58.6057510
  18.1727009  27.9533215  57.7464752  15.3114405  27.0044117  58.4568329
  15.5804596  26.2313442  59.0485229  14.3172646  27.0753384  58.2934799
  17.6608753  28.2830791  52.1644592  17.2275887  28.6492977  51.0682716
  18.0950127  27.0424175  52.3684120  18.3568497  26.7885151  53.3102570
  18.2105465  25.9620152  51.3766327  18.1854706  26.3640404  50.3637924
  19.6757088  25.4275093  51.5197487  19.7667961  24.8877697  52.4623451
  19.6992817  24.8043709  50.6257439  20.7320080  26.5327091  51.4664192
  21.3242493  27.1875362  50.3860054  22.2832928  27.9859447  50.8614120
  22.8075085  28.6246166  50.1659279  22.2264156  28.0352650  52.2196274
  22.7895927  28.6704693  52.7668419  21.2868156  27.0656414  52.6036530
  21.1631279  26.5978603  53.5691986  17.1065369  24.9518871  51.5627403
  16.8694496  24.4267654  52.6440964  16.2676830  24.7554607  50.4781265
  16.5718288  25.2070732  49.6274567  14.9779339  24.0342312  50.5056801
  14.4899769  24.1535816  51.4730225  13.9807301  24.6696072  49.5689964
  14.4115515  24.6518555  48.5679092  12.6402245  23.9884186  49.5520592
  12.6800900  22.9717979  49.1609268  12.1457443  23.9476433  50.5225906
  12.0634527  24.5861454  48.8462563  13.8368483  26.1209621  50.0050087
  13.5495377  26.1419849  51.0562515  14.7890329  26.6451454  49.9232979
  13.1631212  26.6421356  49.3248825  15.1741123  22.5016155  50.1472664
  15.8439741  22.1777630  49.1864815  14.5052500  21.5561581  50.8386345
  13.8205442  21.8519783  51.5196419  14.6028490  20.0924015  50.5783958
  14.9289103  19.8965912  49.5569077  15.5431347  19.4909668  51.5716324
  15.2010298  19.7107468  52.5829506  15.3756351  18.4249916  51.4175415
  16.9908733  19.7481461  51.3409271  17.6110764  20.9692230  51.7975082
  16.9766006  21.5849762  52.4177437  18.9687519  21.2387695  51.6185188
  19.4132824  22.1743031  51.9244156  19.8083858  20.2704964  50.9459190
  21.1010571  20.5522556  50.6395187  21.6301880  19.7729874  50.4541435
  19.2165413  19.0654316  50.5327034  19.8921719  18.3346348  50.1133347
  17.8122578  18.8508816  50.6957588  17.3832569  17.8785381  50.5036507
  13.2206898  19.4713440  50.6257362  12.4555159  19.8715267  51.4988365
  12.8591404  18.5626945  49.7491379  13.5463705  18.1685295  49.1226768
  11.6030130  18.0874901  49.4392586  10.9560022  18.1975994  50.3095207
  11.1001139  18.7516842  48.1574745  11.8515892  18.6263771  47.3779373
  10.1763487  18.3031845  47.7919464  10.7416382  20.1900711  48.3175087
  11.6205368  20.7071133  48.7026176  10.2734232  20.8765202  47.0124931
   9.2702112  20.6191959  46.6726990  10.2872829  21.9479427  47.2123985
  10.9746780  20.6281891  46.2158279   9.5763102  20.3719711  49.3002434
   8.7056379  19.7821350  49.0136795   9.9412403  20.2535343  50.3204880
   9.1801462  21.3872166  49.2793655  11.6348648  16.5958710  49.1426277
  12.6702290  15.9181099  48.9206848  10.4688301  15.9537992  49.2956314
   9.6270018  16.4448509  49.5607796  10.3372602  14.5007582  49.0875282
   9.3789968  14.0796919  49.3917351  10.4344912  14.1044416  47.5820923
  11.4753189  14.0582695  47.2617111  10.1148634  13.0668240  47.4857216
   9.5755606  14.9275417  46.5766411   9.7536688  15.9955940  46.7017174
   9.9110174  14.6300430  45.5831299   8.0281506  14.7391691  46.7225800
   7.5193715  13.6038961  46.8523598   7.3537664  15.7404490  46.9951134
  11.4199286  13.8684750  50.0521507  11.6672506  14.4314680  51.1265182
  12.0287218  12.7658710  49.6177521  11.8369255  12.5454321  48.6509399
  12.9322519  11.9335546  50.4456863  12.4788370  11.8215742  51.4305573
  13.0177584  10.5465946  49.7608147  13.4482765  10.6934595  48.7702637
  13.7379875   9.9395771  50.3093567  11.7305336   9.7673111  49.5391617
  11.2199764   9.7698326  50.5021896  11.0669680  10.2718105  48.8368340
  11.9207182   8.4270802  48.8787918  12.5775127   7.8057804  49.4876480
  10.9949036   7.8628445  48.9911118  12.4737434   8.4222946  47.4493561
  12.2635260   9.4086037  47.0357094  13.5589867   8.4790411  47.5338097
  11.9546442   7.3327670  46.6351852  12.1338205   6.4348807  47.0615616
  10.9645319   7.5241699  46.5790634  12.2836323   7.3101707  45.6805382
  14.3171921  12.4966946  50.7702179  15.2066059  12.0370979  51.4664803
  14.5893145  13.6760759  50.1437225  13.9685678  14.1186094  49.4811974
  15.8022537  14.5302286  50.3159027  16.6958504  13.9225492  50.4584312
  16.0791931  15.4492979  49.1194191  17.0152607  15.9637680  49.3366547
  16.2171898  14.7998886  48.2549400  15.2962484  16.2035522  49.0406609
  15.7229900  15.2776232  51.7096634  16.7128067  15.6412649  52.2561417
  14.5363741  15.4021044  52.2968941  13.7219181  15.0597477  51.8074493
  14.2853212  16.2167377  53.5640411  14.6835527  17.2161026  53.3885956
  12.7487268  16.3138275  53.6510773  12.4197817  16.5082493  52.6302452
  12.1387854  14.9933453  54.2763977  11.1323919  14.9532003  53.8596725
  12.5644159  14.0361938  53.9750595  12.1089058  15.0836487  55.3622398
  12.3123579  17.4751110  54.5053139  11.2413607  17.6688309  54.4458542
  12.5556374  17.3442211  55.5597267  12.8259869  18.3832817  54.1898575
  14.9341202  15.7338095  54.8142891  15.0502787  16.4878483  55.7597885
  15.5389366  14.4887075  54.8940964  15.5788898  13.9056969  54.0703201
  16.4938889  14.1362371  56.0073357  16.0508041  14.4112415  56.9644928
  16.7666569  12.5730505  55.9902954  17.2588272  12.3835230  56.9442101
  15.4744921  11.8149853  55.9283905  15.0031567  11.5930853  54.9709435
  15.6331453  10.8602953  56.4298820  14.7176523  12.3403816  56.5108414
  17.6652031  12.1730947  54.8255730  17.1906586  12.3056946  53.8532944
  18.6722183  12.5824394  54.9059258  17.7986660  11.0917997  54.8587265
  17.7498913  14.9238052  55.8867607  18.4239254  15.0997200  56.9208450
  18.1320496  15.4284277  54.6899338  17.5666046  15.3703423  53.8550682
  19.4883614  15.9986019  54.4390373  20.2433434  15.4211197  54.9725418
  19.8475189  16.0084591  52.9204826  19.1811275  16.7418842  52.4664879
  20.8406219  16.4570961  52.9443359  19.9060631  14.7007294  52.0598145
  18.9592876  14.1629467  52.1098785  20.1167068  15.1334763  50.5954437
  19.4579468  15.9345360  50.2601242  21.1348343  15.5192060  50.5431862
  19.8215580  14.2527456  50.0250893  21.1229095  13.7767010  52.4851151
  20.9944077  13.3734922  53.4896088  21.3538837  12.9111309  51.8641968
  22.0120564  14.4070139  52.4698257  19.6474628  17.3727074  54.9898148
  20.7649231  17.8719101  54.9921684  18.6052761  18.1024590  55.3796616
  17.7662106  17.5407696  55.4037819  18.5772457  19.5700092  55.4703598
  18.8192482  19.9392567  54.4737625  17.1079292  20.0287933  55.6913872
  17.1053162  21.1148148  55.5983963  16.4804020  19.6592617  54.8803635
  16.5900764  19.5252399  57.0048027  16.5296593  18.4378662  57.0503006
  17.2398643  19.8802929  57.8046875  15.1433601  20.0295982  57.1648140
  14.9306507  21.0939598  57.0648766  14.6358681  19.4122715  56.4235611
  14.7636995  19.6344700  58.5205765  14.9503107  20.2260876  59.3176117
  14.2777166  18.4731712  58.9378128  14.1325026  17.4075985  58.1972389
  14.2725267  17.3983898  57.1970329  13.6937084  16.5971165  58.6103706
  13.9274225  18.4679623  60.1949806  13.3186789  17.7255249  60.5085373
  14.0487776  19.2985573  60.7566605  19.4778023  20.2388153  56.5234566
  19.7488441  19.5904427  57.5240326  19.7967377  21.5066395  56.4593124
  19.5640011  22.5759277  55.5154419  18.7636776  23.1277065  56.0085182
  19.3269310  22.1903744  54.5238533  20.8050289  23.3847637  55.4651985
  20.6678524  24.4303703  55.1895370  21.5491371  22.9857616  54.7758522
  21.3943787  23.3407059  56.8752098  20.7893066  24.0773945  57.4036789
  22.4547443  23.5773640  56.9630661  20.8684406  21.9925480  57.3663940
  21.6770782  21.2635326  57.3140144  20.3535004  22.0435009  58.8201180
  21.1451416  21.8510857  59.7035103  19.0783310  22.1797466  59.1605911
  18.4851608  22.3620834  58.3637238  18.6495705  22.2282753  60.5586433
  19.3257370  22.8201084  61.1755981  17.2458763  22.8617249  60.5597649
  16.6056175  22.2082024  59.9672470  16.9850693  23.0424042  61.6025696
  17.1181717  24.2546558  59.9348259  15.9738731  24.5803566  59.5950241
  18.1474152  24.9958744  59.7701302  18.6065350  20.8975029  61.3085518
  18.3070889  20.8167057  62.4909744  19.0245838  19.7728825  60.6595383
  19.1686611  19.9854660  59.6827316  19.3696384  18.5063648  61.2048340
  18.8882408  18.4252205  62.1793976  18.6683407  17.4689007  60.3085251
  18.3293991  17.8149548  59.3320694  19.3819904  16.6948624  60.0262680
  17.4986973  16.7401886  61.0176964  16.8072510  17.5177555  61.3423538
  16.8826904  15.7429352  60.0013504  15.8195705  15.6316414  60.2146530
  16.9556408  16.1388626  58.9884224  17.3717766  14.7751503  60.1121902
  17.9213696  15.9871511  62.2554398  17.0731640  15.3701334  62.5519791
  18.6837177  15.3036385  61.8816223  18.2457924  16.5879841  63.1050606
  20.9017239  18.2948189  61.2947731  21.3093643  17.5855732  62.2120361
  21.7739468  18.9723015  60.5884094  21.3905773  19.7443886  60.0620918
  23.1896839  18.6572075  60.3337555  23.1838951  17.6026897  60.0579681
  23.7401295  19.6148663  59.3681602  23.4749908  20.6442299  59.6094322
  24.8207226  19.4772205  59.4065437  23.2123585  19.2513447  58.0702248
  23.5267220  19.9603138  57.5044174  24.0041218  18.6327991  61.6595230
  24.8940277  17.7990894  61.8425903  23.6849594  19.4613171  62.6544991
  22.9689465  20.1477699  62.4642067  24.3331699  19.4347305  63.9338036
  25.3894520  19.2357388  63.7527771  24.2629013  20.8539200  64.6378860
  24.5679531  21.6070900  63.9114037  23.2329197  21.0819569  64.9121857
  25.2300129  20.9381924  65.8164062  24.8173695  20.4626884  66.7061996
  26.6639023  20.4233475  65.6450043  27.0600529  20.7719517  64.6912460
  27.3023891  20.7403297  66.4695969  26.7398682  19.3441830  65.7781601
  25.1849117  22.3969917  66.1970215  25.7659016  22.5464344  67.1070862
  25.6174412  22.9984531  65.3974838  24.1565399  22.7101479  66.3772736
  23.8733444  18.3048019  64.8481827  24.6631546  17.5616665  65.5055695
  22.5109386  18.0580807  64.7851028  21.9348660  18.6607018  64.2149353
  21.8157845  16.9998913  65.5805664  22.0995674  17.1429577  66.6232071
  20.2972298  17.1250935  65.4048386  20.1494350  17.1577377  64.3254013
  19.5345764  16.0144520  66.1505890  19.5206013  15.0454874  65.6515732
  20.0366592  15.7977448  67.0934830  18.5101471  16.3379440  66.3349762
  19.8910561  18.3856010  65.9631195  20.2750587  19.1408806  65.5117950
  22.2439804  15.5543108  65.0348511  22.3208828  14.5763865  65.7644272
  22.5108852  15.3984203  63.7380753  22.2163696  16.2298355  63.2460289
  22.9578705  14.1325645  63.0538788  22.0714283  13.5281897  62.8613853
  23.5440617  14.5189629  61.7180862  22.7490444  15.1468496  61.3158417
  24.4742661  15.0703392  61.8552246  23.8991032  13.4542580  60.6409760
  24.8426609  13.0982218  61.0545425  23.1047783  12.7141905  60.5437813
  24.2215366  14.0464983  59.2696648  23.7223835  14.9987421  59.0902786
  25.2492542  14.3856020  59.3997002  24.1338539  12.9976053  58.1869583
  24.8253841  13.1967554  57.3682823  24.4268990  12.0619612  58.6631851
  22.7188053  12.8977365  57.7208824  22.1610107  12.4981623  58.4620323
  22.3345356  13.7853432  57.4300232  22.5583725  12.3279905  56.9025002
  23.9566517  13.3167772  63.8522491  23.8623943  12.1162481  63.8111076
  24.8672104  13.9477329  64.5977859  24.7746983  14.9532862  64.6178970
  25.7849159  13.3046541  65.5450974  26.5285931  12.7756834  64.9490738
  26.5698147  14.3929482  66.3468933  25.9043503  15.0685329  66.8843384
  27.1197491  13.8781586  67.1347198  27.5723686  15.1826963  65.5354843
  28.6525326  14.7514505  65.2502747  27.2682819  16.3795147  65.0646667
  26.4252872  16.9279404  65.1578903  28.0131645  16.6854706  64.4550400
  25.2055836  12.2869110  66.5343475  25.9931068  11.4260769  66.9886398
  23.8717003  12.2190456  66.7792206  23.3277798  12.9380026  66.3238678
  23.2022285  11.2716103  67.7201157  23.9004745  10.5368919  68.1210556
  22.7132874  12.1218901  68.9316711  22.0379124  11.5496111  69.5676498
  23.8539505  12.6163225  69.8197327  24.6642132  13.0657167  69.2456055
  23.4983311  13.4320402  70.4492035  24.1917744  11.8460960  70.5130768
  22.0258865  13.2771063  68.4283142  21.1078510  13.0363426  68.2839355
  22.0260048  10.4314947  67.0424957  21.3414707   9.7878628  67.7949982
  21.8628902  10.5741825  65.7407303  22.5318584  11.2178259  65.3428574
  20.5480251  10.5054770  65.0410538  19.7073441  10.2723007  65.6944962
  20.1507454  11.9814863  64.6620636  19.8436356  12.5097637  65.5646744
  20.9761944  12.5550814  64.2404938  19.1295071  12.0853329  63.5506859
  19.0472527  13.1660690  63.4351616  19.6730881  11.6072092  62.7358093
  17.7197609  11.4836760  63.9346581  17.0674038  11.0778723  62.9557571
  17.1891823  11.5647774  65.0955887  20.5977669   9.4499359  63.9701958
  19.5550919   8.9116793  63.5438690  21.7818031   8.9612722  63.5619164
  22.6408215   9.3431664  63.9311638  21.9128208   7.7951193  62.6342201
  21.1327610   7.7598066  61.8737144  23.3099670   7.8525710  61.8605309
  23.9979782   7.8519802  62.7059555  23.4318943   6.9944396  61.1995888
  23.5223312   9.1221056  60.9056740  24.0024681   9.9486818  61.4294472
  24.4501247   8.6879301  59.8047180  23.9217262   7.9770937  59.1694183
  24.7414474   9.5082598  59.1487503  25.4149532   8.3794508  60.2072601
  22.1860332   9.4848757  60.2911377  21.4939594  10.0199623  60.9413757
  22.5016155  10.1500778  59.4873886  21.7025318   8.5837154  59.9140053
  21.7577820   6.4042921  63.4338455  22.7099514   6.0205412  64.1843567
  20.6896763   5.7773948  63.3062248  22.0577316  20.4974728  27.0453396
  21.5087280  19.6338749  27.4145374  22.9263496  20.3237190  26.4138031
  21.5974789  21.7121696  27.3794041  22.3291264  23.0336380  27.1422215
  21.8450508  24.0742168  27.6347904  23.3548374  23.0432339  26.5216846
  20.4649448  21.7246170  28.1813049  19.0859795  21.8471699  27.6697083
  18.3855267  21.8466244  28.5138378  18.5993099  20.8149624  26.6980972
  19.0016308  19.8043365  26.7154121  17.6133938  21.1056042  25.7678890
  17.1496029  22.5366783  25.6796703  16.2256241  22.7048378  25.1297703
  17.7459908  23.5575504  26.3539639  17.3384914  24.5660801  26.3355618
  19.0173740  23.2881737  27.1142979  19.7958851  23.4285126  26.3544216
  19.2045746  24.1040421  28.2515564  20.1695442  24.1083984  28.3762283
  17.1014652  20.0292339  24.8363514  17.3318138  18.8870392  25.1335831
  16.1933422  20.1864967  24.0437126  44.4982033  18.8698425  34.7365189
  44.7845306  18.2177296  33.9141464  45.2139626  19.6029453  35.1022682
  43.2898102  18.6295319  35.3878021  42.9969902  19.3418388  36.7205696
  43.6066666  20.3682423  37.0262871  41.9193649  19.0518990  37.2949944
  42.4713860  17.5970478  34.9709663  41.3828735  17.9270420  33.9662209
  40.7550163  17.0420818  33.8055191  42.0951385  18.1423855  32.7040634
  42.5586739  17.2826405  32.2250023  42.2930031  19.3766956  32.1990700
  41.8681450  20.5156040  33.0183716  42.1555061  21.5170097  32.7037125
  41.0129700  20.3777828  34.0436211  40.6990776  21.2233162  34.6519585
  40.4315109  19.0536060  34.4123383  40.2683945  18.9283180  35.4897804
  39.2000198  19.0356884  33.7652626  38.6467133  18.5007286  34.3605766
  43.2347984  19.4993935  31.0704117  43.5656509  18.5802650  30.4011650
  43.7390442  20.5603065  30.7781582  23.8444958  16.4481945  51.5961113
  23.4844055  17.2683296  52.2135582  24.1107426  15.5884380  52.2072220
  23.8506145  16.3789825  50.2721863  23.3784714  17.6638317  49.4840469
  22.8924160  18.6469631  50.0146027  23.4666348  17.6414871  48.2738876
  24.2917957  15.2619734  49.5463791  25.2213326  14.2209272  49.9792862
  25.3654499  13.5448904  49.1275864  24.6447525  13.3621817  51.1074219
  23.5800457  13.1387787  51.1033134  25.4419899  12.7390776  52.0730820
  26.9207363  13.0616465  52.0595016  27.5062447  12.6492538  52.8789635
  27.4431190  14.0568848  51.3326530  28.4933453  14.3200665  51.4388924
  26.6272793  14.8472242  50.2787895  26.3707504  15.7830505  50.7902718
  27.4592381  15.1059313  49.1565399  27.7816525  14.2167521  48.9281960
  24.8614540  11.8006334  53.1027145  25.6160622  11.5024614  54.0041733
  23.7032814  11.5089808  53.1061630  82.6225281  46.7349014  34.0648537
  41.4821777  45.6486855  13.4510241  17.1532307  54.4868813  55.2607231
  30.2067451  11.4689608   3.8802683  48.1804428  66.4602203  76.6426010
   0.8868507  44.1661720  30.5145817  18.6043282   6.6941204  63.4292946
  51.5398712  30.1569729  52.7314415   3.7104170  62.9433937  54.3786697
  49.2612724  28.4771194  25.8148918  48.3154297  28.4228630  25.6782455
  49.6338234  28.4247036  24.9347267  18.6229916  51.7089424  19.4718819
  18.9185696  51.0063133  18.8929367  19.1789913  52.4548073  19.2465343
  80.5873489  32.7236137  87.6641769  80.5264206  32.5267792  88.5989380
  81.2032394  32.0753784  87.3225632  28.3618279  65.8472366  36.8198624
  27.7306213  66.3681564  37.3162994  28.0556889  64.9453354  36.9151878
  17.6753330  58.1323776  19.2336159  17.4045906  58.7010727  18.5128403
  18.3487415  57.5681725  18.8535805  48.6517830  43.0532990  39.4179344
  48.5890198  42.9317589  38.4705582  49.5480652  42.7956276  39.6336136
  69.5769730  29.3152466  76.0193100  70.1566544  29.8775902  76.5330887
  70.1676178  28.8046684  75.4655228  37.7852898  54.9492493  41.2574501
  38.6877632  55.2678185  41.2745552  37.6097183  54.7766380  40.3324585
  50.1339493   9.3537025   6.3366761  50.9681244   9.1438408   5.9167490
  50.3349876  10.0903893   6.9138298  60.1456337  37.8179245  58.2219582
  60.8001976  38.1967888  57.6352386  60.2976723  38.2509613  59.0619545
  68.0790634  71.0604553  79.4926453  68.9733047  71.3263397  79.7068176
  68.0959473  70.9016647  78.5488586  40.5447960  13.7972307  65.6800461
  39.8363037  14.0125895  66.2865906  40.2299461  13.0263309  65.2080154
  21.1783218  48.7009850   5.8105302  21.2618542  49.4046936   6.4539971
  21.6882801  49.0022354   5.0585852   1.9744203  23.2426758  37.1074219
   1.7517246  23.7921200  37.8589211   1.1700803  23.2075157  36.5897064
  76.6993561  44.7647018  28.2778168  77.2252197  44.5671501  29.0528469
  77.2956314  44.6258011  27.5420246  10.2707081  47.3400116  33.8713341
  10.0393496  48.2633514  33.7705803  10.9187994  47.3309669  34.5756950
  14.3455305  54.4676819  18.2090034  13.6092291  53.9221344  18.4855328
  14.9628983  54.4248352  18.9392471  81.3278503   5.7187080  42.1789627
  82.1476822   5.8046498  41.6924286  81.4376373   4.9193773  42.6939850
  69.4461212  66.2715530  88.3077621  69.7481689  65.6465530  88.9668274
  69.7367859  67.1231155  88.6342468  69.0480194  33.2592545  19.3091125
  69.4194031  34.1164436  19.1004715  68.2114868  33.2410812  18.8442268
  65.4894867  37.7555122  39.3557053  64.9016800  37.0014000  39.4006844
  66.2155075  37.5282631  39.9366417  21.4917412  41.0453644  20.4928665
  20.8064098  41.5006638  20.0037308  22.1464367  41.7201767  20.6724052
  70.5314560  53.6861115  28.4212475  69.9452209  53.0088997  28.0836773
  70.6262665  54.3039322  27.6963081  42.7692757  57.2393074  76.3476715
  43.1484451  58.0653152  76.6479721  42.5761337  57.3869934  75.4218674
  45.6018639   2.6034441  31.9873409  45.6699066   1.6692611  31.7901001
  44.6781883   2.8113225  31.8464775  67.1504974   0.1999250  63.6431808
  66.6863480   1.0339803  63.5714188  67.3590393   0.1211979  64.5740662
  64.8134766  66.8704758  71.6141968  64.9747162  67.6062622  71.0235672
  65.5830460  66.8467636  72.1829071  84.8611755  13.0403032  67.2590332
  85.2901535  13.0582809  66.4035263  84.6274719  13.9528399  67.4290085
  57.3165245  24.8925095   8.6156540  57.6032677  24.2857418   9.2981806
  57.4334373  25.7603664   9.0021629  27.5625134  18.0002842  77.4287796
  28.2750320  17.4901638  77.0436554  26.7785339  17.4745522  77.2699966
  21.9383488   9.2993336  72.5535126  21.4172516   9.1337080  73.3391724
  21.3563232   9.7990656  71.9810257  65.3631668  59.6863441  25.5354500
  64.8952560  60.1019478  24.8111782  66.2578659  60.0191612  25.4649601
  75.9705353  32.2042198  56.2388229  76.5371933  31.4741306  56.4880142
  75.1458130  31.7909279  55.9833527  78.4312744  41.7863235   6.3736439
  77.9775696  41.9257317   7.2048774  77.9785233  41.0429230   5.9753919
  65.4068451  61.9598122  11.9800377  64.4981689  61.6726074  12.0697813
  65.3476105  62.8082237  11.5408134  52.6283112  50.8474350  40.9337463
  53.5163345  50.7390366  41.2741852  52.4816589  50.0697823  40.3952446
  29.3275166  54.7876129  27.6353207  29.7969723  55.3222771  26.9950256
  29.6936321  55.0491409  28.4801865  79.4282150   9.8592110  74.5251923
  80.3611069   9.7543955  74.3382187  79.0802612  10.3158474  73.7592621
  42.7578049  12.7590666  71.0659332  41.9786720  13.1919594  70.7169495
  42.9060669  13.1792631  71.9130936  72.9808502  23.7197762  71.8219833
  72.1834641  24.0162086  71.3832092  73.6924210  24.0390148  71.2670135
  62.4744225  15.5956202   9.7626915  62.2702904  16.5166798   9.9245930
  61.6402054  15.2084742   9.4972992  80.8216095  49.9323044  48.8203697
  81.4383621  49.3176956  48.4227448  80.2085342  49.3778496  49.3030281
  69.7015839  54.2949600  82.5527954  69.3305817  53.9894753  83.3806076
  69.1968460  55.0797310  82.3392410  35.2365189  68.9654236  31.7321129
  35.9350433  68.4014740  31.4000702  35.6895103  69.7476578  32.0469856
  70.4033051  33.9802322  38.1351471  69.8560410  33.9880142  38.9204330
  70.4296188  33.0606804  37.8706436   1.9540513  36.2444267  14.4484425
   2.8196161  35.9427834  14.1726885   1.9352655  36.0875244  15.3925076
   3.6002040  49.0858727   3.1998229   4.0300241  49.5970116   3.8855538
   4.1412988  49.2250443   2.4225967  81.0208130  10.2913179  22.2557831
  80.4008560  10.9951496  22.4468613  81.4733124  10.5793839  21.4630089
  85.0468063  49.1394119  23.1862621  84.8389893  50.0355835  23.4506893
  84.1977081  48.6997414  23.1420231   9.9380674  68.2592087   3.4239442
  10.5071878  68.3168411   2.6564734  10.3813515  67.6410217   4.0049605
  20.8222542  49.7537079  16.0400295  20.0802288  50.1069260  15.5492477
  20.4675827  49.5674782  16.9093723  17.8377171   1.3800697  79.8307343
  17.3956890   1.5005990  80.6711655  18.2332916   2.2314482  79.6438980
  32.0683899  30.4172993  83.9961472  31.6293945  29.5749836  84.1145554
  31.5216293  30.8857689  83.3654099  79.8500366  11.8592606  52.1716995
  78.9732819  11.9974632  52.5300751  80.4362488  12.2680387  52.8084831
  56.2323608  47.2971535   9.9415474  56.7904091  46.7336006  10.4774790
  55.3762589  46.8692055   9.9552011  27.4607582   8.7487803  77.4291077
  27.8481655   7.8791595  77.5286484  28.2051678   9.3489714  77.4721985
  44.0016174  58.0539703  43.3304443  43.2922745  57.6843758  42.8046417
  44.6791954  58.2802315  42.6933212  50.1873627   3.9068518  39.7663994
  50.8721008   4.3344254  40.2807426  49.8114815   3.2575510  40.3608360
  11.0455065  57.9579468  28.7561207  10.2402010  57.9171867  29.2719250
  10.9411230  57.2740059  28.0946350  67.8702698  25.2442226  83.0937347
  67.2910995  24.7203884  83.6472549  68.7482834  25.0687141  83.4321518
  50.2071114  12.3619833  10.8479204  49.4458580  12.7333050  11.2938414
  50.9387054  12.9148989  11.1223106  47.6400795  26.7306919   8.9508905
  47.1139717  27.1270313   9.6454115  47.0723267  26.7486591   8.1804590
   0.6277869  17.0136967  49.0708694   1.5104321  16.7721157  49.3515968
   0.7609367  17.7363129  48.4574127  16.0820961   8.8245640  78.2444839
  15.6455774   8.0167894  78.5150146  16.1616745   9.3352089  79.0501785
  10.6038179  50.7605362   9.4977884  10.4022951  49.9839973   8.9756727
   9.8747826  50.8305855  10.1140938  31.2367744   0.9820879  87.5759659
  31.0786095   1.7686781  88.0979767  31.0559940   1.2518355  86.6755295
  48.6705589   6.9111438  86.2854691  49.4692459   7.1255932  86.7674866
  48.6509514   7.5388408  85.5630798  32.4711380   6.8656516   4.8900714
  32.7626495   6.9524870   5.7976575  31.5422745   7.0956082   4.9138122
  70.0003815  37.2238503  20.8406887  70.0740662  38.1270638  21.1489258
  69.1763535  36.9101143  21.2132206  59.2695999  67.9332504  65.4696045
  58.4433517  68.2978821  65.1524506  59.9099884  68.1730118  64.7997894
   1.5383801  27.2795181  81.3298874   1.4152786  26.9646492  82.2253952
   0.8290437  26.8718414  80.8330231  84.7921295  13.5217886   2.0559525
  84.0365295  13.3076544   2.6031621  84.4712143  14.1968575   1.4580196
  33.2305260  39.0698280  54.9368019  33.8232346  38.8196640  54.2280388
  32.3962517  39.2441101  54.5010910  67.8348923  35.1970558  78.0585709
  68.6878815  34.7902298  77.9064636  67.2417908  34.7399864  77.4622879
   4.3888555  22.5870380  45.3896255   4.8216810  22.9282017  44.6069984
   3.4541781  22.6886177  45.2099266   0.9051510   2.4736600  43.3321724
   1.5538856   2.0609879  42.7620163   0.9097310   1.9392498  44.1262856
  26.0551472  31.7564964  63.6886940  26.6789417  31.0848351  63.4130363
  26.2146187  32.4897995  63.0944977  26.1831551  29.5313358   3.9240813
  26.3613091  28.6072578   4.0989313  25.2346535  29.6150742   4.0218873
  57.3203049  30.3882198  85.3839569  56.3831406  30.4617157  85.2035370
  57.4350815  29.4893475  85.6923141  85.6224060  49.1639023  69.5346069
  86.1667709  48.3820724  69.6275406  85.0020676  48.9426537  68.8400116
  61.5585213  56.4246483  64.9338303  62.1719780  56.0988655  65.5924377
  61.1940155  55.6347580  64.5345306  59.5148735  17.7420006  85.1151886
  59.0785332  16.9721794  85.4801788  59.3081436  18.4475765  85.7280960
  48.8312874  27.9611492  81.8947601  48.1356430  27.3147507  82.0150833
  48.6310539  28.6493988  82.5291519  67.9688263   0.9606105  74.3705826
  67.1212540   0.5162927  74.3497543  67.9804840   1.4148744  75.2130432
  16.3822689   9.8217344  12.6637793  16.8058777  10.4922504  13.1996861
  17.0594177   9.1584263  12.5306444  18.4371376  41.6059074  52.1156273
  17.6462250  42.1450348  52.1102600  18.9048023  41.8746109  52.9064026
  64.8011017  35.3444519  64.9800339  64.0067062  35.1579933  64.4796448
  65.0349350  34.5064812  65.3792267  66.1939697  69.0529480  86.7605515
  66.9125519  68.4507523  86.9535217  65.5966415  68.5449600  86.2115707
   7.1602492   1.8789099  41.2473335   7.3499498   1.4798146  42.0964317
   7.8699751   2.5072134  41.1140823  45.3637733  51.4260941  33.4710808
  45.1247940  50.8196487  32.7701187  45.1941566  50.9389725  34.2774162
  45.7526970  34.0464096  82.2835388  45.3094177  33.5285225  81.6115799
  45.5167770  33.6212349  83.1080399  71.3543930  54.5045128  88.3107147
  70.7877045  54.3644028  89.0693130  71.2230835  55.4242325  88.0802765
  57.3779945  63.2332764  12.8454132  56.7689171  63.9614258  12.9681110
  56.8990135  62.6097603  12.2994871  79.6734619  12.3734741  63.1941719
  79.5788345  13.2289467  63.6130333  78.8634186  12.2592239  62.6971741
  62.2278709  65.5342560  34.2763023  62.3701324  64.6658554  33.8996353
  61.2779007  65.6006165  34.3731613   2.2555494  45.0053558  12.9185143
   1.8585442  44.1725540  12.6634493   2.3129196  45.5030899  12.1029158
  84.8920975  51.6440811  26.7255001  84.3876114  51.3599548  25.9632702
  84.9689178  50.8592110  27.2679996  14.2871294  42.9369011  86.0503235
  14.2266874  42.0608826  85.6693115  13.4347878  43.3346558  85.8727417
  21.6668549  17.0653992  23.9873276  21.9138546  17.8938179  24.3983574
  22.2016563  16.4082279  24.4326859  29.7479305  65.5640869  30.2898636
  30.1755638  66.1152649  30.9452744  29.9132862  66.0085526  29.4583969
  24.7653790  23.5858173  74.7686386  25.1713676  24.2564449  74.2193985
  23.8399677  23.6044102  74.5247040  61.9125824  69.1205139  47.1628761
  62.4183731  69.1511688  46.3507996  61.7967072  68.1865845  47.3377647
  10.5374260  29.2020340  13.6037483   9.8913794  29.8955765  13.7373648
  10.6110945  29.1233311  12.6526375   8.3574152  67.2837677  57.9552765
   9.2027483  67.5915222  58.2822762   7.7625160  68.0196533  58.0994682
  69.9109268  54.7728119  74.3228531  69.9442215  54.6773872  73.3710022
  70.5365295  55.4711723  74.5155792  41.2310791  53.6393738  83.0409851
  41.8649139  53.0039024  83.3736420  41.6408157  54.4903221  83.1966553
  24.9553547  47.4332314  76.7020493  24.3658638  47.5116959  75.9519958
  24.8745384  46.5195351  76.9756470  81.5760803  26.7623272  23.4630413
  82.4727859  26.5952129  23.7532501  81.1141739  25.9401035  23.6268139
  74.4517822  51.6183777  22.9153290  75.3744278  51.7165642  22.6801109
  73.9951019  51.5637665  22.0758705  36.1180534   2.7188060   4.1295381
  36.8229370   2.7965631   4.7724414  36.5226555   2.2774749   3.3827069
  80.3844833  26.1214943  43.4932098  80.4666290  26.9044285  42.9486961
  81.2371674  25.6919117  43.4252052  12.6446123  46.9804153  18.9120770
  13.0012779  47.4546623  19.6631470  11.9653587  46.4181099  19.2844486
  78.3955154  57.1193275  35.2085457  78.6402359  56.7893066  36.0730858
  77.7258377  56.5089760  34.8999329  27.2248745   6.4619536  84.1350250
  26.5151463   6.9671955  83.7384796  27.4444904   5.8011899  83.4782181
  80.5270767  69.7764359  81.8314972  80.1595764  68.8991165  81.7242966
  79.8088531  70.3665161  81.6030502  23.2591324  66.8993225  76.8561401
  24.0427551  66.9207153  76.3068619  22.5766792  67.2969284  76.3153992
  57.7381935  27.6387672  23.4353333  57.6278801  27.0330296  24.1682339
  57.3961639  27.1634254  22.6781693  45.6693039   8.2190905  85.1534119
  45.2961044   7.9059086  84.3294754  46.6123886   8.0889750  85.0539551
   8.5999794  50.3429985   4.9407830   8.0948353  49.7293396   5.4741521
   9.1042309  50.8527031   5.5749478  44.3190079  11.4139757   4.2930036
  45.1307755  11.8169308   3.9849591  44.5676765  10.9592867   5.0977726
  46.8912888  69.8252258  22.0159607  47.2013512  69.1223221  22.5869446
  47.4185524  69.7388229  21.2217560  67.1332932  62.8625984   7.2252140
  67.2569809  63.7856445   7.0040345  67.1742172  62.8378181   8.1812172
  64.4991989  56.3905296  41.9252930  64.9971390  56.9456635  42.5253906
  64.5885468  56.8181152  41.0735741  84.4843521  51.9620476  85.1108017
  84.9567719  51.5157356  85.8135529  84.8702240  51.6166420  84.3058014
  20.0958271  46.4853477  84.9217758  19.8630428  45.7694511  85.5129929
  19.3035183  47.0198784  84.8692932  28.2507458  60.3991394  28.1840973
  29.1041508  60.1191139  27.8531628  28.0081844  61.1380768  27.6260929
  19.7116756  21.3816090  11.0388041  19.6998405  21.1835709  11.9752188
  18.8401947  21.1332779  10.7304440  23.9162636  61.6305962  17.7203407
  23.2164192  62.1928749  18.0524464  23.4638214  60.8534584  17.3923378
  35.5209274  62.1422882   1.6795552  36.2048798  61.9846306   2.3303864
  35.3743820  61.2876015   1.2742585  45.3857040  12.5614233  65.9832993
  44.9260063  11.8504677  66.4299011  46.2981033  12.4654503  66.2563324
  32.2125893  37.7291908  79.5580750  31.7555618  37.1936073  80.2065430
  31.5849419  37.8256416  78.8418427  65.8666306  44.4996414  22.9121304
  65.0432968  44.0224800  22.8088093  66.3735352  44.2743759  22.1320438
  80.8495483  59.6963921  67.7110519  81.0718842  60.4851837  67.2164764
  80.8240585  59.0008888  67.0538940  42.2451553  41.8363609  20.4900570
  41.5307426  41.7750435  19.8559532  42.7052956  41.0004654  20.4140186
  50.3980942  47.4249458  54.9437180  50.9314575  47.2614250  54.1658897
  49.5756683  47.7747688  54.6009789  55.3958969   4.7213511  73.0531464
  54.8744164   4.0495253  72.6138992  54.9418106   5.5414996  72.8597794
   6.3203168  32.8536339  63.6256409   6.7337475  33.5981369  64.0626984
   5.4120607  33.1263924  63.4956169  16.6403084  53.9165840  33.9965096
  16.6824360  53.6490669  33.0784187  16.5417347  53.0967216  34.4805984
  50.6970673  62.0028915  61.3439293  50.2030754  61.9062042  60.5297737
  50.6619873  61.1366539  61.7496796  15.1041489  63.8919983  40.9141960
  15.8617029  64.1644058  40.3963737  15.4542933  63.2492752  41.5310707
  68.0216904  44.2917061  86.0764008  68.3720932  43.5418739  85.5955658
  68.5439453  44.3276253  86.8777695   9.0228815  43.8427849  62.4807129
   8.0770311  43.7024841  62.5244560   9.1271963  44.5899086  61.8915138
  72.8821487  32.9088936  12.2137899  72.6420975  33.6841850  12.7212648
  73.8367310  32.8700409  12.2729206  40.0066109   0.4055567  28.2798061
  40.5601349   1.1133003  27.9497433  39.1515160   0.8137242  28.4156055
  48.1967278  66.7646408  62.1655960  48.8775291  66.1503372  61.8910599
  47.6236420  66.8435364  61.4029846  16.4707565  21.0864658  71.9454880
  17.0382481  20.5962219  71.3506393  15.6836901  21.2667656  71.4314346
  41.3051186  35.7943497  72.4599762  41.5528488  36.6276207  72.8606339
  41.2507439  35.1824341  73.1940308   5.1718435  25.1726456  12.3092127
   4.3314009  25.5011234  12.6285706   5.8000212  25.4234734  12.9864931
   3.2329097  35.6092949  42.6779099   3.0370038  35.4982414  43.6082458
   4.0152907  35.0772858  42.5327301   3.9590263  25.0380974  72.9817581
   4.8342690  25.4226742  72.9339905   3.6269379  25.3042431  73.8391418
  47.3444138  67.3318787  86.1450348  47.7478256  68.1937332  86.2484512
  46.4284286  67.4653778  86.3887177   0.1193168  35.6731644  51.8419189
   0.9496959  35.8293991  52.2916908  -0.5466636  35.8002129  52.5176125
  50.1834297   2.5266790  11.3591661  50.7803574   3.1477919  10.9418802
  49.3140640   2.7907336  11.0579815  29.4949780  68.5834045  23.0350380
  29.8853207  68.1876907  23.8143177  29.7926826  68.0317993  22.3116188
  72.6382751  35.0313950  56.8378029  73.0118256  35.7260628  57.3801422
  73.3896866  34.6550598  56.3795624  22.7697697  36.3717995  60.9623985
  23.6723614  36.6407471  60.7914314  22.7463627  35.4454384  60.7225151
  35.0965767  68.4283676  23.1015892  35.7848663  69.0673523  23.2864838
  34.4091492  68.9351349  22.6693077   4.8931727  40.8814850  39.7878036
   4.7277784  39.9965973  39.4624596   4.4210062  40.9230728  40.6194077
  14.7663488  12.4445391  64.4220505  14.8892002  13.1062336  63.7413902
  15.6488094  12.2716684  64.7500916  57.0927086  56.6380272  79.2254105
  57.6643524  56.1876183  79.8471756  57.6599121  57.2824135  78.8019943
  64.1956177  41.3463936  52.0796204  63.9247780  41.9829521  51.4180527
  65.1049423  41.1442642  51.8594055  84.5823212  19.7401638  52.6396141
  85.2308578  19.3750534  52.0376778  85.0198898  19.7418022  53.4909439
  80.7165070  19.1333046  34.3726463  81.4802322  19.4724865  33.9058304
  81.0690308  18.7983971  35.1971474  53.0577278   6.3272233  23.4668140
  52.8642311   5.4668331  23.8389950  53.8611412   6.6036878  23.9076385
  64.1767807   0.6912026  52.9191437  63.2280884   0.6446828  52.8006363
  64.5361633   0.2472527  52.1510353  70.6614456  66.0504913  32.4263115
  71.4086838  65.4548950  32.3704720  70.9012909  66.7888260  31.8663330
  51.2603416  23.4458294   8.8393154  51.0707664  22.9588852   9.6412983
  51.5785484  24.2954311   9.1445255  45.4974785   4.2550521  34.6577148
  45.7973022   4.6690025  33.8484039  45.4112816   4.9781704  35.2789230
  19.8099632  14.0254688   1.5593531  19.4845791  13.5335121   2.3132336
  19.6802368  13.4372787   0.8154212   7.5621576  42.0561905  39.5133514
   6.9620748  42.7587471  39.2632637   6.9954619  41.3740921  39.8736687
   5.8153000  64.2833328  18.0900345   5.7600594  65.2231216  17.9169159
   6.7413449  64.0720062  17.9716492  25.8822613   5.8795323  87.8039169
  26.7362766   6.1841736  87.4971848  25.3065205   5.9773569  87.0455093
  80.1419830  55.2049522  18.8533554  79.4393997  54.6928482  18.4529057
  79.8052292  55.4381332  19.7184887  27.3908787  51.2480545  74.4437714
  27.7076015  52.0048676  73.9506607  27.5874004  50.4975624  73.8830795
  81.0899124  18.5699692  59.3874054  81.6986465  19.3042469  59.4680557
  80.7961502  18.6012821  58.4769363  68.3872757  27.1748104  77.5537949
  68.7302551  27.7985420  76.9138260  68.0827866  27.7194481  78.2796631
  59.7594490  52.0043106  76.6716766  59.4723167  52.0484085  75.7596207
  60.6776009  51.7384605  76.6211319  86.5771713  20.6388893  38.7375755
  86.2029648  20.6460114  37.8565826  87.2574158  19.9663296  38.7034264
  22.7673302  34.1168785   8.8642330  22.1523705  34.6132507   9.4042997
  22.2556343  33.3770485   8.5370483  42.1298409   5.8565583   6.0258479
  42.7766838   5.8239007   6.7306585  42.4716187   6.5115590   5.4172487
  77.6882324  68.3876724  31.9261627  78.3418655  69.0777664  31.8132153
  76.9743958  68.6354065  31.3385410  52.1288681  35.2391319  62.0885239
  51.2709846  35.4422989  62.4613342  52.7284088  35.2745934  62.8338623
  46.1265488  68.6085739   8.8640957  45.7669182  69.3265076   9.3851204
  47.0662079  68.6283417   9.0454273  18.7824078  69.9963226  44.8314667
  19.2405148  70.6783295  45.3226318  19.3262691  69.8526077  44.0570030
  79.2929535  64.5772247  70.1654129  78.3940277  64.7648392  69.8952866
  79.2708130  63.6648827  70.4541550  60.9688644  43.8554611  80.7392578
  60.0753632  44.1459389  80.5561981  60.8604355  43.0768127  81.2853165
  14.5820274  20.6394691  85.6599426  15.1808996  21.2542896  85.2361755
  13.9501419  20.4119663  84.9778900  14.2432251  28.1953201  66.2564926
  15.0850668  27.7841473  66.0603561  14.0576487  28.7383842  65.4904175
  56.8056374  52.0785141  75.3365860  56.7522736  52.9948921  75.0652237
  57.3677330  51.6667213  74.6803055  57.4433823  31.3655262  79.6336899
  57.7165413  32.2479401  79.3827667  58.0383186  30.7861729  79.1576309
  46.7742424  38.2747345  13.0728397  47.4240112  38.6950111  12.5094557
  47.2391663  38.1101303  13.8931952  60.3281021  36.1277504  45.4402313
  60.4383354  37.0685692  45.5778580  60.9691200  35.7234344  46.0249138
  40.4445457  52.6081543  39.8849258  39.7258148  52.0500450  40.1818581
  40.2954445  52.7108803  38.9450073  60.5642471   0.6772034  85.1451416
  59.6188698   0.7242070  85.0027313  60.6556053   0.3751164  86.0488205
  53.9123764  65.3300095   0.9311361  54.4994240  64.8264465   0.3671939
  53.2788124  65.7206879   0.3293020  76.8617172  21.0382080  80.3057709
  77.5489120  21.6622353  80.0721512  77.1747894  20.6278362  81.1118774
  55.0344696   9.8192644  14.9349165  54.3525543  10.4109316  14.6168699
  55.8552475  10.2412195  14.6809244  76.3916779  15.6903515   2.5197532
  76.1827240  14.9098797   2.0064962  75.6443100  16.2729721   2.3847501
  10.7576857  54.9052963  56.2965240  10.9528980  55.6226768  56.8994293
  11.5288544  54.3398819  56.3393440  79.8698196  22.9142513  17.1873055
  80.3684769  22.1228275  16.9842758  79.0327682  22.5910168  17.5206184
  83.8421249  44.1260796  14.4847946  83.5028229  44.9618378  14.8051367
  83.6565628  43.5060997  15.1900778   8.7204351  48.9725571  38.1320305
   8.6701298  48.6334381  37.2383308   9.2591152  48.3347397  38.6002655
   1.6188639  54.1126671  56.7464943   2.2695177  54.3265266  56.0778046
   0.9065973  53.6946373  56.2625961  34.6763229  56.7541313  51.7565231
  35.4036484  57.2626038  51.3977966  33.9982109  56.7976112  51.0823517
  80.9199829   0.3325671  30.2641506  80.1502151   0.9014304  30.2550201
  81.2963028   0.4527641  31.1360283  57.9951553  61.3912048  29.1245384
  58.5385246  61.3577309  29.9118538  58.5804939  61.1189346  28.4177990
  68.3103638   0.6036261  27.3235168  68.0214920   0.0415529  26.6045895
  67.4991150   0.9144817  27.7253475  11.3273134  29.9367466  84.8869324
  10.9466553  29.3018379  85.4937439  11.9034472  29.4168491  84.3265686
  39.8335457  45.5054665   8.3839846  39.5827713  44.5871735   8.4844027
  39.0578346  45.9965706   8.6547680   1.5381495   9.1038914  71.5790253
   1.7939417   9.5027809  72.4106979   1.8596749   9.7115803  70.9130173
  54.5779457  32.3527145  49.9661293  55.3466911  31.9314880  49.5816460
  54.9179268  32.8221588  50.7278786  35.4261894   8.3142214  71.1898956
  34.6641235   7.8384280  71.5202103  36.0933685   7.6396184  71.0633545
  26.6854115  12.8671074  82.9532928  27.3420601  12.1779728  82.8526077
  25.9695187  12.4478817  83.4307632  29.7958565  52.7590752  65.6160507
  29.5028458  52.4313087  66.4663086  29.7984600  53.7112122  65.7143478
  42.7597733  57.9851112  24.7500935  42.4204292  58.6676521  24.1711159
  43.6899986  58.1906586  24.8431625  70.0997772  68.4226456  45.1110611
  69.5661316  67.8400421  44.5706596  71.0026703  68.1911621  44.8932648
  12.0692120  25.6405964  72.7554398  12.6149797  26.3272972  72.3722763
  12.6870279  25.0725231  73.2156830  15.0686874   8.5959301  20.2914543
  14.8782997   8.2585144  21.1667461  14.8791494   9.5323915  20.3492985
   7.7168570  68.4119110  50.8404732   8.1708698  67.6585236  51.2179871
   7.3094363  68.0715714  50.0439720  82.2473373  27.8668289  84.7881470
  82.4331436  27.7589912  85.7209244  83.0996323  27.7758007  84.3620682
  81.2806778  10.8046989  80.9969635  81.0462341  11.0153732  80.0931473
  80.6764984  10.1046247  81.2441483  24.1204624  66.8723450  47.8692436
  23.2150192  67.1040955  47.6626053  24.1480999  66.8438034  48.8256187
  43.9218330   7.6713200  62.2244682  43.7912750   7.4426627  61.3041954
  43.2907028   7.1292443  62.6978188  46.5269279  54.0094261  72.3713150
  45.9493408  54.3114738  73.0723114  46.3300514  54.5864601  71.6334152
  13.5541182  68.8025284  50.1538963  12.6580343  68.6424484  50.4499359
  13.4707584  68.9630280  49.2139359  37.8587646   2.7651093   6.0457802
  38.4611931   2.1352377   6.4414711  37.0133705   2.5764365   6.4531441
  20.1889954   5.2514076  51.0857697  20.2417107   5.1399484  50.1365433
  19.2725658   5.4734616  51.2503281  15.9989614  43.9956970  21.9490833
  15.8211317  44.5888824  21.2191944  16.4144897  43.2347298  21.5435028
  83.3307800   5.8565412  53.4830322  83.7308273   5.7537551  52.6195335
  83.9651566   6.3720603  53.9810677  81.0799332  43.3678970  37.1213150
  82.0349121  43.3164444  37.1612358  80.8103180  43.5220833  38.0267258
  74.1614075  11.7766008  16.2187443  73.9222183  11.1245890  15.5600338
  73.3297424  12.0266562  16.6212730  29.6979885  11.9935131  67.6628189
  29.2799244  12.8338423  67.8507080  30.0538597  12.0951109  66.7800598
  33.3918571  69.9538498  68.1907883  33.6532860  69.2669373  67.5775681
  34.2140656  70.2561111  68.5765915  72.5728989  55.2986870   3.2424474
  72.5535278  56.1344299   2.7761943  73.2702484  55.4017830   3.8899834
  74.2117386  13.9502802  78.9453201  73.5467300  13.5762615  78.3673096
  74.0233231  14.8887329  78.9514847  85.8558426  47.8702660  39.7411690
  86.3609924  47.4484100  40.4362144  85.1987228  48.3898468  40.2042694
  49.4086647   3.2875531  16.4428978  48.7121315   3.5831194  15.8566265
  49.2593384   3.7713203  17.2552433  33.7691193  70.5078964  36.5783539
  33.8864746  71.0964737  37.3240318  33.4302750  69.6992798  36.9624825
  68.4047318  54.8707504  17.3095112  68.3815994  54.4242668  18.1558838
  69.1194611  54.4467659  16.8345051   3.6996076  25.4202232  63.3489723
   3.2414978  26.1917534  63.6823006   3.0035141  24.8530293  63.0173416
  60.8880882  32.3113136  80.4184494  61.2157669  31.5798836  80.9417801
  60.1011047  32.6019478  80.8793411  49.8800468  43.6379662  25.7559471
  49.5554619  43.8002434  26.6416912  50.6615105  44.1859055  25.6830959
   8.7468605   9.4839249  68.6928406   8.1026239   9.8576422  68.0915756
   9.5927849   9.7550364  68.3362732  71.4344330  37.0924568  50.3839874
  71.4954987  37.3155251  51.3128281  70.6311722  36.5766144  50.3138618
   6.7025146  59.2165947  51.8291168   6.7523179  59.7725868  51.0515404
   6.0193496  58.5783386  51.6238289  28.2231674  35.4027519  63.3971710
  28.9644527  34.9676743  63.8184052  27.9402637  34.7902756  62.7181511
  53.9205055  10.1142578  25.2144890  53.3675194   9.3947630  25.5190582
  53.3432350  10.8777895  25.2173519   6.0882473  58.9386749  32.7887115
   5.8578372  58.1488457  33.2779045   7.0028958  58.8073845  32.5388870
   8.9774952  46.7444534  86.6871262   8.8149166  45.8084717  86.8043442
   8.2410679  47.1720543  87.1242371  80.3887253  33.9510918  61.7319679
  79.5421829  34.1290169  62.1417618  81.0329742  34.2127113  62.3897972
  27.4148197  39.7408142  65.0789948  27.3658047  39.0488434  65.7385406
  28.0207481  39.4013824  64.4203033  40.7682915  32.3012390  68.9010010
  39.9778328  32.6103363  68.4584274  41.2727394  33.0962715  69.0733032
  37.4669266  34.9198303  72.4486237  37.4018097  34.6173439  73.3544388
  38.0145874  35.7034111  72.4965591  85.9726028  54.2293129  13.2925243
  85.3352509  54.9430580  13.2684250  86.7643433  54.6273232  13.6544037
  12.1110010  70.6630554   3.4633117  11.2725534  70.3257217   3.7786553
  12.7678823  70.1522751   3.9364316  26.4263172  44.0351715  77.2302170
  26.6655598  43.3608971  77.8660965  27.1045246  43.9808655  76.5569229
  14.7460299  42.2997055  77.3632507  14.9362221  43.0557938  76.8079224
  14.9198294  41.5422859  76.8043747  16.0963936  43.4515228   3.4145191
  15.5311918  42.9177399   3.9729605  16.9774208  43.1114388   3.5706105
  84.4178238  23.5250530  49.0773239  83.5647430  23.9586964  49.0564728
  84.5985031  23.3965893  50.0084953  85.1210251   4.5734501  70.6604233
  85.4649277   5.3971033  70.3146591  85.8895721   4.0088754  70.7430115
   6.4109139   0.1275619  65.0322037   6.0870924  -0.3297617  64.2561722
   6.8116717   0.9264663  64.6895981  14.7745094  43.5461998  16.0555534
  15.6094942  44.0122986  16.0978394  14.1659918  44.1000862  16.5445824
  83.1693344  40.2555656  17.1015835  83.5547409  40.1468964  16.2321682
  82.5891266  39.5009575  17.2023964  82.7078323  14.4660530  39.0909653
  83.6412964  14.4460411  38.8800888  82.5469971  13.6387224  39.5447159
  84.3161240  65.3677063   4.0000496  84.8353653  65.0097656   4.7201147
  84.7264404  65.0149994   3.2104485  32.3489914  18.6519909  72.8616638
  31.5110836  18.7531643  72.4101028  32.3692398  17.7321510  73.1257019
  85.0927582  44.9631042  -0.1999164  84.2133942  45.3348427  -0.1308584
  85.4963989  45.1434860   0.6490644  56.7701073  45.3100586  28.3498039
  57.0588531  44.4314270  28.1030960  57.1908264  45.8879890  27.7132282
  70.2319641  63.3294487   9.4813948  69.9975510  62.4092026   9.3612680
  70.5221176  63.6176376   8.6159534  10.1909990  51.2722473  76.7316513
  11.1396227  51.2322540  76.8530807  10.0753632  51.7243958  75.8959351
  49.1370735  24.3236389   0.5600346  50.0918579  24.2558270   0.5639217
  48.8353806  23.4753208   0.8849516  13.5121040  56.9289055  60.2712059
  13.0558128  56.4547005  60.9663010  13.3661356  57.8525467  60.4756851
  65.9385376  57.9414253  43.7044983  66.8362961  57.9852486  43.3753624
  66.0300827  57.6516151  44.6121674  48.3081398   0.1602168  17.3949375
  47.3598442   0.2666025  17.4700584  48.4875374   0.2641765  16.4604645
  82.4428864  38.1069527  73.8068924  81.7343216  38.4544792  74.3485489
  82.6594467  38.8218002  73.2082825  43.2900810   0.4948052   0.3514774
  42.9788170   1.3646921   0.1011906  42.5645103  -0.0907131   0.1348050
  66.9771881  44.6789703  48.7081070  66.6791229  45.5398178  49.0019188
  67.5325851  44.8634720  47.9506607  55.1626854  46.7523537  65.3930054
  55.6793022  46.9652824  64.6158295  54.3225555  46.4511757  65.0470123
  10.3688335  12.8556175   7.0218849   9.5299015  13.1259813   7.3951521
  10.2819014  11.9106178   6.8967824  37.3437767  16.8930073   8.3926640
  37.1831398  15.9677248   8.2075100  36.9038544  17.3593845   7.6818953
  56.2582626  46.6409264  54.8702736  56.9863434  46.0457687  55.0489388
  55.4796333  46.0856171  54.9102974  81.0486603  67.6329880  87.6698761
  81.9676361  67.4849243  87.8930206  80.5929031  67.6211166  88.5115280
  53.9744034  56.8354225  21.3067818  53.4865417  56.0391922  21.5171204
  53.2997169  57.5000496  21.1678562   0.3989262  43.8977356  16.2284279
   1.0249604  43.2463264  15.9122362   0.5491961  43.9356079  17.1730003
  72.0047455  60.1655235  47.6841736  71.5234985  60.0648270  48.5054474
  72.1582489  59.2692986  47.3850861  68.8343201  59.6659088  63.2116547
  68.9735565  59.3945007  62.3043594  68.1354446  60.3180923  63.1619911
   1.2585202  58.1159096   3.9727418   0.6239601  57.4461441   3.7178223
   0.7395874  58.7736855   4.4356346  74.6550903  28.8140850   4.8981037
  74.9147797  28.2563152   4.1648335  74.7472458  28.2543926   5.6691322
  12.7194672   7.0052638  84.8014526  12.2400684   6.2871370  85.2146149
  12.0882759   7.3995352  84.1994705  43.9056473  36.2614670  49.4506645
  43.9441223  35.4197083  49.9047508  44.8215561  36.4909554  49.2935829
  33.7987137  31.8943825  60.4218369  33.4351273  32.4409332  59.7251892
  33.2985306  32.1358452  61.2014160  70.5660172  11.1330366  34.5074654
  71.1702347  11.6500387  33.9746742  71.1251678  10.4994183  34.9570312
  65.0899353  69.4012375  13.4497452  66.0081253  69.1533585  13.5579739
  64.6965637  68.6646729  12.9818144  19.5193424  66.0768280  25.1647453
  18.6192837  66.1864853  24.8579845  19.8713074  66.9663696  25.1973915
  56.0960197  29.0903358  51.8780823  55.1563797  28.9384003  51.7769470
  56.2378311  29.9643211  51.5143929  44.3655014  69.5420456  48.3014870
  45.1596756  69.9932175  48.0151978  43.6775208  69.8817978  47.7292290
   4.0941114  31.9579601  16.4788361   3.4676139  32.0236130  17.1995449
   4.8365254  32.4941864  16.7572479  72.4238510  64.6965714  56.5434303
  73.0096970  64.4484329  55.8282814  72.8997345  64.4544373  57.3378677
  20.9996014  58.7648582  55.4182129  21.7669067  59.3347588  55.3663712
  20.2603359  59.3399544  55.2207718  53.2072868  12.0152235  82.8895721
  53.9827232  11.4615870  82.7978058  53.3888855  12.5562944  83.6580124
   3.6736448   6.5054607  40.5783463   3.9118071   7.3410344  40.9799995
   4.1004691   5.8463221  41.1256943  49.6671638   4.3932409   0.4176177
  48.7164650   4.2860918   0.4479377  50.0057487   3.6829541   0.9626722
   8.7123737  21.0410385  72.6695175   8.4426708  20.1304207  72.5500717
   8.0925465  21.3925438  73.3086472  14.5546350  47.7856293  13.8873129
  14.6327963  48.4198837  13.1746817  13.9093313  47.1518059  13.5741310
  78.6419754  56.7744598   0.6594644  78.9388351  55.9091911   0.9412726
  79.3104477  57.3757210   0.9878817  65.7330551  49.6034622  79.9816132
  66.6325073  49.9170876  79.8875351  65.3748627  49.6336021  79.0944672
  81.8087311  59.0897827  57.0837440  82.3637772  58.3262253  56.9252319
  82.4185562  59.8269348  57.1145821  80.7595444  54.0921059  24.0472832
  79.8731842  53.8844681  24.3430595  81.1707993  54.5147171  24.8012733
  23.3329945  14.2872667  11.2412920  22.9405117  15.1586866  11.2943792
  22.8571663  13.7702694  11.8913174  30.7230740  10.2885485  11.9808741
  31.1447868  10.6806278  12.7455072  30.1564350  10.9800987  11.6389523
  76.2920761  67.3373184  36.8851204  76.7944412  67.3871765  36.0718727
  76.2442169  66.4014053  37.0800858  21.9446926  65.3983612   1.3940871
  21.5782356  66.2356644   1.1097273  22.8345299  65.3942184   1.0413798
  46.4480515   6.2097893  88.1854019  46.3817368   6.5876122  87.3084335
  47.2203636   6.6263075  88.5678711  44.5962601  26.4269390   0.5988523
  44.4105835  26.3229771  -0.3343933  44.8184509  25.5454216   0.8985029
  72.4471207  57.3930893  47.7438622  72.7535934  56.8349037  47.0292015
  72.5533066  56.8564453  48.5293388  81.9423599  57.6355247  34.5358620
  81.4034195  57.7414703  35.3197899  82.6409302  58.2821693  34.6362839
  66.5088959  48.3622055  35.2204475  65.9809799  47.9550629  34.5335884
  65.9111328  48.9729080  35.6516647  12.8137541  40.0575714  50.3269806
  12.4597578  40.9096107  50.5818291  12.9823866  40.1393204  49.3883057
  42.4527740  51.2971802  30.9803181  42.2668610  51.9321747  30.2886181
  42.2461090  51.7600784  31.7922592  11.1105137  67.9729385  14.2257452
  11.2408810  67.7220078  13.3112679  10.4800644  67.3356934  14.5614300
  12.6847124  43.8915596   1.2295675  12.8957930  42.9598465   1.2894608
  12.5116081  44.0386353   0.2997093  34.7279396  45.7025719  15.6753130
  35.4957771  46.0970459  16.0888939  34.1042519  45.5842743  16.3917294
  43.8214417  55.0348930  77.8587418  43.6061401  55.5191269  77.0616226
  43.2366371  54.2772560  77.8440628  83.6803360  60.9283600  13.3616619
  84.0592117  61.4890900  14.0386181  84.2623825  60.1692963  13.3259821
  41.9116058   7.7601519  22.3698273  41.1416893   7.9040904  21.8196068
  42.5217514   7.2825823  21.8077927  21.0263195  18.8841934  79.8921661
  20.5656281  19.4204769  80.5374527  21.5692902  18.2941418  80.4149017
  67.3047791   9.8191128  57.8314514  67.3130264   8.9119682  57.5260773
  68.1249313   9.9164152  58.3153114  27.2012806   0.8540617  74.4392929
  28.0631943   0.5844731  74.7565536  27.3234634   0.9892141  73.4995880
  17.9565907   6.5959859  81.9950714  18.6031322   5.9424744  82.2617874
  17.4226551   6.7376022  82.7767944  10.5895376  59.5348778  42.1737328
  10.2516050  58.8001671  41.6616440  11.4829388  59.2774048  42.4012680
  44.5968018   7.5087352  67.5756760  45.5025101   7.1990790  67.5817947
  44.6637497   8.4408331  67.3684464  49.4583931  40.9327621   6.0803604
  50.2914772  40.9579659   5.6096559  48.8054924  41.1787567   5.4250426
  80.5500031  25.6257153  81.4850159  79.6304474  25.6013088  81.2203293
  81.0308838  25.7592201  80.6682129  17.5547256  55.3225365  16.0912685
  18.1537132  55.9042435  16.5593071  17.1966400  54.7507858  16.7703171
   9.4014330  59.9218521   6.1941080   8.8572445  59.3383217   5.6653528
   9.6111002  59.4108353   6.9758592  76.8112717  61.2839241  42.2291260
  77.7257233  61.4942932  42.4182129  76.7644653  61.2565536  41.2734604
   3.5071204  54.8785629  34.6343346   3.2394307  55.5061836  33.9630127
   3.0716231  55.1802597  35.4315491  68.6940155  21.1711292  64.1722488
  69.2530441  21.9353714  64.3124237  68.9408417  20.5628242  64.8688660
  65.0970917  19.3806553  86.2803116  64.2315445  19.6028214  86.6233902
  65.5327988  20.2250366  86.1645126  71.2389755  36.3634834  54.8779716
  70.7062759  36.9065208  55.4589844  71.7680511  35.8278503  55.4690819
  70.7452469  54.7713394  45.9147110  70.1951370  54.9953194  46.6653366
  70.3297653  55.2118034  45.1733627   1.1082522  65.6266861  46.0299225
   1.9379615  65.4739075  46.4821091   0.5109353  65.9199371  46.7179985
  25.9440231  60.0657158  42.5055542  25.9352016  59.1798096  42.1431732
  26.8068600  60.1499290  42.9113235  11.5223465  43.5074043  18.2267056
  12.1593552  42.8472595  17.9534664  11.2364855  43.9168549  17.4100876
  60.2808685  27.3512554   0.6936852  60.7691536  27.7168465   1.4313515
  59.5546112  27.9606342   0.5616165  69.5182343  27.0908508  12.2763348
  70.4477615  26.9402504  12.1044807  69.1947174  26.2493534  12.5979767
  66.6613388  37.3808746   6.4408097  67.3845749  37.3834381   7.0678291
  65.9575958  37.8538399   6.8849754  76.6627808  45.6152153   0.6662686
  77.3581009  45.6961937   0.0134267  76.0518494  44.9826584   0.2882930
  24.3774700  17.7034721  25.7825928  25.0785275  17.5685253  26.4201984
  24.0668392  16.8215179  25.5779076  21.2220783   9.6947765  15.4932766
  20.5137081   9.0568619  15.5799189  21.2861519   9.8551426  14.5517836
  54.2023354  35.9405518  63.5462799  54.3179512  36.8248863  63.8938713
  54.7195740  35.3846207  64.1290588  51.9565964  47.1852493  80.0461731
  51.9664345  48.1374664  79.9491119  52.7981300  46.8995476  79.6906128
  82.4540939  58.5055656  73.9216614  82.8462753  59.2926788  73.5436630
  81.7386551  58.2844353  73.3254395  62.2758217  17.3814659  58.0381622
  61.4496880  17.7141171  58.3889847  62.4409294  17.9191341  57.2636414
  45.5110588  12.9421215  33.1374550  45.3695908  13.1884432  32.2233734
  45.0377235  13.6050463  33.6401634  37.8378181  43.5101852  51.2761421
  37.9593925  42.5676003  51.3900909  38.7260323  43.8587761  51.2000427
  83.1848679  56.7764282  55.9146385  82.6088028  56.2156258  55.3951340
  83.6137619  57.3406563  55.2712708  59.1375961  67.4366760  77.2163239
  58.5959587  67.3322983  76.4340439  58.7350388  68.1638412  77.6910934
  75.6840515  55.8637123  39.4096298  75.0692215  55.7510147  40.1345482
  75.2301102  55.4962769  38.6512375  49.0150185  46.6695290   4.4669390
  48.8287659  46.9741287   5.3550611  49.6901932  46.0004845   4.5798545
  36.7338142  41.5061989  59.6431656  37.3713608  40.8115997  59.8083992
  36.6305923  41.9426727  60.4887810  10.9539204  34.3606796  57.4355087
  11.0584049  34.0226631  58.3249245  10.2100430  33.8741951  57.0802460
  85.3410873  60.4142838  37.1506004  86.2131424  60.0197639  37.1405296
  84.9119873  60.0668678  36.3686752   2.9175024  48.5662079  68.8705139
   2.9298060  47.6525764  68.5852814   2.4068182  48.5575333  69.6800537
  56.5165024  59.9746399  77.1781082  56.7311897  59.2352448  76.6093903
  57.2249184  60.6018448  77.0332108  30.6918030  50.4911385  32.3195686
  31.6067276  50.4867668  32.6008644  30.2487221  49.9087791  32.9366302
  73.5196915  65.6316071   6.0004511  73.1452866  66.4090118   6.4148026
  72.9947205  64.9049835   6.3360848  28.1828270  57.0536880  77.1314468
  29.0541267  56.6924286  77.2944107  27.7263927  56.9648857  77.9681168
  44.9998055  67.4600372  26.8999710  44.4868279  67.9722595  27.5250435
  44.8046150  67.8543549  26.0498848  83.5758743  57.1707039  83.4985733
  84.0656662  57.7177467  84.1126404  83.8031769  57.5168266  82.6355743
  65.9526062  65.1645660  75.3087082  65.9967270  64.2533417  75.0189819
  65.9016647  65.6713715  74.4982834   1.0093473  32.9374542  14.5671721
   0.7831801  33.3082275  15.4201717   1.2666939  32.0355988  14.7586460
  76.7293015  59.3387222  11.2299461  76.2361679  58.8852005  11.9135885
  77.4269485  58.7278442  10.9925747  82.8570251  69.8667297  39.8998833
  83.2211685  70.4160309  40.5940781  83.6038284  69.3626556  39.5767479
   8.0192404  55.4820518  20.6731071   8.7602978  55.1276665  20.1817036
   8.1261797  56.4315529  20.6161690  73.3178558  35.5214310  29.2734680
  72.7034836  36.1006470  28.8225918  73.9554596  35.2791557  28.6019020
  64.8492126  51.9869385  15.1290703  65.1927567  51.2017975  15.5554028
  64.0468750  51.6934586  14.6973772  57.2391548  66.4849319  79.4221191
  56.3731270  66.3890305  79.8183899  57.0883026  66.3640900  78.4846344
  67.6613312   5.5710316  53.2674561  66.9899368   6.1635809  52.9293060
  68.4603958   5.8264632  52.8064995  84.2237091  42.9267883  45.0478516
  83.9059906  43.7495537  45.4197960  83.4356995  42.3956146  44.9333267
   3.6307414  16.5121746  48.5936165   4.3760896  16.3612347  49.1749115
   3.9554145  16.2818604  47.7231140   2.9073746  28.1770821  85.5890274
   2.8251426  27.2386093  85.7585526   3.8500667  28.3252392  85.5141068
  14.0715294  26.6808186  87.3022919  14.4343452  27.5639515  87.2339249
  14.4811392  26.1973972  86.5848312  59.9934006   9.4077196  77.7223663
  60.6793404   9.8467884  77.2194443  59.1875229   9.5917473  77.2397461
  74.1901855  16.5066872  80.5800476  74.9007339  17.1032791  80.3446121
  73.4497528  17.0811653  80.7749252  68.2388535  56.5336723  88.6440659
  67.3043060  56.4070129  88.8078003  68.5920944  56.8243294  89.4848785
   2.0447912  15.8022013  22.7102528   1.9828240  16.6512241  22.2725868
   2.6833127  15.9394999  23.4100170  56.6022224  21.7970467  54.9375610
  57.2032318  22.4230766  55.3414230  56.6378059  21.9997349  54.0027428
  20.7396603  68.4863739   3.9417319  20.1337414  67.7747040   3.7352817
  21.5975475  68.1551666   3.6760960  16.2008247  10.2269106  59.1269836
  17.1111774  10.2225885  59.4227409  16.1353664   9.4718924  58.5422630
  44.0436058   8.4108124  55.2545204  44.4168625   7.5691319  55.5162239
  43.0972710   8.2675982  55.2676010  60.0624542  38.6769409  82.9263687
  60.1661224  38.8754959  83.8569870  59.1258812  38.5104485  82.8198700
  13.9079275  58.0990143  20.5242653  14.1287861  57.1724510  20.6188030
  14.3316040  58.3641396  19.7079086  25.4477482  53.4594307  39.8422165
  24.8048096  53.8824158  40.4113808  25.6951847  54.1382942  39.2144051
  79.4300537   9.8089151  29.5231094  79.6389465   8.9815378  29.9567471
  79.5748901  10.4748545  30.1952553  62.7799454  63.5351639  66.0401001
  62.4748421  64.4320297  65.9030838  62.2974854  63.2329750  66.8096085
  17.7034645  47.2973976  41.2952919  17.2233410  47.9771271  41.7682457
  18.5253181  47.2052727  41.7772675  47.5050316  62.5840378  29.8027744
  47.1354828  63.3172340  29.3107452  48.1519241  62.9863434  30.3823566
  61.5228348   5.8697639  70.7942047  61.4083481   6.7835598  71.0551682
  60.6362457   5.5612259  70.6071243  59.5602989  52.5261269   3.6419997
  59.7584610  51.7332420   4.1402969  59.9803314  52.3868332   2.7932334
  65.8748169  40.8345070   0.9110821  65.7214050  41.2657852   0.0704317
  65.5389252  41.4512405   1.5615029  81.4678726  58.9951248  12.7108927
  81.6127930  58.4026222  13.4485703  82.0171051  59.7552376  12.9027290
  68.7890930  65.5462646  67.9118881  69.1023560  65.9245453  68.7334747
  68.8227692  64.6004944  68.0554581  42.8717041  56.2405663  86.7414780
  43.7478104  55.8879128  86.5855637  43.0183830  57.0148544  87.2847977
  25.7913818  56.4476624  69.9098282  26.3433094  56.1490402  70.6326218
  25.2170982  57.1049728  70.3027267  72.8367996  12.8765287  49.9484444
  72.5061798  13.3855019  49.2082672  72.0835342  12.7853928  50.5319824
  22.9126530  65.7899017  80.7268066  23.5368233  66.3381119  81.2023163
  22.1357269  65.7715607  81.2856293  46.7134743  37.0625610  49.5369072
  47.4447632  36.6234093  49.1026382  47.0216370  37.9576530  49.6786118
  46.5476303   7.2910256  70.5147705  47.4495811   7.5705733  70.6715012
  46.5770607   6.8527656  69.6642990  52.4124374  46.0064240  62.6790543
  52.2019768  45.5668716  61.8552017  52.8767395  46.8007164  62.4149399
  11.1711082  53.0711823  53.7594910  10.9249773  53.9058800  54.1581535
  12.0058851  53.2495270  53.3263931  25.7482033  65.9097595   6.0335798
  26.0768261  65.1683731   5.5250683  24.8367386  65.6859665   6.2216811
  77.6013489  64.3555679  54.2176247  78.2401199  63.8497124  53.7153130
  78.0039291  64.4612045  55.0796013  56.8999901   7.7508249  88.3649597
  57.5631905   7.5018921  87.7211990  56.7803154   8.6914511  88.2340698
  61.1250725  24.3746510  15.3379488  61.9594727  24.7318668  15.0339699
  60.9119263  23.6905956  14.7032290  37.7893715  69.7774582  55.7450333
  37.6564331  70.6302032  56.1590195  38.6773148  69.8193741  55.3900223
   6.0415654  61.1913071  27.2708340   6.6643057  61.8357086  26.9344177
   6.4692011  60.3471260  27.1268978   1.2351285   9.7353182  57.5181885
   0.4240398   9.5402260  57.0488205   1.9301113   9.4657726  56.9177094
  68.6284637  45.7882919  41.5555878  67.6827240  45.7514038  41.4125862
  68.7269058  45.7884865  42.5077095  53.2051468   3.4752538  13.0811682
  53.2622719   3.1386120  12.1869411  52.8989639   4.3763609  12.9787550
  39.4458694  44.6497688  68.5873795  39.2268867  45.4803772  68.1650391
  39.1617126  43.9816589  67.9635849  15.7788887  46.3463097  36.1160088
  15.8948679  45.4056168  36.2497139  15.8503189  46.4641991  35.1687851
  80.6923676  22.4126816  26.1010895  81.4455109  21.8349476  26.2244987
  79.9372253  21.8244686  26.0981159  13.7866983  16.7015114  14.3332014
  14.1042042  16.5084877  15.2153368  14.5675154  16.9759312  13.8523169
  41.4383965  56.7599564   7.2717948  40.7349968  56.6271591   6.6363215
  41.0258064  56.6053696   8.1215620  10.3708906  54.2946053   4.6967130
  10.0875454  53.7117615   3.9922695  11.3062563  54.1159744   4.7937322
  26.7576714  47.3898010  26.9589653  27.5856609  46.9449158  27.1399097
  26.3357391  47.4678650  27.8146000  85.4188766   9.4421024  13.8105145
  84.9334564   9.3637104  14.6317616  85.5943756   8.5382538  13.5488100
   3.8725142  20.7486553   6.3955746   3.5723355  20.4046803   5.5542626
   4.0583320  19.9698830   6.9201851  69.0885544  24.7446976  13.2008743
  68.8213348  24.5117970  14.0900230  70.0291824  24.5686550  13.1796064
   9.7426577  14.0139456  10.0499945   9.0754232  14.5213013  10.5121851
   9.6274548  13.1191626  10.3698740  70.8001175  25.2655487  82.7198257
  71.1655807  24.3915596  82.8569870  70.7658386  25.3642101  81.7683411
  41.2899132  32.9717178   2.0135398  40.7038727  32.4438629   1.4711756
  41.6051712  33.6590424   1.4266614  22.0193596   5.2145944  82.6328278
  22.5979576   5.0807056  81.8821411  21.5317268   4.3944154  82.7086639
  60.5472946  19.8499260  51.3650589  61.4740906  20.0875511  51.3365211
  60.5470238  18.9028893  51.5041733   3.9444935  65.4025116  58.0393524
   3.5183315  66.2571335  57.9741859   3.5783710  65.0121994  58.8329773
  54.6834602  42.6837807  66.4224854  55.5572739  43.0257301  66.6115646
  54.1900597  43.4441948  66.1149826  51.4638481  28.0854969  10.9255943
  50.9348984  28.6944008  11.4410343  52.3043213  28.5306339  10.8174591
  45.1464920  69.6995010  61.3423042  45.8391800  70.1115417  60.8259392
  44.3357048  70.0724945  60.9962883  46.3852959  51.4561844  68.6655273
  47.2753906  51.8082619  68.6661301  46.4790688  50.5685387  68.3198090
  52.3722725  69.8922501  21.8141079  52.1812363  70.8240814  21.9209995
  52.3625641  69.5420456  22.7048893  61.1241226  56.2119827  88.3624039
  60.7918167  55.8078613  87.5608444  61.4809380  57.0529251  88.0765152
  81.9532623  64.8463593  77.7166977  82.3079147  65.7100906  77.5059357
  81.9691772  64.8077469  78.6729889  10.0800076  58.8418388  48.9269066
  10.1159382  58.8360786  49.8834152  10.9917278  58.9432907  48.6535835
  57.5852356  70.5537872  28.0950432  57.8456154  69.6592941  28.3148308
  58.0789413  70.7587051  27.3010063  86.5553741   2.4131875  53.5460052
  86.9518585   3.2270944  53.2352142  85.7565613   2.6916552  53.9938774
  45.0836563  44.1444969  44.9952011  44.3570862  43.5213470  44.9922943
  45.6347237  43.8733025  44.2610283  31.7216530  44.7861519  44.2821045
  30.9771996  44.4775543  44.7986221  31.3485146  44.9964371  43.4260826
  73.8410187  30.8719273   3.2141290  73.3789978  30.5161667   2.4550459
  73.8628311  30.1493435   3.8415287  51.4524498  42.5615807  39.3778534
  51.5139008  42.7841988  40.3067780  51.4894333  43.4048767  38.9265060
  75.4753265  47.8570557  65.3121338  75.6450577  48.6448326  64.7955780
  75.2190323  47.1981392  64.6668625  12.5159616   7.2203465  18.8506813
  13.2123032   7.2197509  18.1939163  12.9724560   7.1035185  19.6838646
  75.7153244  41.3949623  66.7374420  75.9519348  42.2129440  67.1746521
  74.7664337  41.3311615  66.8459549  27.0197773  24.0212250  83.2729263
  27.0042305  23.1137409  83.5770111  26.0993195  24.2831783  83.2536850
  55.9375381  26.4888687   4.9283233  55.8210449  25.5990887   4.5952263
  55.0468903  26.8210640   5.0406966  40.9852295  66.8151627  19.1722260
  41.5879402  67.2435455  18.5643940  41.2845726  65.9065933  19.2058926
  56.7230186   1.7263314  48.4124146  57.1000862   2.2737677  47.7236710
  55.7847633   1.9130377  48.3800163  61.1450882   2.0937185  17.9867821
  61.8140640   2.7711077  18.0860081  61.5958061   1.3751134  17.5432854
  50.7730751  53.7768784  76.2692490  50.0832787  53.7786560  75.6056137
  50.3031769  53.7672577  77.1031113  19.7000847  58.7567863   5.7387500
  18.9137707  59.1122284   6.1530004  19.5633354  58.9005966   4.8023477
  46.9488335  63.5070610  63.7191277  46.4983177  63.4117584  62.8799706
  47.7228928  62.9495544  63.6400795  72.0787277  36.1397247  17.0834179
  71.1717529  36.0655441  17.3802776  72.5990753  36.0718307  17.8839550
  38.1523399  48.8328552  42.7344513  38.8792572  48.8771706  43.3556252
  38.5402527  49.0766830  41.8940315   8.4292984  60.6463852  71.0358124
   8.4945507  60.9324036  71.9469528   8.5334883  59.6956863  71.0751724
   5.6830740   3.2122688  39.3809929   6.2522206   2.7021258  39.9572372
   5.8083434   2.8235552  38.5152893  26.3162518  30.9333248  87.6744156
  25.8053589  30.6741905  86.9075623  27.2106552  31.0258942  87.3462296
  37.4314232  15.1166239  62.8967247  36.8531914  15.6921701  62.3960991
  37.2384987  14.2385683  62.5680466  16.1867142   4.0094256  45.8199348
  15.3132515   3.6405249  45.9511108  16.7309895   3.2582479  45.5838661
  20.7256031  65.7478867  82.4284973  19.9944496  65.5728912  83.0209732
  20.3182182  66.1325607  81.6524200  10.1203098  50.9864044  47.2211227
   9.2106295  51.2253304  47.0432777  10.5958757  51.8166351  47.1930733
  52.7655067  71.1320724  85.3906631  52.7240829  71.2918015  86.3335342
  53.1255913  70.2485962  85.3129959  53.9334412  53.2403488  70.3254395
  53.0228043  53.0449181  70.1045761  54.0224876  54.1798019  70.1650467
  41.4355850  49.5127602   9.4685078  42.3068314  49.2767601   9.7870493
  40.8345642  49.1191940  10.1010513   7.1402912  69.0303421  34.3506165
   6.5541167  69.7555161  34.1343727   7.3043175  69.1265335  35.2887383
  69.0425720  65.2313995  15.7391758  68.5273743  64.5627518  15.2878399
  69.2408600  64.8455505  16.5924263   6.6007028  41.1655273  71.9106064
   6.0830288  41.1650162  71.1054688   7.2803016  41.8220940  71.7579803
  49.0471191  15.3814611  73.6888123  49.5519485  15.2580242  72.8849792
  49.1946182  16.2969856  73.9260635  67.4194107  40.3652916  23.4530220
  67.1668243  40.4614029  24.3712788  68.1022797  39.6945839  23.4613914
  48.6684456  54.2823906  74.5219421  47.8710861  54.0742416  74.0349808
  49.3449097  54.3649826  73.8497696  85.4905319  68.3115845  56.5237007
  85.2014618  67.7969589  57.2772446  84.6794052  68.5927124  56.1002884
  16.4997025   1.1363171  21.1045513  16.9661064   0.4587716  20.6150303
  16.7711029   1.9576429  20.6946774  56.5686302  60.9906654  36.7922974
  56.1638222  61.6902428  37.3050880  55.9158745  60.2906036  36.7849770
  57.3940201  43.9374504  65.6101303  56.9291077  44.1757851  64.8080750
  58.1443825  44.5311203  65.6374283  16.6136017  29.0934830  31.9364262
  17.5540714  29.2520161  32.0177650  16.2086563  29.9275208  32.1743965
  86.6866837  42.6949425   3.2164230  85.8359756  43.0793648   3.0048654
  86.5627975  42.2991791   4.0791259  82.5858078  63.1838684  56.0582504
  81.7485962  62.7521515  55.8881454  82.3636856  63.9221230  56.6255875
  72.3389664  52.4092255  69.9033585  72.3380280  53.3581810  70.0287247
  72.9033051  52.2686310  69.1431046  82.8741837  39.0929947  53.9101982
  82.5610580  38.2395439  53.6105156  83.8139038  38.9697800  54.0442467
  45.0068169   6.4415994  58.6336250  44.1490784   6.7609048  58.9139099
  45.4892998   6.3041081  59.4488182  57.6834030  41.1285706  23.4208241
  56.9171143  41.4953461  22.9797916  57.3242874  40.6569099  24.1723595
  69.5620956  55.2986755  53.4205513  69.7680664  56.1785469  53.7361908
  68.8692245  54.9907265  54.0047913  63.0377502  19.8786469  28.1730194
  62.8393250  19.8022003  29.1063023  62.1808586  19.9256859  27.7490406
  24.4356174  65.6531372  41.9615669  24.7342873  64.7572708  42.1179619
  25.0871639  66.0221710  41.3653030  22.2731056  57.3813820  82.3065033
  21.3761768  57.4355125  81.9766159  22.3260803  56.5176849  82.7157135
  30.2858047  37.6470833  77.5430069  30.4989052  36.8816299  77.0092468
  30.4088230  38.3915367  76.9540405  76.1377945   3.4434042  34.0173798
  75.5654831   2.7101977  33.7913246  75.5472946   4.1925759  34.0966263
  63.2524986  22.1732616  44.8495064  64.1703110  22.0767975  45.1035614
  62.9781609  21.2900200  44.6028290  11.1876106  18.0464382  80.3145142
  10.8609438  18.8148098  79.8464050  11.4225044  17.4270096  79.6235962
  52.1903191  51.1242332  28.0040493  52.4864349  50.2230988  27.8755722
  52.4821472  51.3485680  28.8876457  19.0445156  67.5411453  68.0957184
  19.4832859  67.4873047  67.2467041  18.1844158  67.1486053  67.9461441
   9.4878378  50.2144547  50.4727135   9.5330648  51.1311951  50.7443237
   9.9157343  50.1968918  49.6166611  52.8748932  68.1981583  37.9184303
  52.4001999  67.7072144  37.2477036  53.4509735  68.7821045  37.4251060
  42.1797447  46.5941124  47.0132484  41.3245354  46.7828407  47.3995590
  41.9933281  46.4249535  46.0897408  30.7098770   3.2522483  38.5262489
  29.9291115   3.7484803  38.7719955  30.5043964   2.8947318  37.6624260
  83.4471207  64.4166641  66.8110504  83.0902100  64.4837112  67.6966858
  84.1547165  63.7763863  66.8858109  82.3401947   6.8444886  64.6027908
  82.8450775   6.9179597  63.7929001  82.8686295   7.3019462  65.2567978
  61.6908073  10.2493696  37.4074783  62.0258217   9.7071304  38.1216049
  62.4425392  10.3735399  36.8280678  27.7542210  27.7548561  76.2901993
  27.8692646  27.4103527  77.1758118  27.7569256  26.9792423  75.7292633
  62.0801086  52.0758896  34.1322021  61.1908875  52.0233154  34.4825706
  62.6416054  52.1027756  34.9069443  17.4815769  47.4994621  85.6737518
  17.5445061  48.2346916  85.0640717  16.5538120  47.2639351  85.6699982
  58.3704147  16.7761402  48.3043976  58.4533768  15.9818296  47.7767410
  57.7786331  17.3364697  47.8023453   0.9954963  66.8708954  24.7870960
   1.6917728  66.2156448  24.7415447   0.9306443  67.2138214  23.8957901
  54.2082443  45.6482277  88.0551910  54.5758591  44.9444656  88.5898056
  54.9703789  46.1410179  87.7509918  43.5505142  31.3029747  69.5773315
  43.8641434  30.4020233  69.4988708  42.7261124  31.2285938  70.0580215
  78.4500122  47.9631233  26.1212807  77.9652405  47.8164139  26.9335003
  78.1232605  48.8017616  25.7954750  58.7061653  47.6144371  38.9047852
  59.3861656  48.0703392  38.4088173  58.8874092  46.6855164  38.7616463
  68.9890900  35.2890358  71.2307434  69.4786148  35.0487289  70.4440689
  68.6668320  36.1724167  71.0517883  15.6547537  70.9806290   7.7856746
  16.1113911  70.5195847   7.0820012  14.8478327  71.2977676   7.3800516
  59.8845062  13.3846626  69.8698273  59.9467506  13.5452671  68.9282532
  59.0613403  12.9082108  69.9776306  30.3109512  34.3877945   8.7770824
  29.5673943  34.9905815   8.7768164  29.9350014  33.5436058   8.5276060
  79.7739487  42.4573708  31.6102180  80.6834717  42.6801758  31.8085976
  79.2798843  42.7707100  32.3678131  18.3675919  58.3196220  40.5273705
  19.0532837  58.4060555  39.8651123  18.6780243  57.6213722  41.1038361
  52.5921974  65.8380585  12.2042418  53.3990593  65.9603271  12.7045002
  52.1102104  66.6564331  12.3233156  27.4810162  40.5999641  58.6292648
  27.9315357  41.4385910  58.7291031  26.6035519  40.8339882  58.3267403
  67.0807724  59.2757225   4.6097569  66.4282150  58.5784035   4.5454030
  66.9965134  59.6006203   5.5061784  73.6238708   2.2448728  81.1342087
  73.2646866   1.5884807  81.7311783  73.9418488   1.7396445  80.3859711
  71.5313416  26.2845135  65.2029648  72.0615921  26.6916180  64.5178833
  71.8830185  26.6381607  66.0199585   9.6108894  26.8337917  82.3161545
   8.6754150  26.6763363  82.4439316   9.8275919  26.3537331  81.5168915
   8.4898090  43.4741249  79.4561996   8.9665728  43.1746483  80.2303009
   7.6074691  43.1197662  79.5663681  67.5137177  71.6803436  57.5611992
  67.1050262  70.8152008  57.5341377  67.7138672  71.8793945  56.6465683
  47.1964912  62.7089653   2.2883718  47.1524773  63.3065338   3.0348332
  46.4833298  62.0878944   2.4363801  84.5076065  71.3711395   2.2116437
  85.2064362  72.0198898   2.2952170  84.8925552  70.5602570   2.5440719
  83.2794037  24.4030266  71.7087173  83.8386002  23.6363163  71.8339539
  83.3434906  24.5960064  70.7733688   3.2296333  29.0616932  70.9921188
   3.2199068  29.0471096  71.9491577   3.1929836  28.1395283  70.7381439
  65.2375336  28.6969204  54.0034866  64.6117630  29.0711288  53.3833160
  64.6940765  28.3380604  54.7049904   2.7706752   4.6118212  38.8343391
   2.7735887   5.3430800  39.4519806   3.6965110   4.4148669  38.6919670
  82.7581253   8.7172861  10.8625975  82.3239899   9.2880297  10.2285547
  82.3082275   8.8917446  11.6892719  50.7452660  55.9251595  82.7900543
  50.0423889  56.4616127  83.1566849  50.3220100  55.0963745  82.5659866
  38.8886833  11.5924721  64.4195328  39.0156860  10.6959696  64.1090775
  37.9598541  11.6380873  64.6463013  82.5019989  15.8759336  77.8644104
  83.1009750  15.8819990  78.6110153  82.9174805  16.4482212  77.2193604
  16.9337273  46.2638321  10.3473778  16.0455551  46.5213852  10.1002989
  16.8721008  46.0554657  11.2795887  44.8527451  66.0858078   7.7879858
  44.1583748  66.3927155   7.2049842  45.2161140  66.8851013   8.1692066
  50.5176430  44.8538628  49.2146378  50.5237770  45.5641670  49.8562508
  51.4065323  44.8440742  48.8596611  61.6821213  22.1749153   7.6406922
  62.5699348  22.3424988   7.3245611  61.1264763  22.7421207   7.1061192
  39.9315948   1.8510008   3.0481799  40.3404694   1.0506586   3.3775852
  39.3831024   1.5577773   2.3205755  60.9970970  27.3130054  51.8704567
  60.5194359  27.7186623  52.5939980  60.3139305  27.0117359  51.2714996
  36.0675316  69.3881912  47.8087540  36.6153183  70.1099319  48.1173897
  36.2851906  68.6577301  48.3877907  59.0002861  31.5611420  16.2857685
  59.7432632  30.9577274  16.2961960  58.4572296  31.2851810  17.0241241
  71.9019318  33.9437561  25.3384094  71.2973175  33.3838005  25.8253613
  71.3381119  34.5823174  24.9018517  43.9588242  61.8805351  57.3742599
  44.2802124  61.0846939  57.7980194  43.0539398  61.6771317  57.1375237
  42.1435966  12.5505552   6.6287804  42.0309830  12.9867659   5.7842278
  41.8189468  11.6617336   6.4844522  72.4250717  28.9832096  50.9450760
  72.8476715  28.5852814  51.7061882  72.9300308  28.6646194  50.1969147
   6.0882239  46.2283554  59.9386444   6.4892297  45.3606758  59.9891891
   5.9890075  46.3920937  59.0007858   6.3157382  14.4164886  79.5150757
   6.8873177  13.7253304  79.8494873   5.5607324  14.4084692  80.1034088
  17.9081249  64.5226288  39.3795776  17.7519207  63.9744720  38.6105843
  18.7492828  64.2204971  39.7222176   4.5251250  32.7986603  85.5745087
   4.6754866  33.7292290  85.7408295   5.2694325  32.5281181  85.0368729
  65.2544479  70.6477432  71.8720169  65.4206848  70.6960526  72.8134308
  66.0911179  70.3760147  71.4946899  10.2303791   3.5706859  11.8717213
  10.6182489   2.6956096  11.8771896  10.8129272   4.0874066  11.3150625
  52.1265945  24.4673748   0.3962355  52.5729866  25.2387981   0.0471362
  52.3501587  24.4619961   1.3269455  36.9235878  54.0780411  29.8828449
  36.6685524  53.6069183  29.0896015  37.1146927  54.9666367  29.5826645
  22.1454277   4.2739272  59.3237991  22.1512928   3.9402106  58.4266739
  23.0644703   4.4598837  59.5161858   8.7193642  23.6705151  11.7994661
   9.6606951  23.5260353  11.8956585   8.6504955  24.5247211  11.3730621
   6.8503904  53.8856316   2.7202532   7.1593246  53.5609360   3.5660448
   6.0549164  54.3758545   2.9279432  20.7723656  10.0225315  77.9612045
  21.0994282  10.7320461  78.5142441  19.9808846  10.3788090  77.5576477
  25.3872242  43.8765373  71.6011887  25.7483711  43.0863342  71.1994629
  24.8709908  43.5549660  72.3403320  70.5223160  71.4414902  44.2825584
  71.3870544  71.7554398  44.5469475  70.4696732  70.5551376  44.6401215
  23.0915585  15.4651375  75.2835922  23.0991192  16.2553787  74.7434998
  22.3132076  15.5579271  75.8329468  64.6814423  53.7339935  52.7931328
  64.1819305  52.9263344  52.6730843  65.5969543  53.4589691  52.7438126
   6.2649789   9.4910431  81.0232086   6.1273422  10.1161966  80.3115387
   5.5529447   9.6675348  81.6380997  70.6234512  69.3742676   5.9206982
  70.0725708  69.8778000   6.5200486  70.0046616  68.9467010   5.3286490
  75.5558548   5.8259993  69.3730240  75.2179565   5.2884445  70.0893326
  76.2205429   6.3800159  69.7822800  11.0325518  53.3517265  45.9564819
  10.6819258  54.1837769  46.2742653  10.6168423  53.2268448  45.1033554
  21.2036304  35.7167473  64.7987900  21.0974903  35.6778641  63.8482857
  20.4924088  35.1755333  65.1415482  59.3259850   0.4969807  61.4113998
  59.2867470   1.4493724  61.3239784  60.1851349   0.3271133  61.7977066
  80.4815750   4.3181758  57.2210007  81.0827637   3.8904607  56.6111908
  79.7434998   3.7130497  57.2937393   9.4522934  64.7029419  48.8988113
  10.1937323  65.1531448  49.3035469   9.6104727  64.7791290  47.9578514
  83.2152634  65.8867798  48.3974876  82.6731415  66.3243179  49.0539207
  82.7481842  66.0212402  47.5728722  28.8171444  62.6842232  79.7587357
  28.6735268  61.9263725  79.1919327  27.9696674  63.1284943  79.7839279
  71.4314575  55.3176498  15.4614677  70.8329620  54.5878220  15.6208086
  71.4194183  55.4342384  14.5114708   0.5146610  36.4307480  30.6354256
   0.2215565  36.3339424  29.7293625  -0.2058014  36.0799828  31.1589985
  56.7644157  21.6423931  52.1477509  57.0170479  22.4144707  51.6414833
  56.7656784  20.9275932  51.5111237  66.5005188   1.9756202  59.5462723
  66.8429184   1.2553904  59.0168724  66.1320572   2.5873036  58.9088478
   9.3662233   2.9940560  34.9519272   9.5411253   2.1878057  34.4665375
   9.8956146   3.6586339  34.5111160   6.7852588  48.8277359  85.5556870
   5.8314066  48.9015427  85.5865097   7.0517249  48.7817459  86.4738922
  19.6742401  57.8438759  80.8106232  20.1976433  57.9622574  80.0179901
  19.0224342  57.1850967  80.5710678  65.6242447  50.4606743  74.1959686
  64.8716278  50.7036438  74.7351913  66.1589432  51.2537804  74.1597214
   4.4648900   8.8006601  41.7762489   5.0747857   9.2314777  42.3751259
   4.6417680   9.2012796  40.9251022  41.5841560  51.2306900  34.8874207
  42.0592079  50.4038200  34.9701424  40.6876602  50.9715843  34.6743622
  59.9867058  45.4891548  13.0762691  60.4438019  44.7295418  12.7153177
  60.6257248  45.8981781  13.6598692  54.2457695  34.0112038   7.6062894
  54.8592949  34.0653191   8.3390179  54.6563492  34.5260391   6.9115953
  80.5131836  58.1938133  72.0637054  80.5671463  58.5750961  71.1873779
  79.9755096  57.4099312  71.9511490  28.5811863   1.0653359  79.2890778
  29.0570202   1.0488356  80.1194611  28.5650845   0.1516960  79.0040588
  28.4137726  57.6000824  27.8318481  28.3748608  58.5543251  27.8962116
  28.4321918  57.2993011  28.7403755  77.7442017   7.8406072  48.7138443
  78.5086288   8.2111425  49.1549530  77.2771912   8.6000643  48.3654785
  55.0604744  51.9448166  87.9805832  55.1167412  52.2930794  88.8704071
  55.9714127  51.8523064  87.7015457  61.8937111  28.7333622  79.7094193
  61.7876587  27.8438492  80.0466919  61.7400055  29.2969379  80.4676971
  57.9461479  53.6334839   9.8338146  58.8656540  53.3725433   9.8853226
  57.7308807  53.9281845  10.7187109  32.2004356  39.9005814  15.0156193
  32.1569099  40.2642021  15.8999920  33.1323357  39.7385254  14.8688822
  45.7406731  63.7620201  88.1326981  45.7532997  63.8523636  87.1798477
  46.6640091  63.7205086  88.3816071  38.8042068  50.6866074  40.8256378
  38.0933266  50.4036446  40.2504768  38.3616104  51.0436745  41.5956039
   7.3625751  57.9872360  25.1715660   7.4714150  57.0547600  24.9848118
   7.3325863  58.0382576  26.1269341  65.9320145   5.0086541  25.1535950
  66.3252411   4.7989993  26.0007381  65.8496552   5.9622970  25.1572113
  10.4734144  17.9792423  88.7325821  10.0676298  18.6918468  89.2263031
   9.7435904  17.5537357  88.2825394  18.3759117  71.2511749   1.4200543
  18.1268597  71.0159378   0.5262601  17.9483109  72.0936050   1.5739868
  32.6902657  55.2174683  21.3383007  32.1353645  54.5480766  21.7385864
  33.5238838  55.1470642  21.8034401  16.3889065  36.4287148   0.5668585
  16.3161716  37.3635139   0.7594646  16.6087589  36.0273514   1.4075730
  76.6797943   5.7232509  55.6290665  77.0823059   6.4487305  55.1516838
  77.4133835   5.2819920  56.0572701   7.3819518  48.3690376   6.6748724
   6.4730706  48.6215286   6.8374052   7.3365903  47.4381104   6.4568248
  68.0600052  67.6961517  16.8505878  67.1679993  67.4267883  17.0696926
  68.4145508  66.9634705  16.3468971   3.4679971  47.9827042  17.8178596
   4.1382122  48.2965736  17.2107944   2.9765823  48.7679482  18.0589733
  76.5114517  60.0877571  37.1724396  76.8095245  59.6269264  36.3882103
  75.6148453  60.3532944  36.9679527   0.4655379   0.3767795  17.8216743
  -0.4640401   0.5996185  17.7720833   0.8455755   1.0570190  18.3776226
  68.4592056  16.4809151  79.8520126  67.9293823  16.3684597  79.0627823
  69.3460236  16.2435970  79.5809708  75.9124146  49.1922531   4.6862578
  75.1432648  48.9056168   5.1786819  76.3769150  49.7760048   5.2860117
  65.8845062  32.4543953  71.1913147  66.6423264  32.0206375  71.5834885
  65.8190918  33.2887192  71.6559143  33.7871971  64.9012299  21.6293030
  33.9808044  65.5917282  22.2633038  34.6265030  64.7237396  21.2046890
  70.5591354  14.2350512  25.6185684  71.2879868  14.8264837  25.4309196
  69.8768539  14.8022060  25.9778233  37.0604935   4.1663918  25.3933411
  37.6007423   4.7557864  24.8670540  37.5700188   3.3578172  25.4464722
   4.7047691  62.1469879  35.6647644   4.4161825  61.6749268  36.4458580
   3.9378128  62.6507797  35.3923569  76.5863342   0.5952227   7.1813841
  76.4061356   0.8811575   8.0769281  76.7025833  -0.3523161   7.2513094
  68.5272903  22.7017078  30.6560097  68.5777359  22.9953861  29.7463722
  69.0766830  21.9184284  30.6856289  39.3638039   2.7305045  23.8329563
  40.3059769   2.7999430  23.9869556  39.0542068   3.6362491  23.8299656
   8.0804281   8.4799690  47.6521568   8.4379387   7.9254875  46.9586372
   7.6887293   7.8650894  48.2724190  62.2999611  60.4242096  44.4824448
  62.4375381  61.3706627  44.5216064  62.4260292  60.2018204  43.5600128
  44.1306343  11.4254169  10.4404125  44.9977875  11.0201225  10.4366312
  44.2504272  12.2428770  10.9237757  33.4512405  53.6714096  58.3621063
  33.9825630  53.4486923  57.5976944  32.7432251  53.0272598  58.3575783
  40.5673714  59.6392174  33.4715462  40.7281342  60.5755348  33.5885735
  39.8624763  59.4384384  34.0872116  73.6481705  59.5438881  65.4812775
  73.0408401  59.6594429  64.7505035  73.0891876  59.5357132  66.2582626
  37.5362015  43.5702209  86.5588913  37.4577942  42.7459068  86.0786896
  36.6322136  43.8386002  86.7232285  13.2594652  25.1650352   4.0395288
  13.8613167  24.5084496   4.3901048  13.7480965  25.5837364   3.3308961
  76.5311661  42.7201958  44.2244072  76.8815308  43.3905449  43.6378021
  76.6768417  43.0709190  45.1030426  45.0605354  43.6595955  71.8575745
  45.1334763  43.0640945  72.6034241  44.8007622  43.0980377  71.1272354
  48.3002472  33.8173332  60.6136284  48.7814217  33.0580597  60.2846794
  47.3990364  33.5082169  60.7058182  39.8491516  35.4169044  65.7408905
  39.0789452  34.9063454  65.4912186  39.9788933  35.2168770  66.6679230
  11.6649990   9.0524893  88.2030182  11.3472738   9.9312744  87.9956055
  11.0173187   8.4653997  87.8130569  65.9520798  13.9418135  78.5945740
  65.9459305  13.6232462  79.4971848  66.0709076  13.1543856  78.0634689
  68.2634583  63.4111137  41.0801315  68.1547165  63.0160904  41.9452133
  68.1035080  62.6934242  40.4672928  22.0173950  54.6105652  38.6763878
  21.7442875  54.5737610  37.7597160  22.6119995  55.3594589  38.7192688
  15.7390594  53.6841698  48.2506027  15.9804354  53.7218513  47.3250999
  14.9726744  53.1112061  48.2751083  83.5120239  39.5197296  41.6579170
  83.3049469  39.9576607  40.8323479  84.4361877  39.2834167  41.5784492
  52.9965706  17.4500103  34.0234871  52.2327423  17.0007915  34.3854256
  52.9377556  17.3001347  33.0799217  79.2996216  40.1894417  14.0945778
  79.6800842  40.8431129  14.6812620  78.6782990  39.7091522  14.6418543
  10.5013609  24.3523598  75.3987885  10.3496342  25.2890034  75.2726517
  11.1617928  24.3076859  76.0902100  81.1099243  64.5233765  58.1851463
  81.1529007  65.4789200  58.2214775  81.2721710  64.2419205  59.0855293
  70.6637421  52.7789192  20.3891983  70.7900162  53.4939842  19.7655220
  71.5407181  52.4188919  20.5215664   9.7478809  52.0635681   6.9666371
   9.9053392  51.7706299   7.8642035   9.4679213  52.9743843   7.0575871
  20.7191639  25.9074078  59.5582199  19.8397903  25.5293427  59.5576363
  21.1575527  25.4929810  60.3013878  60.7184334   9.7290745  69.2796707
  60.6822815   9.2562342  68.4481964  60.0694923   9.2927847  69.8317184
   1.4046139  64.3770294  17.6100330   0.6429899  63.9755974  18.0283775
   1.4846089  63.9224663  16.7714596   3.0701604  25.9132652  47.8261452
   2.8084273  25.6821251  48.7173843   2.3720329  25.5627518  47.2729836
  77.6549911   3.4471085  80.3696289  77.8920593   3.7998235  79.5119476
  76.7237167   3.6480865  80.4621735  66.5963058  60.4981346  41.8224030
  66.3424377  59.7167397  42.3135262  66.7284241  61.1693878  42.4918747
  54.6557007   5.6190262  79.4300995  55.1640549   5.2486567  78.7085495
  54.0723267   4.9100437  79.7007446  27.2679958  47.8734932  41.9538307
  27.0201702  47.0524139  41.5288086  28.0798397  48.1331406  41.5182571
   6.8281026   1.9127754  36.6585541   5.9659972   2.1827679  36.3421516
   7.4294014   2.1605728  35.9562225  74.8669434   9.9090681  41.3257027
  74.3596649   9.8055515  42.1307983  75.4428940   9.1447973  41.3055725
  50.9010735  25.6440048  25.7472649  50.7461815  25.9424610  24.8510704
  51.7019043  26.0949059  26.0148315  61.2469406  49.6332245   9.7664270
  62.1280441  49.5449448   9.4029732  60.8411980  48.7785225   9.6211863
  55.6244621   9.9956160  50.8791122  55.1131287  10.7827911  50.6916962
  55.0251198   9.4313536  51.3676071  14.1949587  41.3146439  25.0787868
  13.7561874  41.7867813  24.3711147  15.1001511  41.6243515  25.0481415
  64.5922318  24.4476204  69.1259537  64.7019348  25.3762798  68.9215317
  64.1031799  24.4396400  69.9487457  74.4821854  50.3219337  63.9162216
  73.9179916  50.1500778  63.1623077  73.8747177  50.4918404  64.6361847
  42.4064598  41.8281822  23.9672012  41.8598022  41.1434479  24.3526077
  42.2521324  41.7560387  23.0252819  13.7274666  24.3618431  61.2654686
  14.4996996  24.3061829  60.7026253  13.8309631  25.1907597  61.7328186
  72.3177338  47.6566391  36.9764214  71.4264297  47.3657913  36.7835083
  72.8654099  46.8964348  36.7805405   4.9788938   0.6553794  25.1973267
   4.4708462  -0.0104408  25.6607952   5.2195725   1.2875096  25.8746147
   4.7123451   9.6775389  71.7341690   5.5419564   9.2005415  71.7129517
   4.5777750   9.9643049  70.8309097  20.9812737   2.3680944  15.5236835
  20.8199654   3.2869923  15.7377815  20.3512840   2.1694090  14.8309574
  16.1844177  31.1314087  13.6736622  15.8566885  30.2874489  13.9843931
  17.1042900  31.1432133  13.9381056  86.2282486  23.0624352  60.2359467
  86.1160583  24.0122318  60.2750549  85.8879700  22.7463970  61.0729370
  17.5976276  30.7777710  70.6208191  16.8035660  31.2986126  70.7409134
  18.2703819  31.2502003  71.1111755  80.9924622  62.0741043  19.1420708
  80.8349228  62.5366325  19.9651642  80.7071075  62.6870384  18.4644890
  38.7746124  61.1636696  59.4131203  39.6380844  60.9192047  59.0801201
  38.7151413  62.1059494  59.2556267  53.9358749  34.3028221   0.1631124
  53.0230026  34.1160126   0.3821813  54.4392433  33.6678314   0.6726575
  58.4199371  52.0040054  45.4965630  57.6838036  52.2655525  46.0496788
  58.1578102  52.2598686  44.6122246  52.8108826   5.7349968  36.7165489
  51.8724518   5.8746834  36.8433342  53.0118027   6.1872201  35.8971863
  16.9248276  69.6454010  48.5497589  16.8893566  68.6947021  48.6552734
  17.4943371  69.7812576  47.7925034  14.9144526  53.5618057  72.6157150
  15.8320656  53.3488770  72.4457703  14.4265060  53.0516281  71.9692917
  56.0396194  31.8145542  62.8969536  56.2620392  31.9784851  63.8134079
  55.9962387  32.6852074  62.5015831  66.6259079  44.6860771  52.5296059
  66.7563400  44.1599731  51.7406616  67.4254227  45.2069588  52.6050301
  56.8066292  26.1337032  21.4438076  57.4984436  25.5592556  21.1157227
  56.0002518  25.6335545  21.3179531  48.5967255  54.4286728  63.3617172
  48.0289650  53.6803246  63.5457077  48.9196701  54.7011833  64.2205963
  21.1013203  40.8883171  82.1581955  21.3690224  39.9808693  82.0129318
  20.1524792  40.8422356  82.2757111  36.8434677  11.9698849  79.5267639
  36.5488739  12.0279665  80.4356537  37.7788658  12.1693983  79.5649643
  65.3390274  22.7683353  42.6697655  64.7337265  22.0448322  42.5073471
  64.9307098  23.5223293  42.2443275  65.9768829  45.9871101  40.7986107
  66.1683655  45.0685158  40.9876900  65.0862732  45.9788628  40.4479408
  78.7771912  70.1322403  34.8485794  78.5888977  69.1938400  34.8620186
  78.0246811  70.5337677  35.2830238  64.8375168  46.7266922  52.0471077
  65.2285690  45.8648987  52.1907082  65.5371399  47.2436295  51.6476898
  67.6558533  11.0423412  67.7912216  67.4516220  10.1516743  67.5062027
  67.5068283  11.0313654  68.7366867  26.6094780  49.6485596  36.7006454
  26.9104443  50.3082275  37.3255348  27.3472824  49.5312843  36.1022148
  79.0257645  50.0048027  46.2583466  78.9208069  49.0579453  46.1652069
  78.6372147  50.2062645  47.1096230   5.5910368  28.7748184  17.6673698
   4.8297138  28.4744244  18.1637402   5.4723759  28.3980465  16.7954788
  74.9710922  53.8222961  77.0332184  75.0128937  53.7520409  76.0795212
  75.8428268  54.1232185  77.2896500  64.6651611  56.9772072  33.6008644
  65.5575714  56.6650543  33.4512138  64.1196289  56.1960487  33.5090866
  44.7108650  25.6125488  34.1826134  45.1308517  26.4416790  34.4114914
  45.3585663  25.1562195  33.6455116  52.7970924  28.5829830  60.6304207
  53.6621208  28.3382416  60.9591446  52.4519310  29.1851349  61.2895927
  17.4790478   4.4403257  73.8276672  16.8904018   3.6857426  73.8094482
  17.1661282   4.9705687  74.5605698   3.6621737  54.8254166  54.7091370
   4.1016321  55.1121979  53.9085999   3.1090097  54.0956497  54.4304314
  28.5352612  16.1382351  69.1442490  28.0044918  16.6850357  69.7234955
  28.7166252  16.6961994  68.3879318  43.6897430  11.9290152  17.7281113
  44.1860237  11.3750610  17.1255569  43.2900314  12.5942392  17.1678104
  55.9385872  37.3182182  60.7624130  56.1461639  37.6687126  61.6286125
  56.7910576  37.1336708  60.3681259  73.2483597  41.7621803  49.3667831
  72.6643600  41.0043106  49.3952065  73.7148056  41.7365875  50.2022476
  18.4795094  58.6249657  50.8726883  18.4712677  58.6792259  51.8283157
  18.7983551  57.7420197  50.6856689   4.9974675  45.7536507  22.2065601
   5.3522267  46.3447876  21.5425320   5.1189861  46.2211647  23.0329342
  15.4132566  26.6124725  11.8379936  14.5854445  26.9138393  11.4636450
  16.0672321  26.8184376  11.1700668  39.7099266  46.9911194  40.1637001
  40.5472908  47.2644119  40.5383568  39.6431122  47.4807701  39.3439369
   9.5362844  66.0455627  84.7355347   8.8423920  66.0585709  84.0763092
  10.3279381  66.2872238  84.2547913  66.1868134  52.6276894  61.3959541
  65.9405899  52.3094978  60.5274162  65.6145325  52.1506500  61.9969177
  86.3470917  22.8761253   0.2518732  85.5784683  22.6775875   0.7866841
  86.4436111  22.1150856  -0.3206064   4.1044607  18.9836197  51.8846359
   3.2162898  18.8123035  51.5715332   4.0379000  19.8178787  52.3491936
  63.8031235  67.8239441  34.2081909  63.9421310  67.9772110  33.2736244
  63.3043175  67.0078354  34.2454720  56.3974342  40.5802536  28.9575615
  57.2110138  40.0767174  28.9298191  55.7097321  39.9197769  29.0416660
  62.4929657   2.2041626  31.3261681  62.3975601   2.6247439  32.1807098
  61.6517296   1.7727833  31.1762753  74.0282440  32.3376961  66.3967896
  73.2214432  31.8331852  66.2929916  74.1598434  32.3868752  67.3436203
  82.9942093  53.9842415  58.2400436  82.1602783  54.3417702  58.5449333
  83.1406479  54.4064293  57.3935547   0.3068390  17.2152100   5.4498386
   0.5288580  16.3297062   5.7376304  -0.6449063  17.2025776   5.3485818
  44.9901695  29.2338886  17.4960938  45.8834381  28.9395237  17.6739979
  45.0363579  30.1881886  17.5545063  69.1919250  16.2301865  49.8535881
  68.5813446  16.7653484  50.3605614  69.2908096  15.4283352  50.3669014
   0.4487594  42.6188660   8.8739061   0.4541380  41.6980438   9.1352234
   1.3736361  42.8627014   8.8367567  40.3219109  54.6532822  80.4562912
  40.3689842  53.7741356  80.0806351  40.5426254  54.5313110  81.3796768
  83.9504395  59.8001060  77.5550079  84.4804230  59.2372208  78.1193771
  84.5864487  60.2430687  76.9933167  34.9726334  47.5236893   2.5253999
  35.7103615  46.9279442   2.6560881  34.5987663  47.2610321   1.6842899
  48.6168633   4.7879186   6.3615770  49.0686874   5.3103728   7.0242434
  48.2381630   5.4334736   5.7648554  10.1080885  63.9446144  79.6871185
   9.7629185  64.8316956  79.5862198   9.4192953  63.3785324  79.3387680
  43.4493790  63.4748039  59.5757904  44.0506973  62.9493141  59.0480423
  42.5802994  63.2508621  59.2429504  84.0065842   1.6812142  82.7912598
  84.5013199   2.2576361  83.3736725  83.1071548   2.0048659  82.8413315
  37.0109406   0.3569170  42.7007484  36.1396675   0.5126051  43.0652695
  37.5414925   1.0823722  43.0300865  21.6428471  64.7677612  27.6721439
  21.2425194  65.1644211  28.4458561  22.3206081  64.1898956  28.0227680
  16.0764694  36.3946762  19.8946743  15.4789715  35.6550179  20.0048141
  15.5052967  37.1361847  19.6942673   1.1382698  16.3156109  32.0360069
   0.2015591  16.2628384  31.8462181   1.3277425  15.5182619  32.5305443
  79.6406555  39.1819267   7.6255698  80.5643616  39.2337112   7.8711686
  79.2211151  39.8847313   8.1218357  71.9003906   7.0358729  65.6854782
  71.3533630   7.5569081  66.2732849  71.6559219   6.1293120  65.8715210
  51.7005081  42.5855980  18.7670784  51.6488914  42.9415092  19.6541500
  52.1117935  41.7282257  18.8765602  72.1421585  52.0620804  72.9765472
  72.4339905  52.0142784  72.0661774  72.0309906  52.9980087  73.1436005
   0.5202208  38.0506973  76.0975418   0.0378353  38.8498421  75.8856354
   0.0115079  37.3490067  75.6912537  69.4640045  21.5180168  70.8580475
  68.9774323  21.2969437  70.0639343  70.2638092  20.9951153  70.8022614
  72.2602386  31.7567081  21.5191383  71.5333786  31.6032124  20.9155235
  72.0084991  31.2956619  22.3193245  68.5238266  49.6017723  28.7458820
  68.4422913  48.8626633  28.1431389  67.9530106  49.3759880  29.4803314
  47.0359230  70.5206757  38.4463654  47.8565865  70.9273911  38.7244339
  46.8130951  70.9656372  37.6286926  67.6397552  33.8941765  47.3395462
  67.2301331  33.2079926  46.8126755  68.5794067  33.7329254  47.2541389
  73.7089462  65.6196594  20.8374290  74.4947586  65.0956955  20.9929733
  73.3974609  65.3350143  19.9782524  26.2357693   7.0360785  74.9274063
  26.5617046   6.1493506  75.0813904  26.8299503   7.5991778  75.4234924
  26.1681480  64.9543076  26.4945087  26.5213032  65.6943054  26.9883862
  25.5257893  65.3460007  25.9027443  73.9336472  51.4886551  48.0223503
  73.2442398  52.0220871  47.6268768  74.4251328  52.1004143  48.5704613
  82.0201950  17.1212330  46.3570824  81.6018829  17.9549770  46.5718307
  82.4201584  16.8353806  47.1783905  65.5629959  57.6407890  70.0776062
  66.4438019  57.2954865  70.2231445  64.9821777  56.9053726  70.2726517
  57.9578323  20.0899849   2.3500733  58.2157249  19.1795025   2.2060404
  58.5856361  20.6005020   1.8387333  58.5073853  42.4139786  57.5438271
  57.9966888  43.2235031  57.5345078  57.8619385  41.7219315  57.3999443
  46.4259529  69.0084381  18.1675167  45.8529015  69.7750626  18.1563911
  45.8502731  68.2825546  18.4081898  69.1926498  54.1188545  64.3195343
  70.0675659  54.4511032  64.5204697  68.7910843  53.9686928  65.1753540
  82.5043182   5.1248293  70.9146500  83.2950592   4.5905437  70.9888687
  82.8074875   5.9499989  70.5359421   3.1005609   9.7267017  53.8263168
   4.0408573   9.8880396  53.9040642   2.7878902   9.6923389  54.7303543
  53.2473602   6.4991655  34.0975761  53.4664993   6.0593696  33.2761192
  53.9018326   7.1927967  34.1798973   7.1510324  24.9154663  76.3239899
   7.6247096  24.4946747  75.6064911   7.8276892  25.3763065  76.8199615
  53.9466438  39.2576599   9.5237398  54.4613571  38.4876137   9.7652683
  54.2060814  39.9272919  10.1566019  37.5559731  20.8648510  71.4920425
  36.9932480  21.5925579  71.2274399  37.6009750  20.3032360  70.7182236
  17.1404877  44.9637642  78.7805023  17.6363564  45.4704285  79.4236450
  16.3323441  44.7255287  79.2347946  43.1046028  45.5812263  65.1236649
  43.2865791  45.6659660  64.1877518  42.5547066  44.8006439  65.1910248
   5.9322066  68.5680771  71.3803101   5.7367678  69.1886673  70.6782379
   6.5624890  69.0261536  71.9363174  19.0288944   8.6085110  69.4104767
  18.7705460   9.4229870  69.8418884  19.7576714   8.8589458  68.8426743
  16.6860695  36.1121941   9.2443027  16.9517956  35.2565422   8.9074335
  16.7568951  36.6986542   8.4911222  52.6640778  20.1010761  15.6175833
  53.2845497  19.4166241  15.3670368  53.2077293  20.7870083  16.0051041
  25.4273319  19.3902893   3.8914866  25.4517956  19.3704357   2.9348054
  25.5356693  20.3147697   4.1147122  65.0595245  35.3655396  15.2116365
  65.6653442  34.9685822  14.5858278  65.0480957  34.7587242  15.9518242
   3.1033626  40.6693115  14.9851160   2.2231290  40.4414711  14.6859360
   3.1496849  41.6207047  14.8905878  34.9917297  56.5573921   4.3513956
  35.0956841  56.1609993   3.4863527  35.0491562  57.4994202   4.1916556
  60.4351883  15.5063438  40.8670197  60.4190941  15.3160048  39.9290733
  59.5533409  15.2905798  41.1703682  85.6058044  46.8707733  21.5662556
  85.6725998  47.7648087  21.9016285  86.3182220  46.3991966  21.9978886
  82.9720535   8.4470568  38.5153198  83.4421082   8.3196135  37.6912804
  83.3017273   7.7550449  39.0886116  18.9910679  34.8076668  74.1769180
  18.5498829  34.7701492  73.3282852  18.4713326  34.2365303  74.7425232
   3.7277062  70.5047150  35.3100471   2.9081080  70.9875565  35.2034912
   3.9819424  70.6621246  36.2193451  13.3630342  31.3824501  78.6387711
  12.5163965  31.8153725  78.5291595  13.1450787  30.5090122  78.9640884
  79.2129898  47.8560524  49.7181015  78.3026733  48.0597916  49.5035362
  79.1870346  46.9555702  50.0416679  79.8200226  65.0121002  82.0799866
  80.1903687  64.5281982  81.3418045  80.5775146  65.4074173  82.5114594
  83.7917252  67.9482040   5.3254175  82.9289246  68.2647552   5.0578427
  83.9007950  67.1224899   4.8536782  11.8786373  42.1265984  12.0753012
  12.6515951  42.4772987  12.5177689  11.7074442  41.2942696  12.5159292
  12.7663870  69.2162018  21.4287338  12.1953888  69.5785294  22.1061649
  13.0420952  69.9761734  20.9162273  56.1560822  64.5904922  81.3778458
  55.8782845  65.2577972  82.0053558  56.9470291  64.9521561  80.9780502
   1.2766166   9.6643410  23.1313801   1.3550037  10.5947819  23.3420143
   1.6966361   9.2163363  23.8656197  27.4740028  53.7946663  64.1317291
  28.0677814  53.3231125  64.7159348  28.0430717  54.3837967  63.6364326
   6.3959107  36.1699715  84.0443192   5.9381113  35.8495483  84.8214798
   5.6965828  36.4160843  83.4388428  49.3331604  38.7605705  88.0786133
  48.8601761  37.9420815  88.2289200  49.0425148  39.0497894  87.2136765
  23.6006966  15.5372152  68.4267578  23.6664600  15.0913572  69.2712173
  23.0872097  14.9417562  67.8808670  78.7100677  20.4315872  14.7259188
  78.9732056  20.1013851  15.5849638  78.1525574  21.1852055  14.9194889
  21.6373882  30.8074932  81.7133026  22.2065315  30.8325424  82.4825058
  21.4744415  31.7276268  81.5058517  53.7586555  10.0066099  20.8175640
  53.6222343   9.1761713  20.3615017  54.6926842  10.1872911  20.7118683
  58.0283279   9.1107645  42.2394600  58.6993217   9.7791224  42.1005516
  58.5174065   8.3318481  42.5046425  67.2940598  43.9443512  29.7925949
  66.9155655  44.1118736  28.9295139  66.6439056  44.2816772  30.4088211
  46.8621635  24.0435905  56.0640335  45.9722862  24.3438492  55.8791199
  47.3725433  24.8483124  56.1544037  75.3982620  15.1065178  68.9940186
  75.0156708  14.5797367  68.2923355  76.0467758  15.6563787  68.5543518
  57.6830673  18.7316761  28.1566830  58.2201080  18.9513149  28.9179821
  57.7234840  19.5108871  27.6022205  18.2649403  67.0478439  55.7614212
  18.0595837  66.7929916  54.8619156  19.1998863  67.2523727  55.7448997
   3.9315562  12.4004622  41.7166748   3.0706363  11.9862995  41.6573601
   4.4020777  12.0865345  40.9444771  49.3856659   2.9633770  67.9565811
  48.5009651   3.0785604  68.3033752  49.7182961   3.8543477  67.8481369
  35.7690086  48.9781837  85.5104446  36.0058861  48.3806534  84.8011627
  36.5572586  49.5012856  85.6562424  39.1629257  48.5401230  24.4573898
  39.5104256  49.1230049  23.7823162  39.9088554  47.9969940  24.7120132
   3.0681441  63.5952110  43.4417114   2.5719981  64.3926239  43.6266632
   3.5431166  63.7905807  42.6339607  79.0369873  18.2528152  16.6591358
  79.2258148  17.6174889  17.3497410  78.1504211  18.0363293  16.3704147
  41.5529785  67.8655167  88.6834183  40.7694740  67.3637772  88.4584503
  41.7222595  68.4045486  87.9107437  49.8800507  46.6510086  13.5341721
  50.3213081  45.8766785  13.1849728  50.4852715  47.3713799  13.3580980
  10.4322290  38.6996155  34.2097702  11.3478146  38.5544128  34.4482117
  10.4710312  39.0879402  33.3357430  73.7022095  43.7708054  45.2504883
  73.5529099  44.6830215  45.4990883  73.6812439  43.7768440  44.2935371
  62.1913147  46.0870476  32.1340866  61.4367142  45.8951912  31.5773067
  62.4356461  45.2398491  32.5066338  77.9041672   4.4154677  77.6380463
  78.7967377   4.2987804  77.3125687  77.7508163   5.3587384  77.5837021
  11.9071655  65.6499710  65.4157944  11.0501690  65.9755096  65.1404648
  12.2651234  66.3498993  65.9618683  71.8837662  68.1846466  47.9334221
  70.9737015  68.0518646  47.6681061  72.1039047  69.0567398  47.6059723
  59.7836990  52.6023636  87.0440063  60.5615501  52.2978134  86.5766373
  59.6574860  53.5008507  86.7390060  49.6628036  11.3124781  64.1019058
  49.1796951  11.0719614  64.8924713  50.4235268  11.7960596  64.4239044
  33.0809937  61.3395462  58.8835754  33.5030136  61.2646828  58.0276985
  32.1750488  61.5755692  58.6840897  10.4493847  11.4303083  22.9281521
  10.6482162  12.1052237  23.5771408   9.8219604  11.8448992  22.3359642
   5.8516870  61.8575096   5.5666966   6.7293267  62.1010742   5.2723217
   5.2774992  62.5192490   5.1811571  15.4689369  37.8714333  34.5658646
  15.4958754  36.9792099  34.2202568  16.3365173  38.2282791  34.3756065
  73.0471497  34.3631325  38.1103516  73.0503769  35.0882454  37.4855042
  72.1214600  34.1456833  38.2201309  64.4189758  70.5124588  67.6442566
  64.0984116  71.3990097  67.8100815  63.6787186  70.0623169  67.2372818
  68.2999496  40.2601013  56.6964302  68.4189301  39.8640556  57.5596962
  69.1888123  40.4450417  56.3931961   9.5727396   5.1889601   1.3959795
   9.0709963   5.9946423   1.5199203   9.2476892   4.5975513   2.0748088
  86.4278107  32.2383041  26.5745621  86.1979828  32.5456581  27.4514599
  87.1318741  31.6061649  26.7192078  46.7726135  61.2354431  34.5386124
  45.8214569  61.3305702  34.5884438  46.9067421  60.4156570  34.0630150
  67.0713882  52.8328362  22.0337276  66.8525543  51.9121590  22.1775875
  67.7951202  53.0039864  22.6363487  56.3616486  41.6172447  89.0530167
  56.0210342  41.3349419  88.2041855  56.3628349  40.8227386  89.5868607
   3.9668710   7.0591397  51.7924919   3.0169458   7.0095119  51.6856728
   4.1186671   6.8105659  52.7043037   1.3404965  23.3470478  54.4902000
   0.5467309  23.7448368  54.8478775   1.6412445  22.7527237  55.1776314
  67.2492371  16.4680691  57.8466415  66.4483337  16.3329105  58.3531151
  67.9135590  15.9560070  58.3078384  72.8214035  63.9298286  11.7842131
  73.4075775  64.6865540  11.7822819  71.9426880  64.3076324  11.8210545
  77.3348618  37.7546997   3.3923154  77.6052780  36.8531647   3.5664792
  77.6644058  37.9378815   2.5125000   7.5209050  24.6700191  67.1929474
   8.2953377  25.2130184  67.3400497   7.2714529  24.8491802  66.2863541
  45.5909386  56.9903183  51.0635757  46.0720749  56.3993149  51.6427574
  45.7000046  56.6119995  50.1911011  21.9027691  70.5910873  58.3313484
  21.9738884  71.1243134  57.5396194  22.5847168  69.9264069  58.2345123
   2.2059493  30.2664890  19.6840553   2.2191865  31.1627064  19.3481197
   1.5789903  30.2909031  20.4069366  25.1860847  61.1711693  29.1676064
  24.8958607  60.4034843  29.6602154  26.0701160  60.9484100  28.8758907
  63.6243668  43.7179298  33.0864067  64.3245239  43.4408722  33.6773796
  62.9801483  43.0113335  33.1304474  17.9072208  11.3854790  14.2888508
  17.9504871  11.2411537  15.2341175  17.9670010  12.3355389  14.1886358
  82.3345947  67.8346786  71.1317520  82.4157104  67.4202805  71.9907837
  81.3944626  67.8309479  70.9518433  64.7817383  67.8329544  27.9705219
  65.4643021  68.5030746  27.9347591  64.7008667  67.6228561  28.9008713
  62.5214005  14.2918539  25.5680771  62.6426430  14.1728287  26.5100784
  61.7249680  13.8011665  25.3652077  47.9215889  37.8304901  55.2351761
  47.8206558  37.0101929  55.7180405  48.8379402  38.0742340  55.3660011
  58.4556885   9.1834297  60.8995972  58.5197372   9.0251350  59.9577522
  59.3325615   8.9954453  61.2342377  35.8908958  30.3216228  60.8224258
  35.7510414  29.3815689  60.7085342  35.0110970  30.6983528  60.8062439
  70.4371109  61.4584656  53.2500916  71.1492844  61.2250366  52.6546555
  70.4773254  62.4130058  53.3090172  66.8214722  65.0955582   3.9920056
  66.9061203  64.2937088   3.4761574  67.7059250  65.4609451   4.0136099
   5.2675242  40.0612144  10.6900787   5.1467052  39.2571144  11.1951122
   5.6234608  40.6882629  11.3196430  35.9384575  53.5097504  16.1140804
  35.9228783  53.8200798  17.0194454  36.2224464  54.2692528  15.6054115
  44.1098900  15.2391310  69.0155411  44.3265724  15.8904152  69.6827087
  43.1852188  15.3931293  68.8218918  73.1862717  47.0201263  88.6559219
  72.4408264  47.5597610  88.3925934  72.8105545  46.3611526  89.2397232
   2.3149076  35.0554695  48.9441757   2.7360144  34.2890701  49.3334427
   1.9998606  34.7495155  48.0936623  34.8435669  69.0036545  42.2195282
  35.3518524  69.2052307  43.0051804  34.2131615  69.7207336  42.1515808
  25.4722958  59.4465256  19.9707699  24.8874855  60.0291214  20.4553413
  24.9368172  59.1150589  19.2499199  27.3897896  69.4165039  70.1736069
  27.1600380  69.9136124  69.3885422  26.6992817  68.7581177  70.2508240
  24.0988102  57.9971466  25.6259899  24.8704071  58.5272865  25.4264412
  23.9247494  58.1665382  26.5518646  64.6377029  71.0290604  64.3834610
  64.4355850  71.8227463  64.8788834  65.5786362  71.0839920  64.2165756
  49.6671982  42.9724579  31.4190197  50.3021393  42.5441818  30.8448582
  48.8152428  42.7385063  31.0506859  85.8340836  51.4655724  35.7789574
  85.8806839  51.3349266  36.7260551  86.7130585  51.2540779  35.4644661
  33.3314362  11.5857410  76.2572708  33.7478409  10.7284260  76.1686783
  34.0386963  12.1680088  76.5347214  28.1585350  22.3278141  85.2363586
  28.4680862  21.5624981  85.7208176  28.8360062  22.4850769  84.5786896
  16.4634781  42.8613205  12.3765097  17.1001339  42.4884949  11.7666731
  16.3672810  42.1965332  13.0584431  66.5825577   3.1677890  20.8915787
  67.5177231   2.9723225  20.8326054  66.1727982   2.3234665  21.0798626
  86.1256027  66.3992004  47.9212494  86.4457703  66.9503021  48.6354027
  85.2493896  66.1322021  48.1990852  53.7354393  12.8426189  60.2206421
  54.6216049  12.7353001  60.5662155  53.4977951  13.7420607  60.4459457
  64.5239029  33.8887863  27.7211037  63.7817879  33.7365494  27.1360188
  64.3893509  34.7766151  28.0525951  13.8067713   2.7552381  45.3370323
  13.4789648   1.8702629  45.4970093  13.0979576   3.1913688  44.8641624
  14.3978968  26.0542240  15.4443045  13.8559036  25.8140335  16.1958237
  14.1116667  26.9384861  15.2154293  47.3655510  13.4165735   5.6016722
  47.0355682  13.1246920   6.4514656  47.3426628  14.3722153   5.6512399
  39.4908066  67.4883194  10.5066500  39.6421242  68.3751755  10.8334780
  40.0135612  66.9289093  11.0811234  11.3670073  70.2305527  70.9185410
  11.8791113  69.8241501  70.2193832  11.5508509  71.1663971  70.8371277
  32.4378929  69.0001984  16.6974659  33.1967010  69.5806808  16.6384411
  32.5066032  68.6037521  17.5659943  64.7637482  42.6122971   2.5909975
  64.3961792  42.1667786   3.3543074  65.6623077  42.8219299   2.8456976
  50.6781120  69.0261536  58.1906013  50.5164948  69.4281616  57.3370781
  49.9388275  68.4319153  58.3193092  77.0955048  66.0596313  69.5046997
  76.9755707  67.0058441  69.5854874  76.7007904  65.8393478  68.6609497
  15.7671757  22.6515789  84.1448288  14.9112377  23.0199738  84.3636627
  16.3842716  23.3640995  84.3113785  20.8754902  10.5366688  20.8998795
  20.7787437  11.4887400  20.8791065  21.7498646  10.3926134  21.2617493
  59.8531380  52.2337303  68.5166931  60.7361221  52.3266640  68.8743668
  59.9141693  51.4888916  67.9185867  50.0085144  68.6530685  11.0408897
  50.8847008  68.6988602  10.6582241  50.0576477  67.9297943  11.6659489
  21.5569859  69.9064407  51.3435478  22.0421848  70.6532364  50.9926643
  20.6703682  70.0136490  50.9990959  49.9697113  65.6939240   2.2517424
  49.1094780  65.8171844   2.6530421  50.4086037  65.0579071   2.8166163
  53.3810425   3.7909596  38.6498070  53.1808815   4.2424712  37.8298645
  54.3311539   3.8658917  38.7387390  63.8931389  56.8778954  53.2008438
  63.9363098  56.3644562  52.3941536  63.5835686  57.7391205  52.9203262
  68.2694016  49.6995964  57.8609161  69.1507263  50.0711746  57.8985596
  68.3807373  48.7903862  58.1387177  45.8769112  41.1105461  13.5972328
  46.7847443  41.2471962  13.3263102  45.8707504  40.2334023  13.9803896
  16.5243530   6.1255236   4.1592507  17.4510651   6.3245125   4.0256791
  16.0816765   6.5365887   3.4167585  44.7153931  47.4650536  16.6208229
  45.3126144  47.7596054  17.3084278  44.5182533  46.5563202  16.8479080
  43.8018303  24.3256149  68.3879471  44.4825935  24.0719719  67.7646790
  43.2803154  23.5321522  68.5090637  66.2958145  15.0037041  37.9714241
  66.7679138  14.1713095  37.9496689  66.3532944  15.2878819  38.8836594
  67.9519043  53.7895317  77.1723175  67.7931366  54.5135880  76.5667038
  68.3085480  54.2069359  77.9564133  19.9163799  57.7213173  77.5358047
  19.6374378  57.5724106  76.6323395  20.2631645  58.6134911  77.5354462
  60.8840408  30.4686642  88.3372192  61.7517853  30.7846489  88.0854187
  61.0580254  29.7439575  88.9378586  22.5352364  19.3843002   6.3062763
  22.4010563  19.5782394   5.3785825  22.9532909  18.5232449   6.3129315
  18.7887249  39.9911537  84.7930450  17.9566250  39.6319466  85.1009674
  18.5606785  40.4796562  84.0021057  15.4096889  51.8283882  35.4702034
  15.2934933  50.9262314  35.1721306  14.5188713  52.1618385  35.5773811
  19.1163864  69.5848770  34.8898811  18.4875202  69.1436539  34.3188477
  18.6165524  70.2943878  35.2935944  59.3842926  24.4375916  30.5595703
  59.5143318  25.3023624  30.1703491  59.9691582  24.4255352  31.3172092
   8.4735413  46.4201736  77.1259003   7.6609035  46.2100334  77.5860062
   8.2699986  47.2134628  76.6304321  24.9504681  63.5252228  64.2878189
  25.3538494  64.1928101  63.7329865  24.0512657  63.4581833  63.9666176
  79.4217377  66.3891373  10.4600039  79.5076523  67.3118744  10.6995897
  79.2027206  66.4029846   9.5283003  28.1508541  44.0274620  66.8098373
  27.1983299  44.0822754  66.8868027  28.2980595  43.5464973  65.9954453
  75.9700165  30.8318386  85.1990356  76.4386520  30.4636421  85.9480667
  75.3913803  31.4924984  85.5797501  39.8773880  54.6258507  28.1709576
  40.0162735  54.9081879  27.2669487  40.7592812  54.5376015  28.5324879
  24.5687180  33.0160713  16.6654625  23.8661518  33.6560440  16.7797661
  25.3729019  33.5337944  16.7039852  70.7677994  28.6540318  21.4209442
  71.3635101  28.1285419  20.8868885  70.8463974  29.5396881  21.0664463
  43.4385223  19.7914467  69.8138275  44.3338661  20.1264763  69.7653656
  43.2855530  19.3920708  68.9574814  53.5752945  23.1571674  27.5135841
  52.7518272  23.3478127  27.9627953  54.2534561  23.4536896  28.1205463
  26.9929638  61.9217720   8.9218721  26.3092766  61.3909683   9.3305941
  27.7801228  61.7332382   9.4328213  62.6469231  31.2853451  68.5580521
  61.7776947  31.5508690  68.2577667  62.5142441  31.0151844  69.4667053
  12.7051058   4.5760388  22.8296986  13.4733906   4.9181094  23.2868176
  12.1310148   5.3348141  22.7252407  17.7866516  52.2598152  29.8389816
  18.4708233  52.1936684  29.1728268  17.4503365  53.1514778  29.7491856
   5.0798984   9.8113642  74.3259735   5.1650186   8.8629150  74.4230881
   4.8088651   9.9356232  73.4163971  82.4424210   8.7353935  49.1470718
  82.2266464   7.8153825  49.2995682  81.5949631   9.1799660  49.1267204
  13.3794899  54.4510384   4.3061576  13.5586939  54.6249313   5.2302127
  13.5381422  55.2880707   3.8697689  70.0537720   2.1393218  64.0147629
  69.7087860   1.6268131  64.7458954  70.6020660   1.5236814  63.5283546
   5.7340226  21.2830448  61.6691284   5.7525177  21.7540359  62.5022278
   5.9239664  20.3745804  61.9033203  44.5892372  61.7385292  83.4423828
  44.0211639  61.7376900  82.6719742  44.4674454  62.6057434  83.8288269
  64.8169022  27.8618832  78.6873703  64.9455872  27.0471001  79.1729660
  64.0020905  28.2227840  79.0367355   0.0453663  25.3416576  80.2959824
   0.6689522  25.1039524  79.6097870  -0.5039235  24.5646896  80.4000702
  20.6729908   6.1397104  73.6157608  20.7587700   6.4354529  72.7094421
  21.5249920   6.3261318  74.0101929  18.6202526  64.3178177  10.9232931
  19.0959663  63.9788818  10.1649704  17.7064037  64.0880203  10.7550478
  20.6403065  51.6740799   6.9507313  21.2342491  52.3888435   6.7214360
  20.9784603  51.3386917   7.7810316   4.1236382  27.8563194  80.3257217
   3.2154968  27.7502518  80.6090240   4.2756357  28.8008461  80.3573456
  25.0702362   5.1937733  55.8586578  24.8145370   4.2790446  55.9774933
  25.7307129   5.3475413  56.5342026  31.3225803  61.8492432  36.0753136
  31.3594036  62.7070045  35.6520844  31.6479893  62.0054245  36.9618492
  36.7766685  39.3643188  72.3244553  37.4294319  38.7519760  72.6638260
  36.8566742  40.1352768  72.8861084   8.3114214  47.4503021  44.8807564
   8.6564302  46.9962273  45.6495323   7.7469220  48.1347198  45.2401237
  30.1100121  42.1911774  13.4727173  30.8424931  41.6950836  13.8382254
  30.4164639  43.0979309  13.4620552  31.1055832  44.9706306   3.7479436
  30.5414639  45.3049049   3.0506189  31.6489391  45.7186852   3.9957480
   2.5675437  50.8240929  29.7482224   3.1016579  51.0780106  28.9955730
   1.7028900  51.1904755  29.5628338  24.1423435  57.6278954  22.5742893
  24.1642857  57.2430916  23.4504604  25.0236931  57.4867363  22.2285595
  43.0920830  24.3392143  82.3267670  43.0678215  23.8153572  81.5260086
  42.1779556  24.3930893  82.6055222  14.5366983  54.2748871  64.4955063
  15.0184317  55.0801430  64.6845245  15.1654634  53.7232780  64.0300903
  63.1188011  32.4729919  86.6392212  62.9604988  31.5291214  86.6559372
  64.0565720  32.5555420  86.4659958   6.8542323  51.7596779  88.3379669
   6.2116480  52.2555237  88.8453674   7.1806087  51.0971642  88.9468842
  80.9699478  44.5663071  18.1264038  80.0319443  44.4950447  17.9494572
  81.1352310  45.5082741  18.1664944  77.8160324  21.2607861  45.5558357
  78.6641464  21.3894844  45.9805412  78.0260696  21.1585808  44.6275749
  57.6514244  26.4430771  32.9843864  57.5010490  25.6176186  32.5236969
  57.2827682  26.3013554  33.8563042   3.5378859  71.1618805  42.9075890
   3.4369144  71.8756027  42.2778015   3.6078503  71.5992966  43.7561188
  67.1847382  29.8672447  49.4191856  66.8678589  30.5907593  49.9598770
  66.5048294  29.7481804  48.7560272  58.4097519  13.8633080  19.4109993
  57.7902565  14.5682821  19.5993309  58.4352951  13.8158531  18.4553185
  23.7114410  67.5694046  67.6964874  24.0918198  67.3292618  66.8515778
  24.4237747  67.4454727  68.3237457  47.7851257  55.6285515  56.8966637
  47.8176117  55.0914917  56.1049919  47.0375175  55.2870331  57.3872566
  35.4577141  49.2817421  78.4291840  35.7659874  49.3610535  77.5264587
  34.5166740  49.4487648  78.3764648  24.5025234  29.9059048  52.8560066
  24.0689220  30.4731312  53.4935646  25.1528168  29.4242287  53.3672180
  21.3770103   8.8319502   8.4025707  21.1290283   9.7556658   8.4411459
  21.3780918   8.5459013   9.3160295  18.1148090  70.1244812  73.7937775
  17.7736301  70.8962860  73.3419571  18.6587486  69.6851807  73.1400375
  47.6650696  59.7927437  80.4102936  48.4917068  59.8430824  79.9303360
  47.7164116  58.9658127  80.8896561  50.6906471  49.7984772   6.1963248
  51.2966766  49.7050209   5.4613237  49.8604851  49.4534950   5.8676181
  70.9093933  20.0752811  75.5282974  71.1949463  19.2772980  75.9731750
  69.9674835  20.1175594  75.6933899  55.3751793  65.6364746  24.5500164
  55.4891090  65.1092300  23.7592812  55.1171913  66.4998398  24.2271023
  12.4223499  40.3800850  60.1107788  12.1594315  39.5218315  59.7783470
  11.5982399  40.8144760  60.3307304  74.4055939  58.8987770  60.7320824
  73.8969193  58.2397346  60.2597008  73.9914703  59.7307091  60.5026817
  82.7245483  58.8864632  64.5206146  82.3654861  58.0053291  64.4161758
  83.6151276  58.8246689  64.1752319  37.3511238  51.5074272  21.6101933
  37.3909225  50.5642891  21.4516449  38.2563362  51.7576027  21.7952213
  34.0428429  51.9294243   6.0471044  33.3054428  52.3371925   5.5930133
  34.7964516  52.1012650   5.4825039  69.7530899  33.7499695  50.3922653
  70.0358124  34.2932205  51.1279106  68.8186188  33.9366074  50.3019257
  18.6346455   6.0004010  78.6349716  19.3703671   6.6033449  78.7417603
  17.8584576   6.5418930  78.7783279  81.3076782   4.4196630  48.9735947
  80.6492996   5.0432038  48.6670647  81.6818695   4.8302817  49.7530861
  73.0519180  10.8425322   3.5604374  72.9062271  11.7883282   3.5822594
  73.9860916  10.7483253   3.3742230  46.4776611  49.4610100   7.1788216
  45.7002563  49.2176628   6.6761727  46.4683952  48.8728943   7.9339805
  83.3017731  25.1457348  37.8449860  83.1950684  24.2036018  37.7137184
  83.0628967  25.5334396  37.0030518  72.3330231  16.2568207   3.6417909
  72.3658295  16.8204765   4.4147377  72.8390045  16.7282009   2.9799645
  10.4215965  63.8754616  63.1666832  10.2119169  64.6530228  63.6840477
  10.5012093  63.1728287  63.8118210  78.9592285  56.4280396  54.8594856
  78.9183578  55.8157730  55.5941200  78.9777756  57.2929001  55.2692451
  42.7396011  70.3912430  56.0514374  43.0960236  69.5032043  56.0754967
  41.9118843  70.3301163  56.5282822  13.5155210  34.0432014  61.7495117
  13.9652510  34.8784828  61.6219101  13.9207344  33.4534340  61.1137390
  66.4779358  62.4417419  28.7977009  65.9856110  63.2323418  28.5767860
  65.9569855  61.7257538  28.4341125  83.2686005  11.0318394  52.1152878
  82.9272842  11.6154938  51.4377289  82.5647049  10.9778109  52.7616959
  48.6326485  27.8140831   4.3113050  48.7198448  26.9254932   3.9662914
  48.0497246  27.7222652   5.0649619  45.3669624  18.3598137  59.2639656
  44.5540390  18.8148251  59.4838486  45.8147507  18.9492455  58.6570930
  23.6665306  57.0827827  78.0889206  23.7175636  56.2380219  78.5361404
  24.3585663  57.0464096  77.4286194  13.8057766  33.8675461   8.5405350
  14.1750746  34.5911369   8.0343075  13.2720680  34.2927246   9.2118111
  19.6985168  60.8057442   9.0786839  19.1932316  60.7298241   9.8881016
  19.1305428  61.2994766   8.4871893   5.5226598  64.5550079  78.3037186
   5.1374016  63.8603897  77.7695694   4.9144936  65.2890625  78.2169876
  44.2088165   3.8902326  28.8771229  43.4719963   4.4976697  28.9430771
  44.8986588   4.3962045  28.4477749  36.3993950  43.6204453   5.2549725
  35.6911240  43.2980194   5.8123107  36.7505112  42.8349953   4.8354301
  23.2960205  58.8805161  84.2978439  22.6853466  58.3922920  83.7456284
  24.1617546  58.5803490  84.0210114   1.5616177  70.4550323  20.2814636
   0.6728160  70.1472015  20.1039715   1.4401603  71.2920151  20.7297211
  24.5580406  64.8515472  73.5001678  24.1263351  65.5981598  73.0849228
  25.0544147  65.2339478  74.2237778  68.4915924  28.8401909  34.9015427
  69.2789536  28.7892361  34.3596077  68.8206024  28.8677540  35.7999992
  49.9406548   3.7715538  79.4341431  49.7220268   4.5665493  78.9479141
  49.6479950   3.0568397  78.8686676   3.1278863  67.1558228  38.4036064
   3.2014031  67.1741486  39.3578033   4.0284352  67.0529633  38.0959320
  35.5438690  38.4633064  84.6271286  35.5145340  38.4712944  85.5838470
  36.2744484  37.8824615  84.4147491  74.4534378  38.3936272  23.6980133
  74.6232529  37.9332542  24.5198708  75.2605286  38.8777504  23.5234795
  27.6235447  66.9904099  15.2048435  26.9441929  66.5592880  14.6863394
  28.4456539  66.7124481  14.8009825  69.2991180  29.2308159  37.4986420
  69.5738678  28.3792400  37.8385887  68.3488693  29.2392864  37.6134682
  54.1801834  24.6597519  24.6976185  53.6471405  23.9341335  25.0225391
  54.5111961  25.0864315  25.4879398  65.4925003  71.3326263  74.6377258
  65.0368118  70.6162491  75.0797424  65.0374908  72.1224213  74.9300003
  43.9807701  37.7862625  77.4972382  44.0064697  37.9018135  78.4470901
  43.4218788  37.0206566  77.3641281   5.8024011  65.5800858  38.8592491
   5.7786465  64.7122955  38.4560013   5.9445372  66.1804581  38.1274109
  42.5534515  59.7401047   1.8755664  42.8328438  59.9040871   2.7762785
  41.6261139  59.9771080   1.8655355  53.2013283  36.2418556  79.8004456
  53.8821945  35.5866508  79.9532776  52.3838425  35.7921219  80.0141907
  58.5205956  45.2157364  60.0826111  59.1302299  44.4784584  60.0510750
  59.0640984  45.9836502  59.9061317  27.8279228  35.7613792   9.0651445
  27.5236588  36.5879517   8.6903954  27.3728409  35.0875282   8.5601130
  34.2117310  66.5134125   9.5418043  33.3855934  66.0601120   9.3737135
  33.9538994  67.3316345   9.9663811  15.7519140  32.0882454  79.4125977
  14.8212719  32.0493965  79.1920853  15.7760601  32.0017776  80.3655853
  82.8460617  24.6481419  42.7225342  83.7745743  24.7440815  42.9344025
  82.8388748  24.2672119  41.8444252  60.6674423   3.3695257   7.1241078
  61.4691620   3.8851235   7.0367441  60.8837051   2.6982565   7.7713008
  16.1065159  66.7928391  57.8006935  16.8685894  67.2630157  57.4624481
  16.3961601  65.8828659  57.8661652  26.8794174  42.0121765  86.6798630
  27.8360023  42.0160828  86.7139053  26.6081848  41.8572540  87.5846634
  84.4797897  28.1038418  72.1132889  85.1090317  27.5136490  71.6986084
  83.9188156  28.3983231  71.3957748  83.8878174  32.2249947  65.6125259
  84.4275131  33.0056381  65.4877930  83.7037125  32.2086563  66.5517120
  53.1872559  37.7316170  26.4254532  52.8840942  38.5317650  25.9963970
  52.4741364  37.1061249  26.2971878   4.7306876  67.5042725  32.9666595
   4.0872707  67.4843750  33.6750717   5.1994510  66.6734390  33.0454521
  10.2232990  69.8971863  19.5536804  11.1513100  70.1288910  19.5170918
   9.8317289  70.3589478  18.8122749   1.8826659  58.1816711  62.9420509
   2.4308536  57.4885406  63.3098717   1.3761150  57.7475433  62.2556305
  57.1082993  15.0348597  72.5905838  57.5248451  15.1539831  73.4441223
  56.1891365  15.2565956  72.7396088  84.3912201  34.7640305  88.7025070
  84.7776184  33.8973732  88.8283157  84.2485886  35.0937729  89.5897217
  82.6595459   1.2221000  78.7512589  83.4243164   1.4557230  79.2773666
  81.9583588   1.7806932  79.0867233  52.8137016  23.3787670  80.0983810
  52.7096901  24.2710094  79.7677460  52.0345192  23.2294388  80.6339264
  19.8825550  62.6302223  84.2536163  19.1169395  62.2756996  83.8015366
  19.5835934  62.7785072  85.1507568  36.8591194  38.3289528  69.4389954
  37.7990723  38.3085175  69.6187363  36.4543343  38.4645844  70.2957230
  78.7595215  16.3903141  40.9607391  78.8501053  15.4374228  40.9655762
  79.4379349  16.6923370  40.3567810   6.1105542  15.3089180  62.7426300
   6.2909350  15.8132954  63.5359154   5.4992228  14.6286964  63.0251274
  17.0733166  39.5088348  10.2945938  16.4509602  39.5367508  11.0213156
  17.3555717  40.4169960  10.1859512  62.6125603  16.7896309  86.7075195
  61.8594971  17.1963615  87.1361160  62.7491455  17.3118401  85.9170303
  80.3391037  33.4160042   7.3133392  80.0520248  33.5795517   6.4149685
  79.5775223  33.6324005   7.8512964  75.9033661  41.0149689  37.0028076
  75.8543854  41.9602127  36.8601646  76.8008499  40.8636627  37.2992134
  66.0507584  69.9575272   4.7089858  66.5003052  70.7111816   5.0912771
  65.4035721  70.3399506   4.1164203  58.4254112  31.1382713  31.8896236
  57.7918205  31.5975037  32.4408913  59.0111389  31.8263073  31.5737743
  78.8258743  34.1297035  72.5877304  78.7201004  33.2617836  72.9772949
  79.4458008  34.5769005  73.1638718  12.3469114  67.5151520  36.9990005
  12.4324999  68.4683838  36.9831390  12.0837717  67.2834473  36.1083221
  43.0628128  11.8236523   1.4299822  43.6688156  11.8641357   2.1698143
  42.2361488  11.5304909   1.8132727   2.6691620  42.4813690  69.6766891
   3.5351055  42.8607712  69.8264465   2.5732002  41.8240738  70.3658829
  31.9049606  31.7716637   4.9776521  32.7196503  32.0168419   4.5390153
  31.4005127  31.3120136   4.3064713  35.8353729  19.8820591  13.3140049
  36.2495384  20.7153931  13.5381737  36.5438080  19.2405567  13.3671532
  58.1436424  12.6705704  39.5032578  57.7672081  11.9802027  40.0490799
  57.8332481  13.4849110  39.8991547  25.7478313  34.1675377  72.6111984
  26.3866749  34.0359726  71.9106216  24.8990784  34.0318756  72.1899490
  76.7007065  25.1094418  78.1567535  76.4822311  26.0407162  78.1216736
  75.8531113  24.6653423  78.1812439  32.0435829  25.9358006  87.8315887
  31.7482262  26.8383884  87.9512939  32.8397903  25.8723793  88.3590927
  73.5693207  70.2273788  86.8700333  74.3669128  69.7012329  86.9270935
  73.2620316  70.2953262  87.7740173  15.8131857  51.1867104  56.3007278
  16.1313400  50.3870163  56.7196541  16.3659325  51.8811035  56.6592216
   1.2053573  60.1585274   8.0203915   0.9660928  59.8338318   8.8884668
   2.0247648  60.6332817   8.1597185  45.4621124   6.8994460  49.4258003
  45.3022156   6.9806743  50.3660469  45.8621483   7.7329874  49.1779900
  59.2932396  31.5980549  74.5350189  59.3442116  32.5497513  74.6239319
  59.8267670  31.2613258  75.2548752  10.1903591  43.8716125  15.9543953
  10.1204586  43.5571556  15.0530281  10.0643225  44.8181725  15.8882933
  13.9467678  66.1702118  88.7904739  13.2792883  66.4438095  89.4196320
  13.4650879  65.6672287  88.1337967  83.7409058  63.4944229  21.3080273
  84.5088348  64.0423660  21.1459560  83.8729782  62.7264862  20.7520962
  77.0811234  22.8385048  66.0279388  76.7373428  22.1966629  65.4065781
  77.8973389  23.1427078  65.6310883  14.1613569  15.4731760  25.2208557
  14.2738857  16.1349068  24.5384464  14.5758705  14.6878195  24.8636074
  68.7194366   9.8475332  37.2826157  68.0926361   9.4285278  36.6928787
  68.6238174   9.3743687  38.1091766  37.3951950  59.7370911  74.6763382
  37.8172684  58.9982300  75.1147079  38.1005135  60.3698349  74.5407257
  58.8530922  10.5946541  81.3939514  58.7360840  10.9758749  80.5237732
  59.6983376  10.1477976  81.3479996  24.8229218   3.1019795  75.5280457
  24.5809193   3.3299489  74.6304398  24.3906193   3.7636027  76.0680466
   3.3605134  39.1717415   8.8279581   4.2793493  39.4251442   8.7398682
   3.3457654  38.2418022   8.6016178   4.5829825   7.0345917  86.7578659
   4.4451861   7.8264303  87.2777100   5.5344114   6.9388404  86.7148972
  24.9484787  10.4880991  56.5508995  25.2091637  10.8097410  55.6878662
  24.2058563   9.9098225  56.3767128  86.5365829  43.8880463  25.6363773
  87.3806152  43.5090408  25.3910065  85.9039230  43.1878662  25.4760094
  36.7489395  70.1126633  27.6915226  36.1125488  70.8211288  27.5949860
  36.9990997  70.1396179  28.6150608  42.0162010  19.5192719  74.4678497
  41.4656258  20.1788025  74.8898926  41.4304695  19.0749416  73.8548889
  59.2513618  64.4932175  41.2114449  59.2213326  65.3226395  41.6882935
  59.2161407  64.7459259  40.2888794  70.0970078  38.7994156  35.4053230
  69.8213348  38.0610809  35.9485512  69.6058884  38.6938133  34.5905342
  27.3358746   2.4140127  68.1760101  27.5845661   3.3290277  68.0451202
  28.0958118   2.0179112  68.6024246  63.4106178  54.4859505  32.9204292
  63.0254478  53.6827812  33.2708511  64.3045197  54.2392006  32.6831741
  33.6825104  51.3620110  30.6640701  33.1708565  50.9242821  31.3443890
  33.8429527  50.6817513  30.0100555  78.9895630  56.4933739   8.7257338
  78.9577637  56.5069923   9.6823082  78.6028900  57.3281250   8.4613304
  32.7763786  15.7678785  86.3927841  33.2547150  14.9396763  86.4316177
  31.9551296  15.5919056  86.8519363   4.9690471  13.8818970  59.1997757
   4.1690292  14.4069080  59.1759682   5.0406122  13.5955582  60.1103363
  25.4938583  44.2187843  22.7227516  25.7859421  44.5258064  23.5810375
  26.1889782  44.4886169  22.1225567   1.8551644  30.3635883  31.4130287
   1.5593076  31.1597767  31.8543739   2.2296431  29.8273735  32.1119347
   7.2464662  59.9669037  74.1062012   7.0094795  59.4104424  73.3642960
   7.9753385  59.5095139  74.5254517  78.6736145   2.7755229  34.9664841
  79.2040024   2.9708393  34.1939697  77.7715836   2.9193199  34.6803055
  43.1296120  59.5254631   4.5164576  42.4189568  58.8862724   4.4651194
  43.6094666  59.2869301   5.3095999  48.9410439  57.8992615  70.1817398
  48.9546776  58.7543297  70.6117554  48.0872231  57.8615265  69.7506943
  80.1714630  18.8900757  81.3913879  80.6297150  18.0848503  81.6319122
  79.3740692  18.8791370  81.9207916  58.4245110  40.5315247  10.1238756
  57.6495285  40.6575089  10.6713800  59.1584244  40.5584564  10.7377796
  28.0729446  16.1579914  71.9968567  28.1807022  15.4060650  72.5792923
  27.2041378  16.0407352  71.6125946  37.7553139  46.3931389  76.7313309
  37.4327469  46.9126663  75.9949417  38.2023735  45.6514549  76.3235703
  58.9720078  68.5379257  16.5586853  58.5084991  68.5789032  17.3951740
  59.6795731  69.1767273  16.6453896  36.3874359  50.1851120  16.6178570
  37.1586571  50.7278175  16.7819443  36.1589088  50.3632545  15.7055693
  23.4015179  43.2918816  67.0479660  22.6685867  43.8641357  66.8208771
  23.1186409  42.8457108  67.8461838  61.2650909  34.2774887  87.1237793
  61.6332855  35.0978622  86.7956696  61.8909225  33.6073074  86.8491516
  28.3301430  59.6628075  12.0109501  27.3801060  59.7452011  12.0938616
  28.5459175  58.8715782  12.5045385  76.3446503  53.2998352  82.1438904
  75.5738220  52.9117813  81.7298126  76.2553177  53.0788498  83.0709381
  44.5152855  48.2890396  66.9101486  44.3877640  47.3844986  66.6241913
  45.4257469  48.4842491  66.6883698  10.3018417  70.5862427  52.8159370
   9.6048670  71.1103973  53.2105522  10.2433891  69.7388687  53.2572670
   8.4674616  62.6913033   5.0691934   9.0213070  61.9620323   4.7905307
   8.4378328  63.2733269   4.3098488  56.6470451  21.5173531  15.9260845
  56.0629463  21.9749565  16.5307827  56.7865524  22.1387329  15.2114811
  24.9499283  48.1568451  55.2171593  24.3092422  48.7571564  54.8358727
  25.1570740  47.5465279  54.5094643  41.1518860  32.7160492   9.5301685
  41.1052742  32.8196678  10.4806013  40.3183441  32.3099899   9.2923441
   4.9460001  38.1253853  42.2823143   4.7208967  37.3737183  42.8305435
   4.6130457  37.8970909  41.4144135  34.0400391  70.8566513  12.7070923
  34.4016190  70.3314133  11.9932184  34.8072662  71.2177582  13.1511583
  69.8800201  44.1390533  54.1846771  68.9838867  43.8384094  54.3356552
  69.9319687  44.9773369  54.6438217  54.7051353  30.1009674   8.2620115
  55.4000511  30.7345428   8.0833912  54.7687263  29.4677830   7.5469837
  76.6350784  14.8734293   5.2234435  75.8636703  14.3245821   5.3646088
  76.4576874  15.3287802   4.4003892  18.2886467  31.1439075  87.1653290
  17.5398655  30.6854076  87.5465622  18.7896824  31.4531841  87.9200058
  34.3858376  60.4877777  33.5245247  34.7953415  61.3331871  33.7084351
  34.8893738  60.1319695  32.7923508  15.8718243   2.9414134  14.3543558
  16.0484753   2.0818598  14.7367096  16.0481644   3.5597816  15.0634098
  20.9429646  12.1625519  16.1553211  21.2804337  12.2606831  17.0456676
  20.9870930  11.2216978  15.9847984  30.4057159  50.1794891  77.5007629
  31.3396626  50.3449745  77.3719559  30.1672287  50.7240105  78.2509995
  31.7897034  56.1898232  75.9171371  31.8263035  56.5782661  76.7912140
  31.3678741  55.3408852  76.0497894  43.8306999  66.0637589  39.1767159
  43.1285095  66.0805969  38.5264282  44.4511299  66.7279663  38.8765182
  61.1700554  43.5939865  71.8988800  61.4710312  44.4712868  71.6622543
  60.5087128  43.7418823  72.5748825  40.5109024  17.6868801   3.0444283
  40.9002686  18.0461273   2.2472031  39.6570969  17.3557930   2.7658079
  19.9949932  49.4389572  13.2851925  19.8559608  50.2458038  12.7893105
  20.7996502  49.0697784  12.9212322  80.1102676  26.1899796  66.1659088
  79.6556244  26.7141895  65.5065613  79.7562714  26.4959297  67.0009613
  29.3386097  68.3635254  54.0458794  28.5616398  67.8199844  53.9150658
  29.8702793  67.8742218  54.6736870  56.4150391  17.3532181  13.0681105
  57.1011963  17.7615929  13.5959826  56.8723373  17.0232430  12.2946587
  41.9213066  70.3564224  77.3490372  42.4817810  69.7540283  77.8381424
  42.0616646  71.2063828  77.7662888  53.2724304   7.2105951  46.1959267
  53.7347794   6.8896508  45.4216805  52.8147125   6.4423032  46.5371819
  34.3754387  64.7686615  12.7012110  33.5016441  64.6969147  12.3170738
  34.2291069  65.1765518  13.5547018  58.4309464  19.1211948  13.9248943
  59.3465157  19.3148251  14.1260576  58.1749344  19.7983265  13.2986488
  49.9638329   9.2142229  80.4000626  50.5907249   8.9291639  81.0648804
  50.0712585  10.1645908  80.3614120  82.3670654  41.4615326  11.4444971
  83.0272903  42.0390663  11.8276291  82.7514267  40.5868034  11.5023346
  33.8963051  71.4184647   6.7138286  33.8160820  71.7595673   5.8230729
  33.1811600  70.7872925   6.7939148  28.6546097  42.0030670  51.5768089
  28.8037949  42.5103874  52.3746834  29.4631672  41.5055313  51.4546432
  62.8766518  40.4626808  10.5007324  63.7403793  40.0560112  10.4312515
  62.4392967  39.9779358  11.2007170   2.5598862  59.2320061  50.2380638
   1.9295169  59.3361473  49.5253105   3.3718927  59.6062241  49.8962479
  82.3060532  71.3518600  74.0659866  82.4116211  70.4039917  74.1473923
  82.0302658  71.6378098  74.9368515   1.4404094  25.8457108  74.5836258
   2.0736995  25.7693615  75.2973175   0.5899713  25.7150669  75.0030594
  48.0092430  63.4794998  42.3736076  48.8980980  63.5508652  42.0256386
  47.6402168  64.3565750  42.2696915  30.0709953  66.1516724  13.8130188
  30.4127560  65.7389755  13.0198526  30.2703667  67.0815277  13.7041521
  54.3751831   6.0545211  31.4247684  54.9831772   5.3191833  31.3482513
  54.8776398   6.8127575  31.1267014  49.3417473  60.2015190  71.6956635
  50.1560822  60.4905090  72.1074524  49.2201385  60.8005295  70.9590302
  43.8650551  53.6746788   1.5562725  44.1441078  54.5299644   1.2293975
  44.6288795  53.3358650   2.0231864  30.8723259  11.8086824  86.1558838
  30.4939976  12.6200562  85.8171005  30.2178059  11.4777517  86.7709579
  65.9894104   8.2735386  28.3209629  66.4863815   8.9056768  27.8016834
  65.5944748   8.7952480  29.0195885   9.6201811  67.7186737  38.1255989
   9.3629980  66.9538345  37.6107025  10.3836927  68.0700531  37.6675453
  56.3110809  53.8011818  46.4569588  55.4615707  53.3892822  46.6147461
  56.4145851  54.4209213  47.1790695  62.5648537  25.0590668   1.3860828
  62.0282288  25.0335312   2.1783044  62.4959412  25.9631023   1.0791563
  25.1989231  14.2998695  73.9170303  24.4100647  14.6216679  74.3533554
  25.9167271  14.5714169  74.4890823  29.6182022  59.0112000  84.0018768
  28.7461681  59.3819084  83.8663788  30.2083015  59.6169968  83.5535202
  70.7952728  59.6750717  40.2912025  69.9951477  59.3428116  39.8842201
  71.4616241  59.0219078  40.0777168  29.8207855  54.6731911  11.3502550
  28.9913769  55.1073914  11.5497055  30.2866249  54.6510582  12.1861591
   4.2676730   2.2408242  19.1205406   4.5185280   1.5117584  18.5532951
   3.3641200   2.0490384  19.3716221  29.1885796  24.8343639  81.1308670
  29.6178284  24.4994869  81.9181595  29.5413723  24.2994442  80.4197845
   6.8353457  15.0248547  69.4499664   6.4158883  15.7770653  69.8676605
   7.7357740  15.0421085  69.7742538  45.2336578  34.2494545  46.3852997
  44.4133987  34.7208710  46.5308075  44.9950027  33.3253593  46.4582558
  65.4145660  25.6935234  18.0972195  64.7324448  25.7382946  17.4271870
  65.1769867  26.3743305  18.7267361  60.8787842  17.3105106  44.4986229
  60.5868111  16.4652901  44.1571732  61.4515190  17.6597500  43.8158073
  74.6826553   7.8969569  79.7063980  75.1503601   8.4770746  80.3071823
  74.1867294   7.3102384  80.2774048  41.1243744  45.1070213  88.6299286
  40.6596146  44.2953835  88.4262848  41.0544281  45.1909447  89.5808716
  54.4530067  37.2620125  12.0616093  53.8466415  36.6497116  11.6449070
  53.9390030  38.0595779  12.1878033  63.7667923  68.8981705  18.6307487
  64.3374557  69.6362076  18.4165592  63.0081329  69.0077667  18.0574608
  76.4704742  41.0079727  61.4287872  77.0391769  41.1988449  62.1746902
  75.6992035  40.5934715  61.8155327  82.1463776  32.7614059  17.7744637
  82.6745377  32.7889519  18.5722828  82.7869339  32.7572937  17.0631943
   0.1481513  66.0567551  55.3100891   0.9063247  66.4232559  55.7651520
  -0.5627733  66.6698532  55.4969673  32.8655243  62.4369507  39.7043228
  32.4294395  62.9865303  40.3554955  33.4702950  61.8968887  40.2130623
  66.1925812  22.6661816  80.8555222  66.3702621  22.4158649  79.9488754
  66.8258972  22.1662560  81.3705215  35.6232109   1.0534406  85.3636169
  35.3809052   0.7709551  86.2454987  36.5209694   0.7413063  85.2503357
  30.6945744  38.9976349  60.3545380  30.5607910  39.7391434  59.7642021
  31.0476608  39.3884659  61.1537933   0.7068523  20.3240223  23.5768394
   0.5769810  20.9868202  22.8985596   1.1239198  20.7968750  24.2970448
   1.7412350   8.7999763  59.9530754   1.4164270   9.1188860  59.1110382
   0.9518669   8.5649977  60.4408417   7.3951325  65.8044815  34.7308311
   7.8018117  65.7680588  33.8650856   6.4575448  65.7173309  34.5588875
  17.5250645  52.1466370  71.7246780  17.4115181  51.1974106  71.6766281
  17.8533039  52.3926773  70.8598328  79.7586899  34.4722099  68.4280243
  79.6762466  35.4233704  68.3592911  80.2079239  34.2120018  67.6238403
  39.5258446  24.6974583   9.7264080  39.9916344  25.5316906   9.6686945
  39.9576759  24.1369343   9.0817623   6.6649947   5.4154859  68.7427826
   6.2533870   4.7075686  69.2384262   6.1497674   6.1919947  68.9614334
  35.0782127  67.1741333  58.1102715  35.1462059  67.9928207  58.6015549
  34.6174965  66.5780334  58.7007256  25.7244568  47.4343262  68.0066605
  26.4188747  47.1147232  67.4305801  25.2055359  48.0192757  67.4545898
  85.8271713  46.2203331  26.5120754  86.1948242  45.4263382  26.1239586
  86.4798965  46.8977585  26.3352394  77.1816025  63.8197784  45.8320503
  77.6294708  63.7642174  46.6761780  77.7855835  63.4096336  45.2130051
  76.5899658   1.6311320  70.0842514  77.0530319   1.7999045  70.9048157
  77.2790222   1.3875662  69.4661026   3.8236117   9.1426973  14.6068850
   3.0745270   9.7380571  14.5813980   4.5782790   9.7133551  14.7519989
  55.1200638  18.1785908  35.4052963  54.3375664  18.1743641  34.8540077
  55.4154549  17.2681179  35.4088593  34.4653320  45.7553329  48.2004471
  34.5779915  45.8492203  49.1463470  34.6079597  46.6360359  47.8536720
  12.2156191  56.6637268   8.0599957  12.8578682  57.3622932   7.9344921
  12.6079273  55.8991241   7.6384397  57.3483849  27.5624561  18.7979469
  56.8243675  27.0028458  18.2248211  57.2638168  27.1641350  19.6642151
  34.1452713  57.7018127  68.5148621  34.3569183  58.0792732  67.6610718
  33.3079147  57.2581940  68.3796921   2.6924679  19.0846176  82.9838715
   3.0128005  19.9634037  82.7805099   2.9886789  18.9230499  83.8796310
  82.0363312  53.3153267  46.1738014  82.0680466  53.1509857  47.1162529
  81.1103745  53.2298431  45.9467964  39.1802330  52.1210403  60.4099007
  39.9052315  51.6601028  59.9878273  38.3937263  51.7217102  60.0381813
  85.1823807  63.2255936  35.6387062  85.1935272  63.0702438  34.6942635
  85.3696365  62.3698006  36.0244293  13.9543810  63.1020813  77.6544342
  14.3888388  63.2250137  76.8104172  14.4390860  62.3900070  78.0718536
  52.8341789  55.2901878  37.0873718  52.8411751  54.5801926  36.4454308
  53.7259064  55.6376801  37.0698967  36.8304634  57.8908348  70.0017395
  35.9711266  57.4792328  69.9103317  37.2511940  57.7580872  69.1522751
  70.4295349  62.0707130  69.6977005  71.0358658  61.3525810  69.5163727
  70.7527313  62.7973480  69.1649857  53.9066467  37.5884514   5.0636458
  54.4748840  36.8970451   4.7240911  53.2272873  37.6891479   4.3968916
  56.2656097  55.1708984  83.2732773  56.1199875  54.3585167  83.7581100
  55.5578728  55.7494392  83.5572281  19.3713875   7.3606181  56.3709335
  19.9803867   6.7685375  55.9295807  19.5420246   7.2282219  57.3034515
  73.2322769  38.4746056  11.6071558  72.8979111  38.4949570  10.7104845
  74.0959320  38.8833504  11.5500612  25.2411213   1.2066077  31.1030350
  25.2001343   2.0668833  31.5207405  26.1438541   0.9179786  31.2371979
  13.8603983  47.7097511  64.8700943  14.3618097  47.2679367  64.1848068
  13.1511021  48.1500244  64.4018173  72.7410812  41.0724716  26.4160957
  73.0363541  41.7912254  26.9750614  72.3758621  40.4302406  27.0246906
  67.4813538  27.2325420  48.6414032  66.6349411  26.8127289  48.7949066
  67.3782196  28.1159554  48.9952011  53.6868324  45.8917770  28.5900517
  53.5990181  45.7023315  29.5241985  54.6062012  45.7109375  28.3943806
  17.8587914   0.7179315  61.6481171  18.0682373  -0.0975271  61.1927109
  18.5582676   0.8181335  62.2938118  25.7999401  48.5521355  85.6860580
  25.4505463  48.4524384  84.8004990  25.0764790  48.9272804  86.1881485
  28.5312729  32.0687752  59.2535591  29.4007015  31.7156773  59.0647545
  28.3821640  31.8580513  60.1752930  61.8957558  31.1673489  11.6054478
  62.0391235  31.0955200  10.6617756  61.2010345  31.8199596  11.6931696
  39.9529991  43.4680634  37.2716331  40.4751320  44.1821480  36.9060020
  40.2918968  43.3538284  38.1595116  27.6744366  69.6689453  57.8163872
  28.5299225  70.0983353  57.8167152  27.8475437  68.7903976  57.4781151
  76.4256668  53.6262665  52.0300484  76.3381348  54.4758224  52.4622803
  77.3258896  53.6145515  51.7049522  71.1329803  71.2666779  82.6653671
  70.2900620  70.8135223  82.6846085  71.2476578  71.5971298  83.5563660
  18.1684742  31.5051174   3.6126709  17.5461807  31.9528389   4.1858444
  19.0248585  31.8348732   3.8848794  64.8989792   7.5724974   7.8077316
  65.5756607   8.1131382   8.2152138  64.2950211   7.3666048   8.5212297
   6.5845599  67.4445496  85.1295395   5.8747616  67.3255234  84.4984665
   6.7006955  66.5806885  85.5251312  81.7786331  50.2329636  28.2038708
  82.0200195  51.0698357  27.8068676  81.5439529  49.6749535  27.4623966
   6.9546318  51.9647903  13.0890150   7.4535742  52.4120255  12.4054441
   7.1867414  52.4255486  13.8952770  86.5528030   5.3420472  53.0513153
  85.7260818   5.1696134  52.6007195  86.3390656   5.2662377  53.9812622
  17.1776333  44.4899292  15.9611797  17.4450283  44.9266167  16.7699070
  17.2304192  45.1721725  15.2918568   3.9478819   4.3003731  47.6950111
   3.6758289   4.5655713  46.8164406   4.0512252   5.1235490  48.1724358
  83.4580917  26.7853184  16.9808178  82.5128784  26.6889458  17.0970745
  83.6407242  26.3614254  16.1422520  31.3599720  69.9715118  24.8636799
  31.4453239  70.6006927  25.5799751  30.8787174  70.4449539  24.1850967
  48.7658081  43.4203949  57.2386360  48.6532631  43.0082397  56.3820763
  49.3318787  42.8183022  57.7216263  47.0624084  45.1327286  10.0043888
  46.6430397  44.7501869  10.7751160  47.0501404  44.4319801   9.3524427
  63.2133408  70.7620621   6.1748161  62.3468094  70.6978226   5.7732782
  63.4315300  71.6927872   6.1260176  17.0322876  41.1769257  87.6992874
  16.4562263  41.3865509  86.9641418  16.6848717  41.6891747  88.4294510
  67.6965103  63.6119308  35.2177544  66.7702789  63.7884483  35.0529099
  68.1504135  63.9929390  34.4660645  54.1944466  44.4126549   4.2086840
  53.8529549  44.5678711   3.3280456  54.5761147  43.5358543   4.1664777
  56.1165848  68.0155945  67.7298203  56.4869499  67.2815018  67.2397537
  56.8281021  68.6539993  67.7790680  42.7472878   5.9840426  78.6277008
  42.1912346   6.3196239  77.9245453  43.4447060   5.5092149  78.1756134
  11.4964733  24.2899284  87.1675415  11.1459551  24.8799419  86.5002670
  10.8373089  23.6005135  87.2477875  44.6897545  35.5458641  62.9239731
  45.2353973  34.9895668  63.4798889  43.9518013  35.7916641  63.4818573
  72.0717545  56.3618126  67.8612671  71.7786484  56.9111977  67.1342850
  72.4178238  56.9803886  68.5045624  28.0266705  70.9073944  25.2760334
  28.0999527  71.0614166  26.2179146  27.7515945  69.9934464  25.2034836
  76.0461731  27.8809280  78.2761917  76.8387604  28.2574215  78.6586761
  75.3496857  28.4906273  78.5199127  60.3159714   8.6717644  31.6931973
  61.0068932   9.1791124  32.1191750  59.5925102   8.6789064  32.3199234
  41.4705162  61.4084663  53.1631050  41.4477921  62.3494759  52.9892921
  42.3648987  61.1461678  52.9451180  57.4961700  65.5858459  43.9946976
  58.4100304  65.7262726  43.7469635  57.3713646  66.1331787  44.7699928
  15.1206598  64.9768448  21.3864079  14.5945930  65.0636215  22.1813641
  14.7651081  65.6363831  20.7907333  81.3231659  69.0520401  34.2690353
  81.5192184  68.4948349  35.0222359  80.6188354  69.6251068  34.5719337
  57.4599266   9.4563036  67.5245361  57.8092766   9.4207735  66.6340714
  57.5732231  10.3689413  67.7900314  42.5970459   2.2973573  19.4484119
  43.4039764   2.5219150  19.9117336  42.0262833   3.0542843  19.5807877
  73.1108780   5.1077209   6.2880902  73.5022507   4.2476444   6.1353564
  72.2342606   5.0426636   5.9092135  61.8707581  41.7901306   8.2315054
  62.6120338  42.1869583   7.7740469  62.2642975  41.3365822   8.9769268
  76.4932022  24.4626427  83.9114151  76.0943527  24.9012852  83.1599197
  76.6608429  25.1663437  84.5382614  29.8296623   0.4125409  20.7689705
  28.9412384   0.3908970  20.4133511  29.7138615   0.6524774  21.6883469
  28.7165012  57.9756660  45.7586555  28.6503429  58.9304047  45.7768440
  28.4027729  57.6974030  46.6191063  20.9467659  60.6531639  20.5674667
  20.0104923  60.5877304  20.7554607  21.2815533  59.7673378  20.7069912
  64.0248108  29.0850163   8.2021303  64.5791931  29.3116989   7.4554696
  64.5724182  29.2572880   8.9680758   7.6443982  24.4364262  72.4385681
   7.1455588  25.0979652  72.9179001   8.3612490  24.9242191  72.0330887
  75.9016037   7.7962766  67.1729431  75.4842300   7.2054873  67.7998428
  76.8361282   7.6029854  67.2472610  22.0950108  46.2013359  60.4841309
  22.3531761  47.1129990  60.3482857  22.7611866  45.8491631  61.0743942
  20.6036053  69.3872910  48.3082657  20.4717979  70.3130951  48.5125809
  21.4811897  69.3485107  47.9280396  28.3974838  44.9946022  16.6176395
  29.3241348  44.7552872  16.6010170  28.0921097  44.7103157  17.4791260
  13.0800104  28.2450714  14.4730434  13.1628208  28.2829933  13.5201864
  12.2367754  28.6590843  14.6568403  21.8640995  11.4784851  24.0624466
  21.0792732  11.3492851  24.5949764  21.6212597  11.1539459  23.1953049
  16.3121319  45.6344299  12.8962097  16.3350372  44.6796646  12.9605179
  15.3800774  45.8523712  12.8988590  18.6197701   7.7769547  19.9020290
  17.8155155   7.2863917  19.7324524  18.3876724   8.3809843  20.6073723
  41.7444572  13.3798399   9.3473825  42.5375671  12.9076958   9.6009340
  41.8314743  13.5040417   8.4022722  45.2054901  27.0565605  10.4815083
  44.9590645  26.9927464   9.5587769  45.1124458  26.1647301  10.8164921
  27.8791199  62.6939468  61.0862541  27.6311874  62.9791718  60.2068176
  27.4584885  63.3250504  61.6702156  82.3853378  21.1202908  59.4475937
  82.1593323  21.8514252  60.0225677  82.8861847  21.5205097  58.7368126
   5.3163781  35.8653755   8.5132694   5.7358255  35.3050194   7.8603554
   5.8674364  36.6473007   8.5473394  54.2263603  29.6372128  78.4022751
  54.8026276  30.2207546  77.9086914  54.1684189  30.0359631  79.2705307
  30.1469727  47.4011116  77.4364700  30.3935909  48.3223686  77.5182877
  29.4132233  47.4032669  76.8217850  50.4015465  14.9292622  50.0424500
  50.0264549  15.3170395  50.8331223  49.9375114  14.0983715  49.9398575
  85.7964859  45.4504318  69.7360229  85.7593689  44.5858421  70.1450958
  84.9448929  45.8430328  69.9281006  59.8927193  54.6708755  23.2008743
  58.9714737  54.5045052  23.4005127  59.8716316  55.2821846  22.4646091
  47.4392357   8.2650671   7.9280624  48.3564491   8.3779526   7.6786399
  47.3818703   7.3569956   8.2252932  28.2017574  46.7627945  47.4025536
  28.6835079  47.5881844  47.4562073  27.3411827  47.0093536  47.0636520
  71.7892151  58.8347511  24.5171947  71.8856583  59.7420769  24.2279034
  70.8450851  58.7151833  24.6199112  84.8140411  13.3160553  30.9624901
  85.3457336  13.0819807  30.2017365  85.2888718  12.9496002  31.7084637
  63.2950745  25.8315620  63.6943741  63.3359871  26.6189270  63.1515884
  62.5503387  25.3401566  63.3477821  77.8258514  53.5838623  25.0358791
  77.6849060  54.5140038  24.8592281  77.2776642  53.3991508  25.7985077
   9.1183577   8.8339195  58.1170197   9.5997667   9.1123743  58.8960838
   9.7694998   8.3788223  57.5830421  77.8195267  70.6574249  43.4453049
  78.0705032  69.8522339  43.8979721  77.1097260  71.0192032  43.9759064
  13.4001713  41.3362923  72.8053055  13.3574295  40.4839859  73.2388687
  14.3366880  41.5114861  72.7132492  50.8145790  51.4038467  11.0975676
  50.9056473  51.7220688  11.9957190  51.7142487  51.3069153  10.7854319
  47.5792427  47.8330917  88.7912140  48.1477318  48.5394669  89.0979538
  47.9815254  47.0354767  89.1350250  33.1708946  69.2733002  53.4386368
  33.2810326  69.1708450  54.3839417  32.5235710  68.6099167  53.1996307
  59.5227470  57.0551109  56.0293999  59.0639954  57.8765945  56.2053032
  59.7684250  56.7279320  56.8947487   4.6159849  45.2391891   8.7584648
   5.1522160  45.9543762   9.1008062   4.9329648  44.4612846   9.2173977
  21.5033436  38.5205116  36.1744194  20.9969902  38.7927284  36.9397507
  21.7991638  37.6349907  36.3855476  47.9402733  39.6842308  72.0094604
  48.7820244  39.7040291  72.4647522  47.9674988  40.4400253  71.4227142
  83.0400543  41.0265923  64.3947601  82.4422607  41.1334114  65.1346664
  83.7825317  41.5937233  64.6029053  84.3320389   8.5757504  51.1869316
  84.1202850   9.2849112  51.7939606  83.6024780   8.5649529  50.5673714
  16.3596802  38.1618881  84.9966507  16.6026344  37.5916977  84.2672043
  16.4158115  37.5995407  85.7692108  66.5385742  69.0563660  47.1609650
  66.2405777  68.2719803  46.7003555  66.3256302  68.8902969  48.0792809
  76.7401962  69.0223999  83.7260284  76.2514267  69.5939713  84.3181839
  76.0921021  68.3913422  83.4130402  27.2093830  11.0110006  63.3744164
  26.2898140  10.7604046  63.2859573  27.3292694  11.7120628  62.7338104
  67.6260605   1.0868442  68.7689514  66.9025574   1.1608680  69.3912735
  68.3975677   0.9369074  69.3153305  49.5981636  57.7989731  50.7986336
  50.3943672  58.1752930  50.4235649  49.5855789  56.8970680  50.4782562
  57.3332939  67.1646042  14.7273588  56.5215416  66.8919983  15.1551189
  57.7137604  67.8090820  15.3241177  53.3276825  31.4206791  81.0073776
  52.5948410  31.2583141  81.6013641  53.1292229  32.2676811  80.6080856
   2.8729844   2.4221673  84.1037445   2.5109041   3.2781363  84.3327560
   3.6777892   2.6226153  83.6258926  60.0335464  58.5168076  39.0828857
  59.1951408  58.9474449  39.2498055  59.8830452  57.6008530  39.3165588
  16.3558388  58.6082420  57.6766167  15.7457323  58.2078438  58.2960358
  16.5665741  59.4580803  58.0634003   7.7613277  58.1866379  55.5587540
   6.9072051  58.0871239  55.9792328   8.3813238  58.2416801  56.2859459
  71.6472473   9.5353365  54.9828033  70.7212296   9.7716465  54.9291306
  72.0346832   9.9029846  54.1884727  37.5798874   1.3260579  61.7180367
  37.5002785   2.0848758  62.2960434  38.4076462   1.4619690  61.2569771
   6.3689780  18.1877327  19.6646690   6.7241035  18.8993187  20.1973629
   6.5826755  17.3929787  20.1534767  12.7076015  67.0182800  47.4264603
  12.9267979  66.7332153  46.5393715  13.0557184  67.9080048  47.4850082
  76.2932434  12.4766579  41.3997574  75.5753021  11.8790312  41.6086502
  76.3941116  13.0137873  42.1856003  29.3159599  21.4609833  63.1269188
  28.5290852  20.9242573  63.0321350  29.8740902  21.1991844  62.3946724
  49.7591705  35.8613815  73.4083939  49.3977966  35.7911606  74.2919693
  49.0060730  36.0761452  72.8579788  62.5812874   9.8609867  13.7817001
  62.8768044   9.1559477  13.2056599  62.9231758   9.6249113  14.6440296
  36.7016296  54.6918983   8.3457422  36.0823326  55.4188194   8.2802734
  36.9713478  54.5249557   7.4426274  49.6779175  45.8512993  10.5923328
  48.7360802  45.6984444  10.5161390  49.7680702  46.8040924  10.5754967
  64.1142654  60.0792961  70.8685608  64.6321030  59.2743912  70.8541946
  64.6441803  60.7136612  70.3858566  66.9304810  56.9027061  53.7355118
  66.0306396  57.1766434  53.9129219  66.8659439  56.3648987  52.9463158
  57.2330055  53.2288933  63.0693893  57.7668495  53.4228783  63.8398514
  56.4299965  52.8474808  63.4242554  15.9957771  54.4865303   8.5378227
  16.7894020  54.9431152   8.8169632  16.1492825  53.5721550   8.7757063
   9.0783958   4.2632833  58.1263123   9.9830256   4.5013041  58.3293495
   8.6664991   5.0872970  57.8663597  47.5107040  57.1895103  46.8931160
  47.5152130  58.1466942  46.8959274  48.3194504  56.9475098  46.4419022
  68.2736130  26.6449337  71.0832062  67.7106628  27.0065670  71.7677078
  69.1533813  26.6679993  71.4596329   1.1390998  54.0887794  25.5121861
   0.9702123  53.1541252  25.6310539   1.6874845  54.1353798  24.7290287
  73.6182251  34.3640137  69.1330566  73.0736923  34.9343643  68.5904541
  73.0886002  34.1983681  69.9129791  71.1746368   6.4102874  68.4287491
  71.8035431   7.0696988  68.7218018  71.6755219   5.8471498  67.8386383
  50.0758400  67.3956299  82.2000885  49.8368340  66.5172119  81.9042969
  49.2877045  67.7258224  82.6314240  31.8718796  66.4817200  27.0730667
  32.2054214  66.8646393  26.2616768  32.6389694  66.0806656  27.4816837
   1.5987649  54.0457916   8.3091297   2.0184109  53.9469566   7.4545183
   1.1124929  53.2306480   8.4328852  26.9968281  60.7323303  70.9707947
  26.5202847  59.9551392  71.2625351  26.3125973  61.3669624  70.7579575
  62.8006973  31.5644779  26.9636955  62.3757858  32.1096306  26.3015118
  62.0824966  31.0832424  27.3745861  44.2556725  46.6987419  42.9447556
  44.2167854  46.6654968  43.9005852  44.7705307  45.9300957  42.6991119
  16.9020233  54.6980553  78.9613800  16.4140587  55.5209579  78.9922638
  17.7482204  54.9354668  78.5821457  23.2547874  20.8011551  42.3832741
  23.3271732  20.9817905  41.4460602  23.8676662  20.0820637  42.5366325
  41.6683922   3.3029559  79.7299728  40.9456100   3.3232007  79.1027527
  42.3338470   3.8746347  79.3470993  63.5457420  10.3559761  17.7291698
  62.9314842  11.0854816  17.6470795  64.2666321  10.7075043  18.2516460
  20.0174847  29.2676773   3.1577935  19.0740318  29.2270126   3.0013461
  20.1564713  30.1239071   3.5624995  17.8858376  30.5860577  59.4258766
  17.8869324  29.9798527  58.6851044  18.2448406  30.0768814  60.1525764
  21.0953426  36.0641479  83.8067780  20.5559998  36.3821373  83.0827484
  21.2541046  36.8392220  84.3455658  16.3074398  36.6140022  75.4173889
  16.6167412  37.2314987  74.7546234  16.9484711  35.9033546  75.4003525
  17.1703625  13.3192949  73.4260483  17.8643169  12.8828220  73.9201660
  17.4991741  13.3502645  72.5276337  40.3863335  59.5990219  76.8498230
  40.8006897  58.7362404  76.8377533  39.5859528  59.4732246  77.3595276
   0.8855803  35.6727676  55.6824532   0.3118562  34.9088440  55.7415504
   0.3575018  36.3349800  55.2365341  25.6286945  22.8537445  54.9099998
  25.1567039  23.3319397  54.2282448  26.0637455  23.5348835  55.4228477
  78.9166183  29.6096096  22.6095390  78.4268341  29.2048283  21.8936501
  78.2477188  29.8545990  23.2488995  72.9262466  42.9030876  74.4304199
  71.9738922  42.8128586  74.3972244  73.2479477  42.0082359  74.5398788
   9.4594755   6.6857686  80.1407623   8.5423937   6.4135523  80.1077423
   9.6332407   7.0479579  79.2719345  31.4910374  67.8999634  43.4236755
  31.8703327  68.7095947  43.0818214  31.1293755  67.4611206  42.6537094
  55.9953194   5.8995361  25.0001221  56.9224243   5.9772677  25.2252235
  55.5332260   6.1175961  25.8095341  43.0370483  40.0370026  89.3005295
  43.7066383  40.3963737  88.7185211  42.7568779  39.2279472  88.8725433
  43.4412575  28.8676815   0.1345135  43.1539688  29.4253006   0.8575349
  43.5545998  28.0030746   0.5292764  36.8842087   0.9082174  39.6387901
  37.7939987   1.0293171  39.3670502  36.9335556   0.7652355  40.5839653
  78.0625916  19.4193726  72.9986572  78.3947296  20.0783100  72.3889694
  77.9372635  18.6373062  72.4611664   0.6466091  20.8799438  34.3456230
   0.1090138  21.1008720  35.1061554   0.6126157  19.9245491  34.2976837
  57.3316002  36.1047325  76.3731995  57.6889305  36.5775566  75.6215439
  57.5500565  36.6528931  77.1268768  39.1603012  23.3035259  65.8401718
  40.0381737  23.5519581  66.1297531  39.1687355  23.4529037  64.8947372
  21.0609207  43.1977921  75.1383438  21.4326057  42.3171654  75.0875397
  20.5978394  43.3105698  74.3082428  73.7430420  62.5633774  17.2965279
  73.6459885  62.8062553  16.3757534  72.9553070  62.9058914  17.7188911
  60.5686951  65.8036652  78.9794464  60.1137161  66.3309479  78.3227844
  60.2302856  64.9174728  78.8514633  48.3787193  43.0900116  65.5653000
  49.0004692  42.9913597  64.8442383  47.9815483  42.2241821  65.6592407
  67.8075867  61.6037598  70.0650864  68.7442551  61.7738571  69.9653397
  67.4590988  61.6529388  69.1749344  42.4346771  14.0348740  74.9699402
  42.0359192  13.1715927  74.8605270  41.7319946  14.6511850  74.7634659
  75.6827927  64.4122925  11.5767097  75.7639847  63.4795723  11.7758932
  76.2926636  64.5566711  10.8532104  74.0477142  63.3995094   3.5168846
  74.3068008  63.6473274   4.4044056  74.8600540  63.4340935   3.0117733
  63.5448112  26.3469772  16.0655327  63.3121223  27.2588177  16.2405586
  63.8345909  26.3446102  15.1532526  59.2793884  34.1464462  61.9046021
  58.7986984  34.6015701  62.5960045  60.0018654  34.7356148  61.6874847
  70.7449570  22.6627617   2.1724272  70.9110107  21.7213287   2.2210362
  70.3010025  22.7846470   1.3332108  62.8366394  50.0461197  66.7425003
  62.9695473  50.9690933  66.5264282  61.9214630  49.9940376  67.0181351
  10.5850277  48.2494698  78.3342896  10.0009413  47.4911308  78.3340225
  10.0076580  48.9965439  78.1769562  63.2254601  45.2885475  49.1655540
  62.9897385  45.6830559  48.3258934  64.1825333  45.2734184  49.1627998
  50.3682060  60.3810196  84.9367523  51.1036415  59.8331375  85.2109604
  49.5910301  59.8852386  85.1944962   6.1795483  22.7044144  12.0012674
   7.0655680  23.0582447  12.0787592   5.6141992  23.4765587  11.9811516
  71.6021423  17.2519779  59.6827812  71.0340958  17.6651917  60.3330193
  71.8180618  16.3994217  60.0606194   6.7498784  63.9067230  59.7954178
   6.8975668  64.4364090  59.0119286   6.4040394  63.0784492  59.4628754
   6.0153480  19.9760189  12.6556215   6.0442762  20.9301796  12.5851164
   5.1669865  19.7340202  12.2842035  15.9709244  47.0804329   5.7586317
  16.0122509  46.4780846   5.0158663  16.2502136  47.9227219   5.3997722
   5.7900438  27.0599422  56.2722816   5.3728042  27.9211712  56.2516174
   5.8117795  26.7822952  55.3564911  69.7774277  65.3236923   7.0426612
  68.8980713  65.6227417   6.8112950  70.0599747  64.8050842   6.2893710
  62.9821396  58.4292679  84.3368759  62.6118965  59.2106552  83.9262848
  63.7998238  58.7311707  84.7324524  43.3371048  20.1255836  15.8646488
  43.7723503  19.9826622  16.7051048  42.4989891  19.6708870  15.9485807
  28.3953228  43.6506500  57.9008713  27.9270802  43.5385246  58.7281609
  27.7173920  43.5733185  57.2295609  59.9811745   8.2346144  37.0855446
  59.7395134   8.3020706  36.1618118  60.6728821   8.8862200  37.2003593
  11.7883310   3.3108959  28.4596462  10.8691778   3.1035125  28.2911739
  11.8458481   3.3877852  29.4120178  72.7700882  53.3550568  33.8775177
  72.3341751  52.5708084  34.2109299  72.3101501  54.0817223  34.2978058
  19.3795681   4.0817690  48.7063866  19.0368881   4.6361694  48.0053558
  18.7193584   3.3972208  48.8147812  59.8496590  54.9339371  67.3544464
  60.0151711  54.0061073  67.5216980  59.8675270  55.3404045  68.2208710
  52.4945717  66.1100464  36.2636795  51.6384888  65.8414383  36.5971527
  52.4637222  65.9024506  35.3297729  24.4449196  45.9547539  57.0340195
  24.0293064  46.6862831  57.4904823  24.9383965  46.3649178  56.3237534
  62.0635796  16.4661827  35.6731148  62.7823105  17.0293884  35.3859673
  62.4957962  15.7079382  36.0661621  56.5914879  45.2388229  62.7305489
  57.2999458  45.0159035  62.1267052  55.8645859  44.6753044  62.4654198
   9.0768337  11.5908766  62.4699593   8.7173996  12.2933216  61.9281006
   8.3080215  11.1280212  62.8030128   7.1425352  45.9418869  37.2104912
   7.9108992  45.5658913  36.7809868   7.1350951  46.8569946  36.9298592
  74.0802002  29.3561058  42.7655602  74.7620392  29.6817627  43.3531570
  73.7498245  30.1389732  42.3248749  84.1458817  18.0034275  55.4134483
  84.7045288  18.7804298  55.4337006  83.2539139  18.3501892  55.3937836
  33.9247169  54.5075493  75.0821381  34.1928139  55.1159935  74.3935547
  33.1705132  54.9291878  75.4940033  50.2801399  38.0162964  69.9149475
  51.1141815  37.5520897  69.8434143  49.8593903  37.6354332  70.6857529
  71.6534576  66.7147751  51.3743668  71.5356293  67.4080811  52.0237350
  72.4086380  66.2178116  51.6889343  34.3666725  67.3555603  79.8635330
  35.0386391  66.9370270  79.3254623  34.8531685  67.7634201  80.5799103
   0.0218811  25.4783649  50.5384331   0.1241788  26.3458023  50.1468735
   0.8498067  25.3213673  50.9924393  57.7439537  37.2615662  82.9422379
  56.8602066  37.1315117  82.5982819  57.8046532  36.6566162  83.6815567
  10.1322613  41.7366829   4.5761113  10.2464333  41.5662422   5.5110693
   9.1936140  41.6253014   4.4252200  50.5109520  42.2331429  86.5114746
  49.6584091  42.4995880  86.1673660  51.0936165  42.9621277  86.2985992
  76.5347443  39.3820152  53.4244766  77.0649185  38.6548004  53.0984230
  76.5501709  40.0259743  52.7164459  73.3458939  12.5699301  42.1364899
  72.4420547  12.3119383  41.9555435  73.5040054  12.2755327  43.0334663
  31.7608547  13.2109327  69.1596375  31.4920082  14.1234350  69.0533676
  31.0282555  12.7032118  68.8107071  44.4033623  48.8387375  14.0275383
  43.5072021  49.1672630  14.0996695  44.5211754  48.2917442  14.8041668
  60.9831009  26.2408237  72.4438553  60.0356445  26.1134930  72.3954468
  61.1062164  26.8477516  73.1737289   8.8916855  64.8870926  28.4889164
   8.1450739  65.4009552  28.1810989   9.4033213  64.7112961  27.6992607
  36.5930099   7.5002546  74.5825119  37.0953102   6.9734430  75.2041168
  35.9770775   6.8827686  74.1880875  32.0506859  42.2209549  47.7279091
  31.2585526  42.4885254  48.1939163  32.5234642  41.6728859  48.3542747
  29.2300034   0.6437724  64.7396698  29.6195869   0.3791927  65.5730057
  29.3321590  -0.1214900  64.1738358  60.0583344   1.3516767  50.4493523
  59.8264427   0.4286846  50.3466682  59.2550011   1.7669957  50.7630386
  68.7937622  62.7488213  30.0141277  69.0264740  61.8650703  30.2988396
  68.1053696  62.6169548  29.3622379  55.7986259  33.0868416  57.5677109
  55.3499069  32.4792976  58.1557350  56.7091370  33.0773849  57.8628616
  63.5360947   1.6139802  86.4541702  64.2732010   2.2158918  86.3511963
  62.8147202   2.0367839  85.9882431   7.4309316   3.9948714   7.8096309
   7.7712922   4.6926837   7.2497702   7.2456555   4.4260373   8.6438971
   6.3767624  47.1862564  10.0923147   7.2736650  47.0821838   9.7745628
   6.1171699  48.0584335   9.7954159  83.8517075  24.3992863  54.0916023
  83.2844238  23.6291561  54.1280556  83.3546448  25.0389767  53.5817413
  78.9932785  21.5594711  54.7808151  79.0561905  20.8928413  55.4648323
  78.0673294  21.5672131  54.5383530  58.3519058  16.8542976   2.8867335
  59.2990379  16.7515202   2.9795001  58.0463219  17.0652008   3.7689865
  19.0189018  43.3902245  46.2983437  19.1965542  43.4547424  45.3599892
  18.6552773  42.5122986  46.4134598  32.0609093  53.2543488  51.0547943
  32.1617622  52.4542313  51.5704269  32.8146935  53.2557068  50.4648438
  73.0280991   3.7838049  32.0745964  73.0983429   2.9609559  31.5906372
  73.8005142   4.2836738  31.8105202  58.3165359  57.8161201  73.8744278
  58.1124878  58.5215759  73.2604828  57.7100868  57.9496689  74.6028595
  43.0128174  50.4211655  86.9273529  43.4973297  50.8055992  87.6578979
  42.0958595  50.4654350  87.1983871  26.7237797  57.9798889  32.9119225
  27.4163322  57.3230133  32.9834785  26.8960876  58.4198914  32.0794907
  31.7087860  66.6005020  48.7719002  31.4206123  67.4462433  48.4285164
  31.5281487  66.6490250  49.7106476  67.9485245  49.4581947  72.6379700
  67.0627518  49.7127228  72.8965454  68.4734192  50.2472191  72.7727203
  26.8638287  45.1108017  24.8480434  27.6815491  44.7369385  25.1763592
  26.6020012  45.7408867  25.5193672  83.2080002  45.2896614  46.1404648
  82.4574966  45.2683105  46.7341995  83.6840668  46.0833702  46.3846359
   5.6135287  49.2733879  38.1095085   5.9708414  49.0944481  38.9793015
   6.2767978  48.9404678  37.5049667  52.0858994  38.7036362  57.7697067
  52.8248940  39.2728271  57.9845161  51.3523216  39.3037910  57.6358681
  47.1877365  20.0759258  64.2640991  46.4371567  19.5414314  64.0049133
  47.7280273  20.1284447  63.4757080  70.7045593  28.1999168   4.2746711
  71.3450928  28.7553864   3.8303683  70.4992523  27.5149593   3.6383448
  53.9761505  22.2567539  52.9146957  54.7082748  21.9909630  52.3582954
  54.3722649  22.8218632  53.5780029  59.2894936  12.9404392  53.7837944
  58.7534866  12.4558411  54.4115639  58.6944046  13.5925694  53.4138947
  43.2595673  67.8132095  17.7721844  43.1042023  67.1531219  17.0966301
  43.9506989  67.4388123  18.3184376  32.0690765  62.0154305  22.7240810
  31.1263180  61.8962631  22.8391209  32.3135300  62.6529694  23.3949165
  75.9047470  40.1652756  18.2862797  75.4612961  39.3277855  18.1513748
  75.2608719  40.8224869  18.0222111  27.1090126  23.9043217  87.3631287
  27.6073589  23.4071827  86.7144928  26.4148293  23.3068104  87.6411972
  83.5084381  15.8634768  31.9559746  84.0638580  16.2766113  31.2948704
  83.5112610  14.9346428  31.7246914  83.2297821  71.3498611  50.7974701
  83.1151886  70.6841354  50.1193008  83.6355972  70.8813400  51.5268745
   6.0738788   1.5804405  15.1466179   5.3975821   0.9050487  15.1985826
   6.7192435   1.2265735  14.5346422   6.4606414  31.2906075  79.2285995
   6.5763316  31.7152424  78.3785782   7.2764416  30.8100796  79.3692932
  67.7456894  42.5121765  51.2938232  68.3898849  42.4371758  50.5898209
  67.9026108  41.7453232  51.8447685  59.6924324  67.6412048  39.2210083
  60.3699341  68.1891785  38.8248482  59.1602745  68.2505951  39.7325592
  22.0286427  64.9419556  66.3202972  21.9067211  63.9994431  66.2061234
  22.9757996  65.0692291  66.2662125  82.4330597  57.6410332  43.9035683
  81.5204773  57.4407310  44.1116791  82.3820496  58.3340683  43.2452888
  65.5074234   6.8846388  86.6032257  66.3947754   7.2197342  86.4745636
  65.5913162   6.2523603  87.3169556  38.0395546  49.6244698  68.8183670
  38.7412720  49.8487244  69.4295425  37.2726212  49.4867821  69.3743210
  23.8735695  67.5858307  11.2963572  24.3670959  68.0518341  11.9712677
  24.4073715  67.6724014  10.5065508  63.5656662  15.2432919  57.0273857
  63.8718185  15.6546412  56.2191200  63.0829620  15.9348412  57.4801445
  45.0317307  63.9070320  40.2467003  44.6190720  64.6779327  39.8572769
  45.6902618  63.6385078  39.6060295  60.9424896  54.4175949  16.7359428
  61.7678642  54.7838211  16.4183445  60.7916451  53.6514473  16.1823235
  67.5231018  18.1381989   3.7241225  67.8989944  18.9098549   4.1477785
  68.2245026  17.8075314   3.1629369  78.9657974  65.4274902  88.1339417
  79.4558334  65.6659241  87.3470154  79.3162842  64.5727463  88.3845520
  34.3320007  69.8132172  62.1770973  33.4802895  69.3821487  62.2478142
  34.1897736  70.6861343  62.5431862   9.9666080  13.8670502  57.6661606
   9.8456678  13.0996342  58.2253342   9.1326761  14.3341866  57.7168961
  85.7122955  63.9771004   5.7994933  86.1604004  63.1853523   6.0970974
  85.5547104  64.4782410   6.5996537  66.8946609  61.9524918   9.8155575
  66.5388031  61.8416138  10.6972036  67.5406265  61.2515526   9.7280998
  52.9460526  55.5053825  24.6590290  53.2518349  55.4784431  23.7523842
  53.2176018  56.3660812  24.9779091  71.5425110  51.7906303  52.4190407
  72.3778305  51.4014053  52.6778259  71.7782440  52.4551430  51.7716713
  75.2055893  36.5105667  11.4218311  74.4734802  37.1048660  11.5863008
  75.8695602  36.7654457  12.0624666  85.2310791  65.5381622   8.1129532
  84.4281616  66.0524216   8.1971788  85.6461639  65.5995102   8.9732885
  44.7364578  40.3185234  23.7859726  44.1343117  39.6268349  24.0602207
  44.3143692  41.1296616  24.0690460  85.1772614  14.2131252  76.5743942
  85.8230972  14.0055981  77.2497177  85.6224136  14.0190153  75.7495422
  78.2969360  11.7823973  22.1487408  78.3157654  11.9729462  21.2108879
  77.4308548  12.0727558  22.4347954  50.5150146  29.0233154  35.6436043
  50.6317635  29.4240723  34.7822113  50.1501389  28.1581192  35.4577713
  59.9323578  51.6525497  30.5265923  59.9805336  52.4057999  29.9379272
  60.6886597  51.7517395  31.1048679   5.5626135  39.6335640  53.0498199
   5.1329622  39.0015221  53.6261520   6.4978085  39.4637566  53.1629868
  72.8281174  68.4757233  13.3688850  73.1209335  67.5988617  13.6171064
  71.9004364  68.4939651  13.6040545  13.1768484  64.4399796  84.0452194
  12.8446693  64.2584991  83.1660461  14.0902910  64.6915359  83.9089355
  72.3534851   4.1010547  14.5064716  72.7548904   4.5284662  15.2630596
  73.0912781   3.7344608  14.0191183  65.6232529  39.8056259  56.5481758
  65.2570419  40.1953201  55.7542839  66.5364685  40.0923233  56.5564384
  76.8327332  62.9641838  18.3107624  76.9830399  63.1511688  17.3841152
  76.8419876  62.0086708  18.3668613  75.0592728  53.3768654  58.9158707
  75.5348511  54.2031479  59.0013542  74.1902466  53.5627975  59.2714844
  85.5996323  45.3883743  41.8596764  85.8779984  44.8944931  41.0884285
  86.2284088  45.1456223  42.5393372  45.1165428  -0.1925034  18.2856503
  44.7675171  -0.4614325  19.1354084  45.4189720   0.7050453  18.4241257
  25.5389671  26.9749165  74.6270752  25.9176235  27.8353806  74.4469299
  25.6749763  26.8451233  75.5656357  72.7855530  11.9578028  32.8876724
  73.6700058  12.1564560  33.1951027  72.8163605  11.0304403  32.6525536
   3.2579546  26.9938641  25.2168102   2.7394207  26.2230282  25.4473896
   2.8319542  27.3437786  24.4343052  81.5494614  21.8391533  81.5035400
  80.7563553  21.5588989  81.9603348  82.1958542  21.9613018  82.1988831
  61.1778488  31.3177147  21.6737728  60.8099022  30.4415131  21.7883224
  60.4434395  31.8471394  21.3629913  34.0014458  31.9158993  85.4095306
  33.8188438  32.6197014  84.7869949  33.3226089  31.2630119  85.2387924
  69.1006088   3.0931463  15.3860836  68.1619110   3.0266654  15.2109690
  69.2353210   4.0102115  15.6249866  46.4732170  48.1594810  12.5179701
  47.0955162  47.6811600  13.0658588  45.8486977  48.5362892  13.1378279
  17.3363895  71.3488846  35.7064209  16.4534855  71.4226608  35.3441048
  17.2738972  71.7502060  36.5731812  49.3977394  22.2669373  56.7562408
  48.6039619  22.2472267  56.2216759  49.8199310  21.4242592  56.5892677
  53.7549782  31.0986538  56.5122452  54.5549126  30.8458748  56.0513344
  54.0524406  31.3555260  57.3850365  30.4128780  36.7433243  10.8809023
  30.2058849  37.1957436  11.6986456  30.0234680  35.8748360  10.9824705
   7.2524457  64.7667313  24.3911877   7.8557796  65.0739899  23.7145691
   6.6451473  64.1906586  23.9269028  47.2990913  59.1582603  85.2290955
  47.0558319  59.5507889  86.0675278  46.8228493  59.6721382  84.5768967
   3.5071630   9.3563919  88.5548172   2.7863109   9.9808159  88.4729691
   3.2370951   8.7701015  89.2616119  73.9438400  41.5744781  33.3976173
  73.4939041  40.7813263  33.6886444  74.5513306  41.2713280  32.7228699
  22.2133121  63.3673706  58.1399040  22.8448792  64.0842285  58.1988411
  21.7409897  63.3952713  58.9719887  85.6864166   6.3868217   4.4057803
  85.7409210   6.6944194   3.5009902  86.3689194   6.8750610   4.8662620
  47.3946342  11.7977343  67.6756668  47.4828300  10.8542023  67.5407562
  46.5096283  11.9082994  68.0231934  18.5387669  20.5764084   4.0935059
  18.5362129  20.0640545   3.2849767  19.4305782  20.4885292   4.4299297
  26.3355064  51.7737885  29.3666706  26.8978291  51.2673912  29.9528313
  25.6333427  52.0989838  29.9300957  37.5117035   3.3647308  63.3680115
  37.3266106   4.2075415  62.9537125  37.4240112   3.5345099  64.3059387
  53.9470062  38.9731445  33.5830002  53.6762962  39.5743217  34.2769279
  54.1186523  38.1471329  34.0351868  44.6596756  11.2837086  59.1479950
  44.7607841  11.0643559  58.2217674  45.5536079  11.4251909  59.4595947
   7.4838881  68.6678467  31.6188717   6.6701941  68.2269592  31.3744297
   7.5329332  68.5700989  32.5698051  47.1463280  44.0636520  59.2670097
  47.7296104  43.7177544  58.5914574  47.5112572  44.9220619  59.4819374
  52.3968925  12.3225460   3.9503407  51.5190430  12.5716839   4.2393723
  52.6362228  11.5887899   4.5165162  17.1746368   2.2217398  38.1589050
  16.2785740   1.9168508  38.0162697  17.6307049   1.4629942  38.5229645
  39.3929138  63.7402420  61.8851357  39.8830338  62.9567070  62.1343117
  39.5459366  63.8294029  60.9444618  71.5320358   2.5955029  84.1860428
  71.6615906   1.7884215  84.6841049  70.7144165   2.9584813  84.5265884
  79.9004288  59.6250534  43.7412796  79.8128204  59.4436760  42.8055115
  79.0735474  59.3281822  44.1212349   4.1123142   9.3196421  62.6603546
   4.1073236   8.3645887  62.5964775   3.1898584   9.5684214  62.6019096
  37.2684937  56.0134621  48.5065460  37.1928711  55.6592827  49.3925896
  38.1364670  55.7378998  48.2117310   0.5342878  69.5738144  80.2795563
  -0.1951484  69.3980484  80.8739166   0.2046926  69.3254700  79.4158859
  63.5269852  70.3537369  86.4617310  64.4770126  70.2398529  86.4350586
  63.3932304  71.2881775  86.3030853  62.3912125   1.1794925  68.7334976
  62.0621033   0.4987385  69.3204269  61.9123840   1.9679796  68.9889221
  44.7306023  33.8280029  69.8106079  44.4533501  32.9240074  69.9594574
  45.5314522  33.9209557  70.3265839   7.0789351  49.5874100  68.5530853
   6.9651666  48.7817192  69.0572128   7.9851780  49.5524254  68.2469254
  58.0799561  64.0778885   5.2453065  57.5431747  64.8626862   5.1349411
  57.6888275  63.6231422   5.9912686  11.6908541  69.0920486  87.4705658
  10.7816858  69.3897247  87.5027008  12.1915293  69.8755722  87.2433243
  71.6257629   2.8042440  79.3798141  71.4867096   3.6565871  78.9670105
  72.4496536   2.4895122  79.0078201  47.0633469  16.9359055  22.8149796
  46.8956108  16.4055805  22.0359745  46.8100662  17.8230381  22.5598831
  80.6158447  18.8589764  25.7541008  80.4278412  18.2482700  26.4667892
  81.5246735  18.6762772  25.5156021   1.9454958   9.4926939  81.1852417
   1.6590699   8.5854006  81.0803070   2.4799843   9.6662645  80.4103699
  54.2293320  66.7125397  54.2497177  54.1111298  67.4533997  54.8441849
  55.0560989  66.3153534  54.5234528  52.8924332  71.2637787  31.3952007
  53.2949715  72.0556335  31.7518005  52.7603683  70.6986084  32.1563683
   6.8441100  67.0257950   0.8493966   6.2365232  66.4263840   1.2827327
   6.2991219  67.7643356   0.5777838  56.0971947  62.5738564  64.7347717
  55.6407242  62.1227837  64.0245667  56.7417297  61.9386559  65.0467529
  49.3425713  54.1060715  33.0398636  48.9983101  54.7899895  33.6142998
  48.7949028  53.3423958  33.2217636  42.0328178  60.8910713  78.6036301
  42.8436623  60.7027588  78.1310806  41.3505478  60.4578667  78.0907211
  14.2625637  53.9409943  39.1642647  14.9377022  53.5245667  39.6999969
  14.7002735  54.1348000  38.3353615  36.0616951  28.8826809  12.1671715
  36.7511902  28.3776970  11.7361031  36.5086784  29.3377495  12.8808613
  70.8888016   1.1501917  25.9537239  70.0774002   0.9416786  26.4167328
  71.4739532   1.4833338  26.6340523   0.2229668  70.5684509  56.0798569
  -0.1336185  69.6931839  56.2314568   0.7778068  70.4703217  55.3060646
  36.3055840  64.3708267  55.5165291  36.6334076  63.6332550  55.0019913
  36.9503746  65.0646439  55.3783417   7.3169618   8.6280937   7.1049275
   7.9497066   7.9181004   7.2134428   7.6623325   9.1478615   6.3791232
  82.5470886   6.5360079  76.2180939  82.0804062   7.3599329  76.3580475
  83.4501419   6.7993464  76.0409393  63.1143951  25.0720634  71.3577423
  62.4809952  25.6482372  71.7855988  63.1838760  24.3168621  71.9417572
  37.7774925  67.5812225   5.6890254  38.2035561  67.1657486   4.9393067
  38.4668045  67.6474609   6.3498507  73.7639465   9.7465296  28.7852783
  74.0986786   9.3670292  29.5977840  74.5482864   9.9937754  28.2954693
  80.1110306  41.7625542  76.1948090  80.4553375  41.7267570  75.3023987
  79.3727646  41.1533089  76.1913071  53.0727539  26.5473309  22.7245388
  53.3576546  25.9023438  23.3718834  53.3552246  27.3883095  23.0839844
  82.0233994  12.7112112  30.3509045  82.9703217  12.7204914  30.2113094
  81.9074249  13.0706425  31.2304459  59.5465355  30.6099777  66.9298172
  58.7845497  30.4601803  67.4894333  59.2871971  31.3348923  66.3610687
  12.4362040  68.1363907  62.7706604  12.7941065  68.9919281  62.5336113
  11.7874975  67.9516144  62.0914917  35.9314117  70.7810440  68.2661209
  36.4707909  70.4152069  67.5650787  36.4731827  70.7019424  69.0512695
  18.3075867   5.3336511  10.5668659  19.1863422   5.0195494  10.7798452
  17.7286949   4.8348942  11.1433706  74.1177826  14.6421185  45.6634331
  74.1500473  13.9128790  45.0442390  73.8278732  15.3887377  45.1392708
  32.8627853  66.8507690  36.2438126  32.9584160  67.2018738  35.3584785
  32.3542442  67.5137711  36.7107697  17.2525158   4.0692792  20.4068241
  18.2020035   3.9910467  20.4994831  17.0757751   3.7905293  19.5083294
  30.6955509  45.0915298  57.8893509  30.6143875  45.5500832  58.7256355
  29.9015465  44.5603065  57.8294334  19.8966007  32.7268524  60.6114693
  19.0026054  32.4047089  60.4964600  20.4324722  32.1430931  60.0745316
  61.6320038  23.6732960  20.7202473  62.0976486  23.6759014  21.5565472
  61.8255806  24.5281963  20.3356647  32.0765800  44.0629158  29.9814491
  31.8077030  44.9793396  29.9173946  32.1695938  43.7765274  29.0728455
  33.2597275  43.9083023  13.5395775  33.5287857  44.5336533  14.2124624
  32.4143753  44.2358665  13.2324657   2.9861979  38.1512909  77.0503693
   2.0554068  38.1801529  76.8289490   3.3738375  38.8692284  76.5498352
  76.0907059  31.1345215  71.7326813  76.5554733  30.3176270  71.5512848
  76.2592163  31.6814251  70.9653931  12.0316238  11.7748737   9.4783792
  11.3660870  12.4585905   9.4020615  11.5820236  10.9723654   9.2136660
  26.7879963   4.9351649  37.2526474  27.6866150   5.0068164  37.5744972
  26.7773342   5.4611530  36.4529915  52.3271599  44.5551720  86.0829773
  52.8218994  44.9906349  86.7771225  52.9729805  44.3899345  85.3960648
  68.6864624  13.7790127  65.5332642  68.1374893  13.6548691  66.3075027
  69.2591476  14.5115099  65.7606659  56.1700439  63.3852959  42.3533287
  56.4381828  64.1032028  42.9268684  56.3036575  63.7234421  41.4678688
  80.3569031  65.3973160  67.4278107  79.7467194  65.5947495  68.1383972
  81.1982422  65.2645035  67.8645401  29.8068199  50.5462646  70.1985016
  30.6353912  50.5293541  69.7195282  29.1962280  50.0677109  69.6377945
  49.2042580  21.9474583  19.7239742  49.8884544  22.2150002  19.1103516
  48.9950752  21.0479755  19.4721737  39.7178650  51.3812370  25.0842781
  40.0973930  50.5506363  25.3711491  39.9648857  52.0057068  25.7663727
  70.1021652  66.7364502  25.0272789  70.5991135  65.9183655  25.0305252
  69.6723938  66.7522278  24.1721306  15.8353539  28.1929493  62.7560349
  16.6533146  27.7956200  62.4571991  16.1106377  28.8810787  63.3617783
  49.1883087  47.1831970  84.6265793  48.3521271  47.4676590  84.9955215
  49.8436661  47.4927902  85.2517929  68.8354263  53.4781647  85.4112091
  68.3722153  53.5703087  86.2437820  69.3517151  52.6784134  85.5116043
  82.1476440   1.1239115  32.7318916  82.1918488   0.5353487  33.4854660
  83.0611877   1.3341085  32.5382500  31.9852715  67.9983978  75.4776306
  31.9377823  67.3272858  76.1585007  32.4540291  67.5763702  74.7576370
  63.8890915  51.3176003  22.5857811  64.1552429  52.1718407  22.2456722
  62.9455223  51.3985863  22.7248802  80.5389633  42.7048798  21.7741032
  81.4669952  42.4903183  21.6795197  80.3854065  42.6927452  22.7188263
  70.9829636  31.4714298  37.2792320  71.7978745  31.5345516  37.7773895
  70.6570435  30.5905514  37.4637871  25.5049267   2.6141071  40.8037453
  25.4143524   2.4405901  39.8667717  26.0253887   3.4161360  40.8495865
  11.5411844  26.3348122   5.8906059  12.0130739  25.9947624   5.1303968
  10.7073545  25.8647842   5.8848410  57.5765114   8.7649422  54.2417412
  58.0814209   9.1907949  53.5489616  58.1954842   8.1615696  54.6528931
   0.2502494  49.5772820  65.3185120   0.4813726  48.6704674  65.5197678
   1.0820216  49.9908295  65.0875015  66.1665192  27.7317562  72.7160721
  65.6005478  27.1989059  73.2746201  66.2098312  28.5795708  73.1583023
   0.3467384   2.1952391  26.3424625   1.1249238   2.1909084  25.7851105
   0.3708494   1.3515894  26.7940216   1.3630315   1.0256325   8.6639690
   1.9910957   1.7466865   8.6209755   1.5133686   0.6278645   9.5215311
  65.1744461  46.2566109  14.5757504  65.8105774  46.9391937  14.7893972
  65.5518799  45.4553642  14.9387636  41.9330025  42.7731285  86.6142197
  42.1729164  41.9383240  86.2120056  41.3305511  43.1759071  85.9888763
  15.5900612  70.9561691  57.8925095  15.7837591  71.1722336  56.9803543
  15.1797628  71.7463684  58.2439003  83.6110687  29.6765079  42.6274376
  84.0203934  29.0195961  42.0642738  84.1917725  30.4353733  42.5714111
  54.6692505  13.9610720  24.2279396  54.7994499  13.5913687  23.3546696
  53.9653282  13.4354744  24.6080341  66.5809708  20.1161976  40.8978119
  67.0542145  20.8879585  40.5869141  65.6940613  20.4323635  41.0700073
  68.5017700  37.0638123  56.0687294  68.0751877  36.5418930  56.7483330
  68.8173294  37.8424339  56.5274239  19.9226761  22.4303284   1.7304772
  19.8049431  21.6113701   1.2491504  19.9203224  22.1693497   2.6514094
  83.3061829   4.6422997  43.8020592  83.2510834   5.1780338  44.5933762
  84.2434845   4.5845766  43.6166840  82.6145477  64.2457123  60.6644058
  82.8302917  63.9386063  61.5449562  82.0514145  65.0064240  60.8073273
  85.3023224  42.9405670  65.1877747  85.3930511  43.4854164  65.9695282
  86.1805267  42.9190254  64.8076019   8.0378876  29.4180832   3.1668808
   8.5728512  29.8681812   2.5130789   7.7407923  28.6219139   2.7263355
  53.7006683  52.3260384  51.1524544  53.6254539  52.9467354  50.4276733
  54.6304398  52.1000633  51.1787567  83.2514343  63.2188683  75.5791779
  83.0034485  63.7107353  76.3619919  82.5180130  62.6224861  75.4286957
  52.9925804  63.2237740  71.0441284  52.5012474  62.4074669  70.9521255
  53.6553421  63.1834145  70.3546677  20.1792641  50.2332382  67.1717987
  20.8756943  50.8625183  66.9841232  20.4725895  49.4210968  66.7587357
  84.1930542  61.5737953  43.2309151  83.7775421  61.0348930  42.5577393
  84.7473297  60.9638138  43.7176704  79.9676819   1.7187275  48.5113144
  79.9037399   0.9737456  47.9136963  80.4945145   2.3618362  48.0368843
  73.1116257  63.4938812  14.5953856  73.1148529  63.5648041  13.6408224
  72.2014694  63.2981415  14.8179417  11.4313183   4.1404309  71.1498184
  11.3935966   4.5644016  72.0071716  11.0366688   4.7747426  70.5513763
  12.2184124   8.2276802  22.6178799  12.2267752   8.5117273  23.5319252
  13.0812750   7.8366895  22.4806690  44.8126411  55.6458855   9.1260939
  45.0313759  56.3544655   9.7313213  44.7581329  56.0704460   8.2699337
  11.7949848  44.4062576  87.7982101  11.8405113  44.1134262  86.8880463
  11.6864548  45.3554573  87.7392807  66.6817627  58.1627502  65.2778702
  66.4204483  57.9767418  64.3760147  67.1788940  58.9786606  65.2197495
  50.0865250  59.4698296  56.7787170  50.0165215  58.7479591  57.4034042
  49.3547516  60.0470657  56.9967537  68.4899673   0.6983312  71.6454468
  69.2990036   0.1872191  71.6666946  68.1524200   0.6497723  72.5398407
  72.6381989  13.5613527   3.1946054  71.7640915  13.3481970   2.8679111
  72.5814819  14.4829922   3.4467871  64.5713348   2.5259490  25.0401764
  65.2331314   3.2152503  24.9843273  64.8936005   1.8368729  24.4591846
  22.2957497  63.3836365  63.8050308  21.6692276  63.4391251  64.5265732
  22.0166073  62.6174011  63.3038368  77.1338043  24.6745014  68.3195419
  77.1953430  24.4769363  67.3849792  77.3708572  25.5995789  68.3849106
  29.1312981  69.6596909  87.7616959  29.8436642  69.7091980  88.3991241
  29.5712738  69.5474396  86.9190521  21.7543659  51.9839554  42.5977669
  22.2293434  52.0638046  43.4249611  22.4383831  51.8593254  41.9398766
  11.6860828   5.5091462  54.4043884  11.6349545   4.7912931  55.0355034
  11.2320871   5.1791553  53.6290016  84.1093369  38.3820381  67.5181046
  84.4436417  39.2584877  67.7086487  83.4140625  38.2457352  68.1617279
  77.6232376  39.6392136  77.3721771  77.3545227  40.3280754  76.7643127
  77.7294464  40.0879898  78.2109528  71.6402817  65.5270538  64.0437927
  71.8483200  66.3587646  63.6180954  70.8180466  65.2501297  63.6394768
  67.2892990  34.3521461  80.5284882  66.4589996  33.8759689  80.5379715
  67.4429092  34.5473442  79.6040802  62.2012787   7.8459039  23.4032211
  61.3061333   7.6582885  23.6856117  62.6482887   7.0006123  23.4467449
  40.2486725  25.6860561  57.5762749  40.9923439  25.0946465  57.4604225
  39.8719139  25.7715073  56.7004967  85.9509888  69.5081940  19.9481659
  85.8409348  69.0706406  19.1039677  85.0797119  69.8435364  20.1595135
  69.0833206  63.7169991  18.1103783  68.7779236  62.9818115  17.5789013
  68.2992935  64.0267258  18.5638199  50.7725449  49.6463814  37.1421738
  51.7001495  49.5867043  37.3707008  50.4401360  48.7559624  37.2556992
  81.1203766  41.4200783  29.3420467  82.0560608  41.5297928  29.5114174
  80.7079010  41.5245628  30.1994724  72.7753601  53.6239281  83.4105148
  73.0335541  52.7258034  83.6177368  71.8828888  53.5449028  83.0736542
  20.3192463   3.7487864  11.3600674  20.0123920   3.1109087  12.0044165
  20.4948769   3.2304397  10.5747643  58.2911339  13.5721655  12.2056770
  58.2652702  14.2658844  11.5466490  58.9573708  13.8595991  12.8299694
  50.9642982  14.7653399  59.4002266  50.7429848  13.8513975  59.2214546
  50.3829880  15.0165567  60.1180000   3.0402174  45.6851196  27.1428528
   2.7070391  45.5328331  28.0271797   3.8221536  45.1362076  27.0836792
  84.0170364  69.9939117  45.9863930  84.6718674  69.3202438  45.8031044
  84.4034348  70.8017883  45.6483574  70.8954468  52.3545456   2.9528031
  70.6753387  52.6988602   3.8183846  70.6479187  53.0531731   2.3470938
  39.3148956   8.7288914  64.1309128  40.1108284   8.2490263  64.3599319
  38.7220039   8.0598917  63.7886314  82.6925812  56.4530602  46.4695892
  82.4335709  55.5394135  46.3496170  82.6923370  56.8201408  45.5855751
  70.7705307  58.6215858  76.4746628  71.4057846  57.9927063  76.1323318
  70.5043488  58.2576408  77.3190079  16.1425171  19.7908974   7.9186945
  15.2600060  19.7556152   7.5496964  16.0232468  20.1714287   8.7888680
  10.5778179  49.7217293  84.4509277   9.6996336  49.4051018  84.2393341
  10.8053961  50.3007355  83.7234726  18.3960438  44.1071472  83.9242401
  18.5095482  43.9023933  84.8523712  17.4754543  44.3570595  83.8449402
  19.7124252  27.4839535   7.4325018  19.2533512  27.0740814   8.1656389
  20.6401138  27.3445797   7.6227679  72.3399811  41.6795082  64.0422821
  72.1274643  42.5689240  63.7594299  72.0122375  41.6289902  64.9402084
  70.4174271  37.1101761  62.2034111  70.9209976  36.9596214  61.4034195
  69.5802383  37.4589958  61.8973618   7.7304358  38.6926231  21.0701199
   7.0300474  39.2518578  20.7340488   7.2897201  37.8800850  21.3186760
  48.8449745  71.0469437   7.2788744  48.9780731  70.1277008   7.5102067
  49.6382141  71.4878006   7.5832510  24.5095100  12.1410236  84.2688293
  24.1390514  11.2950630  84.5205078  24.1926155  12.7494144  84.9364090
  77.8453751  70.6240311  28.2126884  78.2860107  70.3264236  27.4167614
  78.1255417  71.5334930  28.3157692  11.5894003  46.8827744  85.3613052
  11.3907938  47.6058044  84.7663193  10.7711267  46.7297325  85.8337860
  25.2681980   8.5343122  43.5737152  25.7620983   9.2932043  43.2632713
  24.5788155   8.9059944  44.1240234  56.4701614  10.5357008  88.5980911
  57.0741920  11.1176157  88.1368332  56.6174698  10.7235670  89.5250397
  40.9239578   1.2030299  55.4318199  39.9688377   1.1752710  55.3751488
  41.1880722   0.2840543  55.4760666  32.4343185  56.3458862   6.6866269
  32.2134361  56.3845787   5.7560649  33.0126266  55.5870895   6.7641745
  48.6129494  56.9266777  83.9769058  48.1794777  57.4227409  84.6713486
  48.3738556  56.0157890  84.1482086  46.4478912  57.7431030  55.1567421
  46.8831482  57.4957619  55.9725876  47.1587563  57.8231010  54.5207367
  41.0651817  60.0011063  58.2305412  40.8715553  59.0679893  58.3201790
  41.3403702  60.1021652  57.3193398  35.9122124  18.7967262  81.4531250
  36.7964516  18.4433594  81.3557358  35.4002380  18.0678101  81.8035507
  57.3386650  44.1803818   3.4567516  58.1613541  44.1045876   3.9401460
  56.7038841  43.6989517   3.9873283  55.8508606   7.6767292  81.1640091
  56.7629967   7.6857934  80.8739090  55.4859467   6.8785267  80.7819824
  40.6474113  47.9169807  65.5559464  41.3603096  47.4544411  65.9964676
  39.9443398  47.9469910  66.2048035  34.7439003  41.5114746   2.8977799
  34.7769890  41.5346870   3.8541260  34.2123299  42.2705383   2.6580198
  35.1197472  10.1842842  58.3544197  34.9160690  10.8751726  58.9848328
  34.2673683   9.9094458  58.0165596  36.6374779  43.1618004  21.7354374
  36.4678497  43.9655418  21.2440491  36.2834969  42.4644279  21.1835327
  40.9117012  20.1734447  63.2238922  40.6637344  19.9409733  62.3290749
  41.4717216  20.9433861  63.1248817  40.4940758  30.4545269  75.9834518
  40.0730209  30.1632900  75.1746750  41.2947311  29.9327888  76.0379715
  21.8298264  70.1871567  36.8952217  22.2356720  71.0522003  36.9519615
  21.4441395  70.1605148  36.0195694  63.5036125  63.4005051  85.4568710
  62.7500038  63.7759628  85.9122162  64.2279510  63.9903221  85.6658478
  82.1867142  19.8684273  63.6124115  81.9146118  19.7899609  64.5267639
  81.4460678  20.2909966  63.1775360  80.7745590  31.4182796  38.5015984
  81.4237671  31.8064060  39.0882149  80.0442505  31.1837463  39.0741997
  60.8961563   7.0920992   9.9440107  61.0934715   7.7682781   9.2958746
  59.9405365   7.0374336   9.9497824  15.6209803  11.0480366  10.2040510
  15.7102871  10.7244387  11.1004553  15.1896572  11.8973818  10.2978773
   8.6737614  37.1143646  35.5153885   9.2654705  37.5976028  34.9386826
   9.0293036  37.2523422  36.3933334  69.2546082  24.5231266  28.0459728
  68.3371429  24.6802101  28.2691689  69.6917038  25.3544941  28.2303905
  67.7864685  47.8160973  25.0725060  67.0740280  47.9061394  25.7053928
  67.3502655  47.5872345  24.2517853  65.0132446  62.5054245  70.2424622
  65.9500504  62.3290634  70.1557617  64.9444733  63.4593468  70.2032623
  76.3760223  10.0987434  47.1919785  76.1733627  10.7558899  47.8577995
  77.0214996  10.5222778  46.6261063  76.2212830  15.2475128  25.8358765
  76.9294968  14.6580696  25.5765877  76.3432693  16.0235786  25.2889996
   0.0536755  40.5410080  58.4044533   0.5653437  41.1180305  58.9714394
  -0.5753149  40.1233292  58.9927940  45.6368294   8.0163240  21.3449268
  46.0321198   8.2427225  20.5030708  45.4189148   8.8596992  21.7417412
  80.5569000  50.2469978  76.2604446  80.7232590  50.4668579  75.3438110
  81.4278336  50.1425858  76.6435852  21.5678921  25.5165386  62.1959686
  22.4047718  25.2309647  62.5624542  20.9223957  25.2844772  62.8635902
  65.9931412  51.3891106  58.9919014  66.7942047  51.3269157  58.4716415
  65.3519897  50.8689537  58.5075531  56.9552803   2.9767067  28.2707195
  57.3940125   3.6384881  28.8053131  57.6261749   2.6836286  27.6540833
  15.3686228   4.1824255   0.9722558  16.0628796   4.8138270   0.7836542
  14.5617714   4.6308546   0.7190085  65.5811539  23.3616123  12.9028578
  65.3616486  22.5374718  13.3374166  66.3568115  23.1576939  12.3803635
  31.3292122  48.3313255  25.8469563  30.4692841  48.6377525  25.5591068
  31.8478680  48.2842293  25.0438309  80.8214874   7.3027182  85.0070572
  81.1555099   8.1970034  85.0771484  79.8782043   7.3878150  85.1456680
  49.5767403  43.1504974  11.0681658  50.1030807  42.7213707  10.3935938
  49.5155563  44.0614815  10.7807684   4.7531719  43.4715652  28.4741821
   5.4773374  42.9158325  28.1861191   4.1004124  42.8583794  28.8120289
  69.1533661  48.5452461   4.8405776  69.7764969  48.4444008   5.5601358
  69.6565094  48.9698563   4.1457520  76.1110916  29.0991898  75.6949310
  75.8541031  30.0094128  75.8421860  76.2433624  28.7425594  76.5733109
  70.3869247  15.1408272  28.8756733  69.6194763  15.7098837  28.9341679
  70.7083130  15.2632055  27.9823837  26.6586571  60.8061714   5.6857457
  26.5960350  61.2645226   4.8477583  25.8206139  60.9771652   6.1154847
  65.0155182  29.7676601  26.5028687  64.8882065  29.5039997  27.4141903
  64.5846024  30.6198845  26.4376602  83.1372910  66.6128693   1.7923092
  82.7675858  67.3776321   2.2335403  83.7532196  66.2451859   2.4260874
  83.0493851   0.5145326  89.0820770  83.6694794   0.8449433  88.4320526
  83.5974884   0.0884346  89.7410583  71.6959229  48.2698555   8.9143000
  71.5438614  47.4596405   8.4278240  71.3972702  48.9626198   8.3251333
  61.4370155  35.1591339  60.7661591  61.3503036  35.1615448  59.8128967
  62.3813782  35.1813545  60.9208145  69.1970749  65.9485016  54.6084518
  68.7784576  65.6509399  53.8007050  68.4719696  66.2429504  55.1595955
  45.8847809   7.2364573  40.3378525  45.2220535   7.9237399  40.4061661
  45.8718033   6.8054256  41.1924171  29.7752514  59.1859207  48.3593369
  30.1845703  58.3263092  48.2605667  29.3625183  59.1569176  49.2224922
  66.0435944  13.5141363  29.7113018  66.4046783  13.9176407  28.9219742
  66.2099915  12.5781746  29.5994034  69.6648026  27.0649529  62.3645782
  69.8132935  26.1230030  62.4477386  70.0754776  27.4417820  63.1427689
  48.2023926  53.1919403  18.1577950  48.3044205  53.4895782  17.2537842
  48.8859062  53.6559029  18.6412983  54.7916451  69.3680725  45.8607063
  54.7583923  68.4119720  45.8291130  55.7261505  69.5752106  45.8651543
  49.2220345  42.0590935  52.2919807  48.4550095  41.9343491  52.8508568
  48.8765221  42.0250206  51.3999634  58.6862144  37.8222466  61.4174194
  58.9621429  38.7056656  61.1731606  58.9215660  37.7448616  62.3420029
  65.3223419  16.2820053   2.1507547  66.2578735  16.2684231   2.3527899
  65.0725327  17.2022247   2.2345943  35.8686905  53.0108795  84.8244171
  36.4371605  53.6336212  84.3713531  36.4570694  52.5277214  85.4045868
  37.5002289  34.7947578  14.0321188  37.0944786  35.3874931  14.6647835
  38.2236252  34.3912010  14.5117741  68.9291763  58.8400879  56.0330544
  68.1549759  58.2799950  55.9770813  68.6719742  59.6491356  55.5908852
  73.4019928   0.1909650  16.8235722  73.5124283   0.7057399  17.6229725
  72.6939926   0.6298074  16.3519974  79.7919159   8.1012526   7.7814779
  79.3769608   7.4409676   8.3365126  80.3878479   7.6034484   7.2217517
   4.6615596  71.4411087  73.5688248   5.5806432  71.4599075  73.3020554
   4.6536088  70.9071350  74.3632050  40.2213707  59.2167015  88.4043274
  39.5925827  59.8777542  88.1147308  40.3845100  59.4277878  89.3236008
  77.3268433  10.1147547  24.7837124  77.7928238  10.3331060  23.9766083
  76.4451904   9.8790569  24.4949818  66.7065811  16.2640324   5.9166026
  66.9684448  16.9713440   5.3272209  65.7687607  16.1555157   5.7586884
  47.5001907  40.0875740  61.1081161  47.4017639  41.0257759  60.9458694
  48.2919579  40.0185280  61.6415672  39.9824982  49.7161255  19.2628098
  40.5950890  49.4554977  19.9505863  39.1491394  49.8376083  19.7177696
  12.6285543  71.0972748  62.2727585  12.6277399  72.0523682  62.2093163
  12.0113277  70.9035721  62.9782677  71.2959366  28.3551712  43.1087837
  72.2031937  28.5165730  43.3677711  71.1392670  27.4402790  43.3425713
  31.3760910  16.7100048  69.5674210  30.7191067  16.3502827  68.9714279
  30.8813667  17.2872200  70.1490555  47.7867279   1.8018229  38.3309937
  48.5906487   2.1682320  37.9626389  47.4321251   1.2518492  37.6324120
  22.8940563  53.5120506   6.1862741  22.6930313  54.0433464   6.9566932
  23.0550842  54.1498184   5.4908943  65.3689117   6.3105831  43.3416710
  65.1721497   5.5501866  42.7945747  65.9932861   5.9842830  43.9896812
  46.9917564  70.8716736  51.4255486  47.7040329  71.0761490  52.0314217
  47.1884727  71.3857117  50.6424103  13.8934784  13.5581408   4.1844096
  12.9593973  13.3970261   4.0511174  14.0664530  13.2440290   5.0719032
  68.1942673  32.4822159  43.9557266  69.0231476  32.7477455  44.3540764
  67.6607590  32.1809387  44.6911392  15.2672377  57.7943764  83.3058548
  15.1708879  58.3740578  84.0614395  15.9676437  57.1911888  83.5545120
  61.2709351  70.3019485  29.7552357  60.9091988  69.4299011  29.9130650
  61.0375671  70.4974060  28.8477287  80.1575546  31.1390152  55.0550003
  80.4567184  30.2509117  54.8600464  79.4951172  31.0244427  55.7363815
  67.2230682  50.2745171  13.3338480  67.8509064  50.9819336  13.1868134
  66.7697372  50.1786842  12.4962692  55.6101532  23.7822399  68.6227646
  56.4017525  23.3031006  68.3777618  55.7881165  24.6866722  68.3647690
  85.7916641  35.8782997  86.0352783  86.1763077  36.6160545  86.5085602
  85.1159439  35.5421524  86.6240387  32.5822029  46.5256653  28.0405788
  31.9869289  47.2742043  28.0801697  33.3757973  46.8270988  28.4828205
   7.2267990  51.9341011  84.0888596   6.7705870  52.3663063  83.3668518
   7.4988861  51.0898476  83.7290878   1.4715574  28.3560524  16.8770885
   2.1774752  28.3135719  17.5221519   0.6844628  28.1187611  17.3674011
  51.7096634  28.3919430  82.4629593  50.9934616  27.8607922  82.1148682
  51.3891792  29.2921791  82.4073105  19.3309250  65.2220917  72.7171173
  20.0526257  64.7829056  72.2671204  18.7974815  64.5086517  73.0673599
  81.6115112  61.8603096  58.5027122  81.5333557  62.6799545  58.0145454
  82.5528488  61.7502365  58.6368256  32.0633278  62.3455124   9.9884176
  31.9955120  62.8583450  10.7937984  32.9134483  62.5876656   9.6211462
  23.1220551  26.3465271  55.1194763  22.3310585  26.0251980  55.5522614
  23.0500336  27.2998829  55.1659431  47.6169853  10.8991737  20.8127995
  47.5862923  11.7594872  20.3942871  46.8042488  10.8484402  21.3159084
  51.6642189  68.8592148  51.6644402  50.9749680  69.3077164  52.1543503
  52.4488525  68.9665909  52.2020760   6.4805059  18.3615112  62.7101860
   7.3129883  18.8075924  62.8657990   6.2262006  18.0227184  63.5685425
  43.8494568  28.7809868  69.1122284  44.6969528  28.3368626  69.1394043
  43.2440491  28.1212292  68.7739487  36.5437546  41.4688263   9.4921322
  36.4603348  41.3554001   8.5453434  37.3053207  40.9402199   9.7305069
   8.2069006  71.4266205  43.3601608   8.3069506  70.7846069  42.6572800
   7.3902674  71.1806793  43.7947350  56.6385040  15.9516783  19.7933521
  55.6937599  15.8050900  19.8402462  56.7368355  16.6893425  19.1913452
   8.7333031  11.7889652  83.4219894   9.6837492  11.7315741  83.5199280
   8.4188271  12.0517616  84.2870255  42.1239738   3.5366170  58.8868027
  41.7196465   4.2751279  59.3421593  42.6527710   3.1028028  59.5564384
   5.1990604  39.2163773  59.2597580   5.1216931  40.0250435  58.7534943
   4.5188274  38.6448250  58.9036102  37.2076492   6.4704442  86.5182877
  37.1926613   7.2858353  86.0171432  36.6027718   5.8923836  86.0533142
   4.2553506  24.7071743  78.8146744   5.1726418  24.4339066  78.8262253
   4.1035757  25.0734940  79.6858826  39.7265511  61.4170189  74.8746490
  40.0101357  60.7275620  75.4750290  40.0804901  62.2228317  75.2509766
  34.2551918  41.9434280  53.1812859  34.6934853  42.7924232  53.1235085
  34.8807335  41.3247871  52.8041801  25.1386395  55.0617790  30.7137814
  24.3230419  55.5572662  30.7881317  25.2728481  54.9614105  29.7713661
  60.8731270  32.4015388  57.4064369  60.8891029  33.3580093  57.3726730
  61.2086830  32.1261253  56.5533371  24.5000858  70.7762299  65.7568512
  24.8907299  70.1786270  65.1192780  24.0628681  71.4413300  65.2251434
  22.9783554  46.8576736  85.2361145  23.3803234  46.1016197  84.8082886
  22.0486431  46.6363106  85.2896652  34.2152176  48.9774742  82.2322006
  34.3051758  49.7597694  82.7763977  33.7874107  49.2885742  81.4344330
  56.8784294  12.5873880  52.0382614  56.3073883  13.3348761  52.2154694
  56.7662239  12.4166546  51.1031189  77.8733444  56.9488754  74.4092789
  77.3389816  56.8528976  73.6209412  77.8549194  57.8870316  74.5983658
  79.1884384  40.7470474  85.4464111  78.7371902  41.2966118  84.8056488
  79.9136124  40.3566132  84.9586411  27.1172028   7.1098256  69.1378326
  27.1245480   8.0473661  68.9449692  27.0363331   7.0618777  70.0904007
  47.5258598   1.1108584  62.1950836  47.1538620   1.0386604  63.0740776
  47.2947693   0.2856265  61.7686768  23.0780544  63.0338783   9.4184198
  23.3116760  63.2602348  10.3186512  22.3415470  63.6087608   9.2103348
  54.6001396  10.3510466  31.2478313  54.4147224  10.9893150  30.5590172
  55.0745049   9.6490145  30.8024578  42.5660477  52.7810745  14.7830887
  41.8756447  53.3338928  15.1491070  42.7854576  53.1935310  13.9476414
  30.7585239  63.2566833  15.0695915  31.0497723  63.9348755  15.6790657
  29.8052177  63.3416023  15.0544891  27.6703568  42.0990181  44.1729355
  27.6840706  41.3884087  44.8140907  28.5935478  42.2815018  43.9978638
  83.9305725  38.7266235  80.8486023  84.1243439  39.5457535  80.3928528
  84.4460449  38.7728119  81.6538239  67.4749222  57.9503136  47.6908073
  68.0215302  57.2281723  48.0005913  68.0057907  58.7329903  47.8385506
  83.7597504  62.9225235  84.2488251  83.8657074  63.6064606  83.5875931
  82.9314804  63.1326408  84.6801529  54.1924438  15.7965193  12.7841349
  55.0385132  16.0755310  13.1342106  53.6182594  15.7563705  13.5489435
  59.2637138   3.7429523  65.9871902  59.1110382   4.6746359  66.1449509
  59.5480042   3.4000082  66.8344193  37.5348587  36.7005272  75.4701462
  37.2961082  36.4920578  76.3733444  37.1913147  37.5827522  75.3291321
  66.9044647  68.3838120  76.0727921  65.9977493  68.6832809  76.0063782
  66.9356003  67.5930710  75.5342789  73.0455017  22.7393970  39.5289536
  72.9179459  21.8853493  39.9419479  73.3958740  23.2929802  40.2268219
  55.8114738  21.6293678  82.8450394  55.3766747  20.7771015  82.8737183
  55.6935654  21.9281864  81.9433594  20.7366257  18.7333698   9.3055563
  20.3409367  19.5160599   8.9220753  21.5123615  19.0570068   9.7635126
  65.8759308  22.9465218  47.0035744  66.4563599  23.2686939  47.6931686
  65.0697556  22.7079201  47.4611511  27.6538658  55.7996712  74.6942520
  27.8747444  56.2872200  75.4878159  28.0528469  54.9391594  74.8229828
  66.9494858  50.8547554  45.9014969  66.3828506  51.2141838  45.2188797
  66.3709946  50.7354012  46.6547127   0.5445710  69.1726379  49.1391144
  -0.1225346  69.1207352  49.8235893   1.3705156  69.0176544  49.5974007
  33.8110962  40.6887169  84.3274765  34.3617897  41.1153793  83.6710205
  34.3492279  39.9711533  84.6617661  55.3815384  23.7573204   4.8428178
  54.6866684  23.6132507   5.4851828  55.9868622  23.0280991   4.9771695
  82.5639114  69.1672516   2.6919332  83.4355164  69.5008316   2.9046831
  81.9687424  69.8719330   2.9477468  38.6136475  31.1062565  80.3472595
  39.5018578  30.9882126  80.0105438  38.6758957  30.8739929  81.2737656
  77.8748322  43.7583542  56.3860207  78.5405045  44.3089638  55.9737778
  78.3545074  42.9857941  56.6848373  19.4114304  60.1491699  24.8252716
  19.0136318  60.9862137  24.5857887  19.4561768  60.1700401  25.7811966
  75.8102722  55.7007675  16.3162708  75.4264755  54.9019089  16.6778736
  75.0609512  56.2023849  15.9951267  82.1944275  47.4515495  48.6963463
  82.4578552  47.3665314  49.6126480  81.6256714  46.6977463  48.5397148
   6.6776361  17.9156208  74.2633820   5.9532709  17.4955063  74.7270966
   6.9824781  18.5970402  74.8625259  53.4439468  48.3311043  31.5691299
  52.5569038  48.6574249  31.7204647  53.3176422  47.4705620  31.1694508
  27.8534355  46.1189461  61.1783829  27.4584026  45.3075905  60.8591957
  28.7822037  46.0340729  60.9629364  61.8422165   2.4493976  46.9685211
  61.3336830   1.9615806  47.6163330  62.7101479   2.0464745  46.9925385
   8.3531561   2.6591361  31.9086418   8.0203247   1.8285393  32.2485886
   9.2574329   2.4702146  31.6579971   8.6964817  19.8371716  58.8879280
   9.0825033  19.2007313  59.4897270   9.1568508  20.6549320  59.0764999
  69.3575058  13.6042490  55.3892632  68.4475021  13.3168688  55.4637146
  69.8698196  12.7991924  55.4643822  25.1347809  41.6682205  57.7203407
  25.0707684  42.0455551  56.8429871  24.7322521  42.3218651  58.2921410
   9.0685282  38.0489845  83.2650528   8.3394413  38.2975655  83.8332672
   8.9052954  37.1296501  83.0543137  26.0489540  56.2996941  61.6967659
  26.9761086  56.5198746  61.7869606  25.6250668  57.1309052  61.4831390
  80.9791107  56.6510315  63.6960754  80.6197586  56.8670235  62.8355827
  81.3265076  55.7648430  63.5949860  63.2999191  23.5834904  74.5769958
  62.3540611  23.5204525  74.7096863  63.4947205  22.9149609  73.9202194
  28.9864826  27.1518955  63.6623039  29.2541637  27.1017570  64.5799408
  29.6492348  26.6465607  63.1915283  29.6816864   3.4111154  51.7071228
  29.8350582   3.5082242  50.7672920  30.1718750   4.1303816  52.1053734
  36.7588882   9.7307768  78.0134048  35.8818741   9.6370440  77.6415176
  36.6604881  10.3964453  78.6941605  60.6384125  49.6810036  57.4547348
  60.6845932  48.7301521  57.3548279  59.9587402  49.9538612  56.8384361
  20.0507507   3.5929978  41.0875778  20.9226074   3.9880855  41.0893288
  19.5150051   4.1972528  40.5736885  22.8821373  51.0904999  70.6716843
  22.7307243  50.2946396  70.1618729  23.8191261  51.0753403  70.8667603
   2.1159687  51.8066177  60.5876274   2.1244693  52.7531395  60.7299576
   1.8518271  51.4398994  61.4314156  59.2742729  65.0731430  13.5948086
  58.8275261  65.9177475  13.5374136  58.7001724  64.4662781  13.1275177
  54.0460930  45.4225006  43.9090538  53.9383926  44.5052376  43.6575317
  54.5017548  45.3883018  44.7501450  54.2675781  57.3460732  53.5915222
  53.4303017  57.2890396  54.0518990  54.9149132  57.4682770  54.2859688
  73.7279816  22.9173412  58.0542717  72.8394012  22.6649704  58.3051796
  74.2757950  22.6185989  58.7801399  61.5836716  43.6659279  44.2812233
  61.9475479  44.4330025  44.7232895  62.3496246  43.1595116  44.0108719
  59.5938225   3.1543257  62.0378075  59.9837723   3.9504573  61.6767769
  60.1738777   2.9091427  62.7586746  79.3522949  52.0958748  81.9020081
  78.5194321  52.1105156  82.3735580  80.0164490  52.1788673  82.5862885
  30.1775665   9.2507286  66.8385468  30.1057320   9.9227982  67.5163345
  31.1165943   9.0776520  66.7714386  77.8312225  65.7631226  58.7518539
  78.0146713  65.0913544  59.4085960  78.3151627  66.5317841  59.0538292
  46.1185684  58.7153816  78.4671326  46.7815399  59.0893631  77.8867493
  46.2138329  59.2030945  79.2852325  30.1046467  68.0035934  28.7686119
  30.6716385  67.6589661  28.0786972  30.5699902  68.7717896  29.0996151
  59.9410858  16.2854252   8.1829262  59.6235237  16.4757442   7.3002234
  59.9630394  17.1375103   8.6184711  50.0354347  47.8266678  65.5882111
  50.0663681  47.7873154  64.6323242  49.9353180  46.9150429  65.8623428
   0.4541633   6.9921288  70.7370224   1.1586818   6.6794653  70.1694565
   0.8058845   7.7857580  71.1403503  27.3247929  52.6830788  35.5408516
  27.5346088  51.9800491  34.9260674  26.4405975  52.9577141  35.2979469
  19.4916611  40.9737740  68.6601868  19.9737301  41.1385841  69.4705429
  19.1055946  40.1065826  68.7833099  49.8409576  53.7973251  44.6777153
  50.6730576  53.8226891  44.2052803  49.2747917  53.2473030  44.1362724
  48.6320114  18.3395672  70.2984772  47.8979301  18.5179653  70.8862915
  48.5495682  17.4094925  70.0877686  80.8716507  45.1619377  48.0707855
  79.9153137  45.1865921  48.1029625  81.0813217  44.2481728  47.8776512
   2.9717116  31.3344116   3.1692426   2.3049204  31.1762791   2.5009499
   3.8031843  31.2512341   2.7023740   1.9203738  34.4240952  35.4348640
   2.4100549  33.8142586  34.8830109   1.0890377  33.9804001  35.6029358
  21.8440590  64.3917465  40.9589920  22.7780495  64.5539703  41.0915718
  21.5188580  65.1903915  40.5435028  56.3813057  12.9378271  57.6469803
  56.0268288  13.8147411  57.5000114  55.7905006  12.3571825  57.1673622
  43.8522263   7.3064809  71.1083679  44.7971497   7.3748417  70.9717026
  43.5420685   8.2119293  71.0943298  77.2570648  19.2255058   0.5506219
  76.8856659  20.1007996   0.4403623  76.4960251  18.6474228   0.6042654
  45.1361847  19.6285000   9.2598343  45.9528503  19.3798199   8.8268785
  45.3876610  19.7944698  10.1683750   5.7402325  32.6339722  23.3934975
   5.8792825  32.0073929  24.1036358   5.7242932  33.4873581  23.8267498
  67.1523743  10.1732273  52.1834450  66.7722855  10.4741821  53.0087891
  67.2034225  10.9608955  51.6419601  23.3920135   6.2267261  74.3229675
  24.1718349   6.6290126  73.9405136  23.5712490   5.2867579  74.2991638
  15.7829514  35.1598320  64.9909210  16.0811272  35.8361397  64.3826981
  15.6836967  35.6160774  65.8265152   1.4344810  34.6372986  83.1656570
   2.2241106  34.2320480  82.8072052   1.2814529  34.1756287  83.9900818
  62.4363060   9.1656008  21.0468445  62.3128395   8.6042023  21.8122330
  63.0785294   8.7010803  20.5101891  26.6096535  19.3842297  84.7404022
  25.9882278  20.1058846  84.6440887  27.1129627  19.6045551  85.5242157
  60.9793015  65.0994873  59.3084641  60.5933456  64.3485565  59.7594376
  60.4253960  65.2269440  58.5382843   9.3105135  61.5831642  83.8073120
   8.8733902  62.3042870  83.3543930  10.1829481  61.5477448  83.4150925
  84.4659958  67.0887985  43.6526108  84.6771622  66.1618576  43.7640724
  84.1894836  67.1633072  42.7392502  29.8837872  42.4133720  55.9145927
  29.4426861  42.7708664  56.6852188  30.2282982  43.1809921  55.4581909
  35.9685936  14.0419369  65.2743073  35.1533813  14.4524584  65.5626297
  36.2784271  14.5998125  64.5608597  26.6225967   9.7902250  84.9820175
  25.6657600   9.8124208  84.9678268  26.8627834  10.3069754  85.7511139
  65.3330078  65.2920990  40.6654549  66.2072830  64.9072952  40.6038208
  65.4842529  66.1793442  40.9912491  43.2207146  63.2987976  17.6640167
  43.2895775  62.9060020  16.7938442  43.3807602  64.2313461  17.5191975
  82.5479813  64.7169571  39.4841118  83.1639099  64.9311523  38.7834091
  81.7007141  64.6450653  39.0445633   6.8034873  65.2728806  10.6445427
   7.1457224  66.1660538  10.6079416   6.5615778  65.0718460   9.7404976
  66.5327911  48.2923164  64.9898300  66.8931427  48.2953453  64.1030579
  67.2532578  47.9850883  65.5400772  15.7131863  17.5578938   2.5226471
  15.4269390  17.8902264   1.6718537  16.5326729  17.0992985   2.3372660
  50.1747093   9.3659458  50.9674530  49.7072716   9.6926346  50.1986847
  49.6233215   8.6576796  51.2999611  14.1361866  43.2123451  13.4678926
  14.9923449  43.0174713  13.0867758  14.2658386  43.1137199  14.4111290
  73.7246399  68.4150085   7.5083199  73.6220779  69.2400894   7.9826188
  73.4670029  68.6215820   6.6098876  68.6782532  30.3043213  86.6205750
  69.5345001  29.9693165  86.3544235  68.5319748  31.0633373  86.0560150
  51.0700150  49.6252251  32.1039352  50.5694542  50.2413635  31.5691071
  50.4940414  49.4258690  32.8420029  81.0310135  66.4504395  79.8698959
  80.3521042  66.2241821  80.5056000  80.6077728  67.0731812  79.2788849
  73.7232285  44.1481133  70.6883926  73.9610977  43.2607002  70.4197769
  74.1770706  44.2759666  71.5214005  46.1414070  40.3592834  84.6201401
  45.9771500  41.1979218  84.1889343  45.4615822  39.7777367  84.2797394
  78.4662247  40.5847206  44.5551682  78.7448425  39.7424393  44.1957664
  77.6399384  40.7733994  44.1103325  76.7157211  30.9723377  23.8797188
  76.5982056  31.0976810  24.8213711  76.7166901  31.8587170  23.5183868
  86.6086655  21.2668533  20.9830513  85.7059479  21.4245987  20.7065639
  86.8566437  20.4555511  20.5397339  40.5092964   3.9403045  86.8948441
  39.6682129   3.5121424  86.7351913  40.7103882   4.3873105  86.0726700
  46.9609070  45.6102982  78.7293854  47.5564194  46.2921448  79.0403214
  46.1785278  45.7100449  79.2717514  20.9287338  37.9493523  68.8139954
  20.7518311  38.1343269  67.8916473  21.7062416  38.4691849  69.0176849
   5.1278210  65.2770767   2.2147164   4.2072091  65.3161240   1.9555234
   5.1044059  65.1274567   3.1598604  81.7734299  12.1986990  19.4709187
  82.6479416  12.2733612  19.0889645  81.2313766  11.8519068  18.7622986
  31.7974129  63.6276855  12.5855484  31.5546951  63.5739326  13.5099030
  31.0018215  63.9279060  12.1460781  25.2522526   3.3053248  17.4891872
  25.7953510   2.8042827  16.8807182  24.5961494   2.6794088  17.7957649
  19.6966763  15.8942814  74.9783249  18.7676868  16.0975151  75.0874481
  19.9891167  15.6339865  75.8517990  27.4374580   1.2375387   0.5573175
  26.9604568   2.0668559   0.5879071  28.3135223   1.4761578   0.2543284
  24.0029888  69.7400818  78.0468674  23.3796082  70.1485062  77.4461899
  24.8333416  70.1807480  77.8664322   4.1587224  54.7549591  38.4511795
   4.3785701  53.8324356  38.5809669   3.3229747  54.7386971  37.9848175
  75.8408279  41.8332787  81.8356781  75.5354996  42.1841812  82.6722641
  76.2725143  42.5733070  81.4087830  24.2680473   0.6747516   0.9595085
  23.6232662   1.2634740   1.3518037  25.0429058   1.2212574   0.8285169
  65.8334885  20.7077446  10.1380053  66.6780548  20.4886856  10.5316477
  66.0078430  21.4923210   9.6181278  68.7770615  44.3686295  26.7527695
  68.9089279  43.4206009  26.7434731  67.8754501  44.4879761  26.4543056
  24.7249241  49.9617462  27.3083382  25.3026981  49.2460251  27.5731945
  25.1923637  50.7555885  27.5682392  55.8219566  58.5377121  55.6512260
  55.3635178  58.7279434  56.4696846  56.6153793  58.0762329  55.9227867
  22.5545616  44.6406593  83.2712250  22.2103882  44.1824493  82.5045319
  21.9269009  45.3455200  83.4307556   0.8945584  32.1553192  49.8269920
   0.3759892  32.0783463  50.6278610   1.7829964  32.3369522  50.1334534
  79.7142715  52.4357071  68.3141098  80.3212128  52.8307610  67.6881790
  79.1312637  51.8995285  67.7766571  47.5730095  40.5564766  77.3182068
  47.6489410  41.5079117  77.3905487  47.6133194  40.3838158  76.3775711
  57.6329765  58.3871346  52.6651154  57.8584709  58.8900948  51.8825455
  56.8218536  57.9346962  52.4335670   1.7919673  16.7205811  54.2560730
   1.3923470  16.5118370  53.4117050   2.0481753  17.6396408  54.1791229
  37.4464607  63.1339989  66.1433029  37.0966072  62.7067451  65.3614502
  38.3593750  62.8490829  66.1837234  36.5880775  28.3766537   1.8936942
  36.9013672  27.5886841   2.3377514  35.6360016  28.2792912   1.8763428
  18.0177345  56.4573021  72.9063416  17.1129608  56.1903801  72.7439651
  17.9434147  57.2158279  73.4854355   6.7040730  36.8171005  15.2393913
   7.1973639  36.8356972  16.0594826   7.0276060  36.0404930  14.7828417
  55.9484749  53.2852058  34.2164688  56.2862473  53.3018494  35.1119347
  55.0900192  52.8685722  34.2919998  48.9154510  15.7939854  69.3269653
  48.2875290  15.1421766  69.6385574  49.5144577  15.3007336  68.7664948
  38.4246254  49.9449387  53.7500267  38.6712723  49.2189522  54.3230362
  38.7189255  50.7279625  54.2153168  74.2651825  22.4269638  83.7031555
  74.3427582  22.5965366  82.7642899  74.8240051  23.0873718  84.1128006
  83.0111008   8.0280161  -0.0428021  83.8332138   8.1968536   0.4174728
  82.4962387   8.8245153   0.0865546  19.2359486  66.9407425  42.0862885
  19.1510239  65.9882660  42.1287651  20.1410408  67.1123352  42.3462791
  49.3301353  10.0175648  53.5773163  49.4433403   9.1999712  54.0620422
  49.6912804   9.8338366  52.7101097  20.4221802  62.8908882  33.5293961
  21.0469265  63.3497009  32.9677773  19.5654469  63.2081299  33.2437477
  18.5739555   4.3860798  29.6885815  18.9923077   4.0870728  28.8812351
  18.7569160   5.3251200  29.7195740  18.0430622   9.7095327  76.7197571
  18.0666008   8.9078007  76.1973572  17.5353394   9.4745131  77.4964294
   9.0945911   1.3438026  19.6537685   9.1506872   1.8428020  18.8388557
   8.9644852   2.0066047  20.3320007  14.8980293  70.0810928  61.1740761
  14.1261997  70.4282990  61.6212425  14.6194363  69.9725876  60.2647667
  81.7298660  53.2286873  19.5353088  81.1688766  54.0026779  19.4856205
  82.1937408  53.2149544  18.6981335  48.9979668   1.0215932  71.2200317
  48.9719429   1.3294775  70.3140717  49.7389908   1.4857104  71.6095276
  32.0470390  22.6861725  71.0354462  32.6150131  22.0062542  70.6730194
  31.2736034  22.2133980  71.3428726  70.6366577  62.4486198  46.9455643
  71.1865845  61.7304726  46.6323891  70.9319687  62.6026573  47.8429489
  47.8376999  34.9454575  46.1947517  47.9665451  34.7031746  45.2777290
  46.8906288  34.8963356  46.3246689  76.8786621  15.9421549  53.0176888
  77.8296738  15.8852262  53.1102524  76.6275711  15.1129732  52.6107025
  15.6603308  63.0001259  48.1889763  15.4697914  63.4685822  47.3762779
  15.5005932  62.0801735  47.9782448  56.1919327   4.6734009  16.3930931
  55.5801430   4.0891237  15.9452486  55.6509438   5.1491766  17.0233307
  57.7703972  69.1076431  41.4702682  57.0933151  68.8505402  42.0961227
  58.5165672  69.3591461  42.0145187  56.6393204  37.5122719  23.8313751
  57.5798035  37.5019302  24.0091801  56.2326202  37.3595352  24.6843090
  62.4918404  52.6107903  69.3245697  62.6357880  53.3870964  69.8657303
  63.2773018  52.0793419  69.4543610  69.0132141  42.9952965  22.7731647
  69.1224976  42.4085197  23.5214825  68.2176056  42.6857414  22.3402576
  38.3581047  66.2243958  46.3512573  37.6267624  66.3268661  45.7422676
  37.9980164  66.4743042  47.2022057   4.5616565  29.6784801  62.8134499
   5.5173340  29.6823368  62.8672752   4.2723832  30.0008297  63.6670532
  48.0949554  29.3709126  37.2822609  48.8197403  28.7721138  37.1023750
  48.3695564  29.8515682  38.0631561  44.2822266  63.4396896   8.7420912
  44.3380013  63.1280251   7.8387718  44.4435463  64.3812180   8.6810007
  81.9808578  68.7740555  16.9932156  81.0368347  68.6749191  16.8698425
  82.3416748  67.9128571  16.7825470  76.7495956  10.3681698  19.8855801
  76.9929123  10.4820127  20.8043118  75.8716049  10.7440948  19.8219852
  22.9402046  45.6326714  21.5774879  23.7270317  45.1597404  21.8485451
  22.4379158  45.7443695  22.3846188  64.4593811   6.2716842  83.9469910
  63.5305710   6.3964663  84.1418533  64.9130707   6.5975690  84.7242889
  14.8544798  33.9944305  20.3738937  14.2425747  33.2593422  20.3357639
  14.5391951  34.5310402  21.1011333  12.7442198  16.7730064   1.1189048
  13.5157290  17.3388271   1.0896975  12.0311804  17.3233471   0.7949741
  41.6733131  36.3677063  20.1126518  41.1577454  36.2805862  19.3108864
  42.5186539  35.9733772  19.8978539  46.9129257  27.0336075  17.6483650
  46.3997726  26.2889347  17.9620037  46.7304115  27.0718193  16.7095032
  14.4864311  38.8995895  82.7789001  15.0635271  38.4611206  83.4041519
  14.6605320  39.8322563  82.9055939  41.9360580  26.8392963  79.1819611
  41.9746056  27.7542858  78.9034958  41.3381119  26.8414021  79.9294128
   0.7561864  68.4833755  35.8801346   0.3649271  69.3072739  36.1705551
   0.0716435  68.0637054  35.3590736  31.3707924  19.5584431  86.3841476
  31.8602238  19.7473679  85.5835266  31.2259312  20.4158516  86.7842712
  23.8461552  43.9784012  77.1364517  24.7969170  44.0722160  77.1954575
  23.6763096  43.0792503  77.4173737   0.6743029  49.5002403  58.1651649
   0.7368425  48.5721436  58.3909035   1.5683513  49.7509613  57.9326820
  71.0074921  35.1372223  82.9997787  71.2822723  34.2497482  83.2302399
  71.7225494  35.6960068  83.3042068  17.3955116  71.1964264  27.4093819
  16.5452747  71.2530289  26.9733505  17.2080517  71.3959122  28.3266029
  55.4470139  61.1654701  71.1300507  55.5886116  60.2467651  70.9016724
  54.5225105  61.2119560  71.3737030   7.6614470  56.5716171  58.7636909
   6.9932737  57.1649017  58.4204903   7.6606712  55.8324852  58.1554832
  38.9867210  45.1479530  83.0792618  39.0169792  45.7758942  82.3574524
  38.6114426  44.3567200  82.6928101  15.9028845  67.3141251  51.1113281
  15.1011877  67.8333969  51.0490875  16.0075283  66.9298477  50.2409172
  19.5519791  58.4930077  30.2884998  18.6435337  58.2763443  30.0786991
  19.9387035  58.7424011  29.4491673  37.8147926  41.3317375  17.4689751
  37.4028320  42.1859055  17.5990505  37.1225243  40.6998749  17.6632633
  48.1744843  68.3852234  46.2440453  47.9660568  67.4564285  46.3446465
  49.1235085  68.4316483  46.3599358  82.8544312  31.5955391  25.3937664
  82.7854843  30.7557087  25.8478203  82.3658752  32.2067223  25.9451294
  47.1406212  56.3413353  61.4824829  47.6683846  55.5860519  61.7418022
  47.7816353  57.0180779  61.2648697  78.2822952  34.9197578   3.4215295
  78.1328964  34.1949272   2.8144581  79.1428528  35.2616806   3.1791494
  26.0836582  14.5672617  87.0505676  25.1447639  14.4742689  86.8891296
  26.1780567  15.4474754  87.4146347  81.9484863   8.2006540   4.0734110
  81.8506088   7.6860113   4.8745322  82.6645813   8.8065662   4.2639608
  62.4521790  50.0479584  72.4522629  61.7871399  49.5424080  71.9849548
  63.0710793  50.3153725  71.7727890  83.9554062  30.4285030   8.5454350
  84.8424301  30.1218376   8.3573198  83.9049149  31.2873898   8.1259146
  73.3253784  10.4928436  67.8704300  73.6880493   9.6903486  68.2455292
  72.4971390  10.2197838  67.4758453  26.1133614  54.1221809  14.6881123
  26.0911064  53.6227226  13.8718557  25.1939526  54.3036957  14.8829823
  23.0880089  46.6930923  42.3161888  23.9300594  47.0333023  42.0138016
  22.4371796  47.2476120  41.8858910  47.1631088  58.7163811  39.6824646
  46.8911133  58.1185646  38.9861412  46.3427010  59.0278816  40.0647392
  21.7275085  50.7736511   9.6915627  21.8724632  49.8372765   9.5558462
  20.8314095  50.8317299  10.0230179  73.6648712  19.8397388  28.6602554
  73.0320892  20.5430794  28.8056145  73.4883270  19.2104206  29.3595581
  37.5431404  23.7592793  68.2302017  38.2966385  23.3785515  67.7790680
  37.0709190  24.2358475  67.5474701  34.1678810  28.3777561   8.3825092
  34.3062553  29.0188141   9.0797367  34.7244987  28.6803646   7.6649895
  61.8214836   9.5546293  40.3233986  62.7586517   9.4478369  40.1604767
  61.5351715   8.6994429  40.6441956  29.4587536  65.2805328  78.7997589
  29.8714523  65.3048172  77.9364395  29.4539795  64.3531952  79.0369415
  53.0620041   7.7432127  57.9205704  52.7337685   8.6417770  57.8877831
  53.9256325   7.7885761  57.5102997  31.0180893  57.1072197  69.1962128
  30.2408142  56.5772324  69.3728104  30.7124329  57.7885170  68.5973434
  55.9053535  10.9325237  60.7364922  55.4128799  10.5737076  59.9982834
  56.5225754  10.2398386  60.9719849  67.9114609  18.5139637  45.5673409
  67.9397202  19.2891083  46.1282158  68.0392532  18.8542633  44.6818466
  55.5740013  48.5564308  77.0512161  55.1904945  49.4287415  77.1419373
  56.4591675  48.7167892  76.7241135  43.0647964  60.8467178  81.4016495
  43.1483269  59.8952637  81.4647903  43.0178528  61.0211754  80.4616547
   1.6863983  30.1200542  10.9672480   1.7489856  30.9074917  11.5078554
   2.3910184  29.5551376  11.2844400  24.9321194  55.0962791   9.4751501
  24.0053768  54.9383278   9.2950544  25.3184299  55.2617340   8.6151381
  81.1000977  36.1003761  21.0207367  80.5545883  35.3421135  20.8117104
  81.8839798  35.9869461  20.4832535  19.3262081  43.1690788  54.2688713
  19.0527420  43.0193787  55.1738777  20.1209030  43.6974602  54.3430786
  53.0113602  49.6258354  51.0016594  53.1135864  50.5473709  51.2394600
  52.4132004  49.6362267  50.2544403  36.1392326  62.9863205  26.5813465
  36.6573906  63.3554192  25.8661480  36.7820129  62.7743416  27.2581978
   1.5727639  14.6512146   5.6766639   1.7824615  13.8886957   6.2159452
   0.7568540  14.4152966   5.2352281  53.4271851  21.2519341  76.5167160
  52.6568718  21.2337093  75.9488144  54.1698875  21.2556572  75.9128876
  80.8944321  19.5517044   8.9254560  81.6424713  20.0513363   9.2526255
  81.2854843  18.8209763   8.4465494   3.3071823  26.2447357  37.9142799
   3.9143956  25.8886337  38.5629044   3.0050807  27.0688629  38.2960892
  40.2404938  66.4184113  39.0711403  40.1005554  67.0021820  39.8167038
  40.9934883  66.7915039  38.6128464  72.4687195  47.9259109  16.5930138
  71.6560898  47.4929428  16.3314629  73.1331406  47.2387047  16.5428238
  79.2500229  25.9059029  49.8651924  78.8399506  26.0302696  49.0092697
  79.0657730  24.9935970  50.0887566  68.5662766   2.9516702  46.4089661
  69.2153397   2.3784833  46.8168907  67.8173676   2.9274912  47.0046005
  31.7160969  45.9434547  67.0876007  32.2234612  45.4366112  67.7215729
  30.9581451  46.2554359  67.5819778  32.5270271  67.2625504  82.0868149
  32.1373520  66.4078598  82.2709198  33.0908813  67.1103516  81.3284378
  79.8659973  64.4117203  38.1625557  79.6309128  65.3356705  38.0771904
  79.4371262  63.9858894  37.4202805  38.9547539  30.8698883  10.3989811
  38.4219398  31.3511620  11.0320015  39.5368729  30.3320255  10.9357090
  68.0313644  21.0989609  22.4495430  67.4230804  21.7973366  22.6913891
  68.7745132  21.5548134  22.0543633  67.8718109  65.1898193   9.7189960
  68.5894318  64.5786743   9.5523930  67.6940079  65.5884018   8.8670883
   8.0572643  71.3176880  86.7648315   8.4298782  72.1325607  86.4281082
   8.7693386  70.9166641  87.2631836  72.5001144   1.1420745  27.8970280
  73.4260712   1.0801793  27.6625042  72.4094696   0.5785263  28.6654224
   1.3610920  30.8726349  34.3140144   1.9856987  31.1098289  34.9994583
   0.5134227  31.1615009  34.6520157  38.4239693  24.6273232  88.7841721
  39.2721291  25.0605392  88.8799820  38.5424156  24.0294552  88.0460968
  62.9905396   2.4406126  78.6755753  63.8823128   2.7664206  78.5538254
  62.7301369   2.1261883  77.8097992  67.9429550  27.9694767  54.0464935
  67.9385300  27.2158279  54.6366005  67.0175629  28.1746120  53.9130363
  74.3516159  24.4538059  32.8573647  73.8536682  24.7742691  33.6094170
  75.2372971  24.3213406  33.1953888  76.0126190  68.1229935  47.1144371
  75.4269943  67.9586334  47.8535271  76.4341888  68.9565125  47.3236427
  79.1584091  41.8877945  19.6196480  79.8602066  41.3243828  19.2936478
  79.5542221  42.3662415  20.3481083  56.4861794  11.5802450  28.3813686
  55.8550911  12.0529442  27.8386745  57.0396004  11.1144161  27.7545033
  51.3280678  24.8223343  28.6335030  50.7099876  25.4953728  28.3484974
  52.1831856  25.2507458  28.5951366  34.4365082  38.3275223  57.1976929
  33.8176422  37.9034309  57.7921524  33.9049072  38.5909462  56.4465332
  78.9410400  49.0189171  21.5092335  78.7756271  48.0789261  21.5819092
  79.7385864  49.0818329  20.9836884  18.6393661  68.0421982  28.4747982
  18.1236305  67.2561188  28.6546097  18.5762596  68.1584015  27.5267754
  32.0402451  42.6061020  85.5123062  31.5717602  42.6960640  84.6824570
  32.5300941  41.7885551  85.4234085  57.1770134  68.2080460  53.9979248
  57.5096855  68.9617386  54.4852791  57.2000809  68.4858093  53.0822029
  53.4453964   3.8767974   6.2090383  53.7262573   3.2460752   5.5460615
  54.2368507   4.0609732   6.7149172  46.3436127  28.8153172  71.7639160
  47.2031174  28.8218155  71.3426819  46.3878365  28.0902176  72.3872223
  32.9135513  10.5429611  10.2881832  33.5230064   9.8076563  10.2239676
  32.1347122  10.1729183  10.7037668  82.0909805  44.2517014  81.7152176
  81.4292755  44.6568604  81.1546631  82.7118149  44.9562759  81.9005966
   1.9235625  53.8538437  36.6670303   1.4712237  53.3938637  37.3741646
   2.1831417  53.1618652  36.0587425  26.7514915  49.4168587  56.6464882
  26.2669621  50.2255592  56.4807701  26.2976723  48.7546387  56.1251984
  54.0904121  51.0192490  80.6407623  53.3212280  50.5149879  80.9059296
  53.8740120  51.3444633  79.7668991   4.5617242  56.6996422  87.1317444
   5.0904207  57.4788971  86.9600525   4.3485842  56.3586578  86.2631073
  24.1760674  49.6142578  74.6264725  24.3710308  50.1138725  75.4193192
  23.8298855  50.2629738  74.0136414  27.7739086  61.2021255  -0.0125460
  28.3349037  61.0296707   0.7436123  27.8865089  60.4352341  -0.5741782
  43.9519463  57.7568703   6.6848841  43.9302864  57.4329643   5.7844133
  43.2439842  57.2869377   7.1255512   7.2514567  34.9028435  77.7000580
   6.3202090  35.0907936  77.5830841   7.3669157  34.0265045  77.3327255
  18.1413593  33.2317238  66.4568176  18.4165478  32.9512939  65.5839691
  18.5369110  34.0964622  66.5663605  16.4982338  69.1157913  43.8066673
  17.2695255  69.4718094  44.2477951  16.5772800  68.1678925  43.9137611
  27.3610935  61.1273308  47.5556450  27.0274181  60.2836914  47.2504196
  28.3107967  61.0120201  47.5872536  82.3855057  43.9429474  61.3656044
  81.8955383  43.9007607  62.1868172  81.7787704  43.6046906  60.7070541
  83.2593384  45.6226768  29.5714321  83.3576050  44.7669182  29.1540012
  82.3212357  45.8065796  29.5228004   5.0065885  13.4827442  18.5796165
   5.6301823  14.1981754  18.4550362   4.4046407  13.5580406  17.8391972
   3.4788489  39.7961693  70.6096649   3.2405360  39.7847328  71.5366516
   3.1413257  38.9692612  70.2653732  65.1135635   5.2093554  22.0247498
  65.4390793   4.4290404  21.5759964  65.8981628   5.6244483  22.3829842
  74.3637085  38.8346519  45.3989067  74.6638031  39.0935707  46.2701912
  75.1351624  38.9329491  44.8408508   2.8396657  54.9830513  50.6003532
   2.1032000  54.4013367  50.7886543   3.1710961  54.6835327  49.7537880
  24.6810780  46.0604553  53.6016769  25.3263588  46.2345581  52.9164505
  24.2177582  45.2785797  53.3012772  43.3593445  51.1889153  62.8615799
  42.9394646  51.0281487  63.7066154  43.9725456  50.4614639  62.7565651
  54.3166428  69.4451981  74.8361969  54.2078629  70.3379135  75.1640091
  55.1791420  69.4459229  74.4210815  71.8115768  47.5578346  44.3413200
  71.3708191  46.7147293  44.2357712  71.3488083  48.1463547  43.7448997
  56.6214638  24.0952091  26.1374454  55.9646988  23.7084579  25.5583782
  56.7309952  24.9888096  25.8123112  20.6397114  55.3211555  72.9671326
  20.7436733  54.9282608  73.8337708  19.7271862  55.6091270  72.9426193
  83.6889954  44.9990082  32.2342720  84.4680481  44.4444504  32.2764816
  83.7348938  45.4112358  31.3716068   2.9402347  11.6823606  45.3705444
   2.3978167  11.2163830  46.0068474   2.4113648  11.7008305  44.5729294
  65.7638779  39.3893394  59.6603088  65.9087143  40.1208305  60.2604561
  65.6003723  39.8034897  58.8129730  75.7099228  42.1352768  71.1608887
  76.0287857  41.4686928  70.5524292  75.5015869  41.6505318  71.9595490
  57.1710968  16.2155972   0.1825528  57.4776230  16.6210232   0.9936650
  56.9648628  15.3138361   0.4285756  84.9997940  10.8429031  84.8530273
  85.8455200  11.0850573  84.4757462  84.8790283   9.9270887  84.6021729
  11.9917078  33.7756119   0.3612878  11.8536949  34.4888458   0.9845732
  11.9401712  32.9805641   0.8918306  17.8502026   0.3781477  66.9938354
  18.8008633   0.3215331  66.8975525  17.7202568   0.8081504  67.8390808
  51.0426979  51.0892067  34.7648392  50.8622475  50.4005165  35.4046669
  50.1935997  51.2699509  34.3616028  43.0561142  -0.3121723  60.7379951
  42.1013756  -0.2519806  60.7051697  43.3589706   0.5734663  60.5376053
  31.6366196  65.9817505  69.8495560  31.9797211  65.1116409  70.0530701
  32.4144287  66.5348282  69.7764206  69.9866409  19.4011669  40.0657463
  70.8417282  19.4056721  39.6355858  69.3641663  19.2279034  39.3595276
  81.5142059  61.6566238  38.8796005  81.3854370  61.2598152  38.0180931
  80.6991425  62.1286659  39.0501213  36.7101173  56.9996834  23.4588642
  36.0477066  56.4154663  23.8278236  37.5002441  56.8174591  23.9675121
  54.0883331   7.5713725   4.7559776  53.6439095   6.8291302   4.3463478
  54.3817825   7.2368393   5.6034479  49.5956993  64.6635818  77.5295486
  49.2461205  64.6423340  78.4203720  49.9994812  63.8039703  77.4101410
   8.3013191  60.1044922  40.3447227   9.2116394  59.9703903  40.6084747
   8.0692825  59.3061028  39.8704147   7.4020557   6.1747050  49.5799255
   7.7632570   5.6651483  48.8545837   7.3631039   5.5572877  50.3103409
  45.8014069  13.8791542  17.8101521  45.8226280  14.5504837  18.4921341
  45.1100388  13.2779617  18.0873032  60.2926559  69.6839142  12.4536886
  60.9632530  70.2038269  12.0107155  60.7860298  69.0477753  12.9715118
  76.2195129  20.6923866  34.4569511  76.6701050  20.4681568  33.6427498
  76.4936447  20.0161572  35.0764656  36.8901176  63.2204285  10.9951477
  36.6146851  63.8980293  10.3777132  36.0814247  62.7627907  11.2249765
  81.9004059  23.7757072   5.1735444  81.2307587  23.8148975   4.4907088
  81.4187851  23.5468998   5.9684796  63.5739746  62.3239250  14.7499590
  63.8476410  61.6541710  15.3766699  63.4892769  61.8548813  13.9198656
   1.6359100  13.9318733  20.6857376   1.1984477  14.3635378  19.9518967
   1.8408196  14.6421566  21.2938023  24.5918293   2.0494783  45.1110077
  24.3528709   2.1510491  44.1896973  25.5179367   1.8081640  45.0930443
  45.9185562  48.2449799  83.0310516  45.3889160  48.3232117  83.8245163
  45.3363686  48.5273438  82.3256683  59.8491783  13.7479734  76.5098953
  60.3355751  14.5193653  76.2190247  58.9941483  13.8306713  76.0876160
  68.9676971  69.5812531  82.4999695  68.1967926  69.5877762  83.0673294
  68.6270142  69.3508224  81.6356354  12.3880768  14.6553078  27.0214367
  13.0297632  14.3347797  27.6552601  12.9082413  14.8958721  26.2547626
  47.9383850  10.4773521  57.3592567  47.2621765  10.5586815  56.6866798
  47.5743332  10.9288473  58.1207390  59.2281265  49.6695786  61.2366600
  59.4871407  49.4901390  62.1405106  58.3476257  49.3015823  61.1622810
   7.9472260  46.1596642  79.9311676   8.2480860  45.2747765  79.7245483
   7.1280298  46.0287247  80.4086685   3.3047793  37.2264442  59.0663033
   2.4584055  37.3765411  59.4874382   3.8749638  36.9271660  59.7745094
  11.5070152  15.8022938  59.1210022  11.1865683  15.0114202  58.6873360
  11.3237495  16.5070763  58.4997711  72.5943604  23.5129013   3.9581649
  71.9428329  24.1534081   4.2436371  72.3290405  23.2818394   3.0679691
  72.3941498  66.5074081   3.5964217  72.9873734  65.9482727   4.0981030
  72.1165543  65.9623260   2.8601761  83.3791733  30.5544243  46.3857574
  83.6496048  30.8745728  47.2463417  84.0769119  30.8375149  45.7947807
  78.2823486  28.0737896  30.6039543  79.0180893  27.6347828  30.1771183
  77.5110168  27.5891914  30.3099384  52.1653214  40.4028358  44.5581284
  52.1207733  39.7472954  45.2542000  53.0060234  40.2409058  44.1300697
  85.9488678  32.9509888   6.5782208  86.0290451  33.8822403   6.7845659
  85.2312775  32.9066086   5.9462934  28.1709194  18.3827591   4.6687360
  27.3472404  18.7870731   4.3961258  27.9288769  17.4909496   4.9183779
  81.9021912  37.5453453  32.0227203  81.3707199  38.1661072  32.5211449
  82.7439728  37.5310402  32.4781609  26.8374920  55.5964775  67.4915390
  26.3847656  55.9862938  68.2394104  26.3240490  55.8702164  66.7314911
  15.7538500  69.5142975  64.2533722  16.2118340  68.8112488  63.7927170
  15.6958656  70.2227020  63.6122475  43.0877228  25.1918011  60.7297592
  42.9375458  24.6113262  59.9836159  44.0367699  25.3147469  60.7503586
  43.9092407  16.9638176  71.1255417  43.0009346  17.0849476  70.8488922
  43.8968124  17.1305199  72.0680313  12.9608526   1.0635465  42.8160172
  12.5518093   0.6318833  43.5660706  13.8937483   0.8697640  42.9075890
  66.8655014  13.9544945  67.8733749  66.3609238  14.6446905  67.4429474
  66.2043533  13.3762159  68.2537766  29.5507736  50.6315460  63.5636253
  30.1488132  50.4357033  62.8423576  29.9111900  51.4218979  63.9657211
  62.6591530  23.3901730  12.3162689  62.5455132  24.3405342  12.3276424
  63.6077194  23.2625103  12.3039160  70.3489380   4.5154028  25.3340378
  70.6313858   5.0978022  24.6288681  69.7659378   3.8876188  24.9071484
   7.1122608  43.5616608  33.3850288   6.9037728  43.4222031  32.4612770
   7.2127113  42.6798859  33.7436600   6.7044735  23.6897297  15.8627367
   7.0843773  22.8416138  16.0920963   5.7834840  23.4993114  15.6845474
   7.9179668  35.5500641  48.8508301   7.5158505  34.8274307  48.3688164
   7.2161517  35.8859482  49.4083862  13.3526535  65.7715454  78.0621872
  13.5090961  64.8446655  77.8815002  13.8272676  66.2336884  77.3712540
   5.5630975  29.4893990  45.4300385   5.4432325  28.7966328  44.7804718
   5.5131731  29.0386086  46.2729683  12.4977837  20.2135010  84.0751877
  12.8814507  19.3474369  83.9374771  12.3383570  20.5479279  83.1925964
  63.5617714  20.6643734  57.7487602  63.1815987  20.8795376  58.6004677
  64.3963242  21.1329193  57.7337303  66.5221329  46.6105042   1.5662080
  66.8289185  46.8194733   0.6839123  66.5334320  45.6540985   1.6034616
  15.6478958   4.0145049   7.5449696  15.0505533   4.3937216   6.9002924
  15.4016428   4.4283595   8.3722029  68.7826843  40.7760849  17.1660576
  69.2158127  41.6255264  17.0818920  68.7473755  40.6176605  18.1093960
  30.6204891  52.1258965  19.7049828  30.5460415  51.7269783  18.8380604
  30.8930740  51.4079628  20.2763882  37.3543663  24.7921295  80.5675201
  36.8727875  25.6181545  80.5228271  37.4228516  24.6051712  81.5037842
   6.8826952  63.6731682  51.8550072   6.1704302  64.2030563  51.4970551
   6.5163054  63.2846336  52.6493835  78.8522263  67.4922256  38.3685493
  78.3184357  67.3798828  37.5819893  78.2283859  67.4318314  39.0920143
  83.3368378  49.2661362  71.6607590  82.9472504  48.6057816  72.2338028
  82.6409454  49.9101791  71.5297394  21.0077343  66.6052475  14.3959103
  20.7052727  67.5005417  14.5481901  21.9484291  66.6931000  14.2422657
  33.6717491  53.2700958  11.3896360  34.0126991  53.0060654  10.5350761
  32.7844887  53.5800362  11.2081566  73.6671906  41.3461418  43.0351067
  73.9094696  41.0089951  43.8975830  74.1133652  42.1907959  42.9741364
   2.0969121  33.6795082  76.2909775   2.4256909  34.1462173  75.5226517
   1.2267892  34.0489388  76.4414368  15.2898846   5.7510405  28.9695263
  16.1903992   5.8251266  28.6535892  14.8266325   5.2939653  28.2675934
  38.1221695  42.8524132  67.1158371  37.3319893  42.9537392  67.6464767
  37.9294090  42.1142845  66.5376968  82.5134735  49.2837639  65.1775055
  83.1535263  48.6121368  64.9419556  81.7869949  49.1459694  64.5696640
  19.2841511  64.3983841  57.5703316  20.0466633  64.1533661  57.0461464
  19.0673809  65.2838593  57.2784767   0.9648525  62.6529541  86.8449249
   0.6848709  63.5537453  86.6823807   1.7706805  62.5573082  86.3372574
  83.6896210  66.8524094  88.2979889  83.5235443  66.6841812  89.2255402
  84.0242004  67.7488937  88.2733231  80.2617645   3.7253814  86.8456955
  80.7344437   3.9456141  86.0430145  80.3241501   4.5141039  87.3844528
   9.5949697  15.6225004  80.6244736  10.3138733  15.9000483  81.1922531
   9.1324968  14.9557343  81.1321869  39.1441917  63.0903473  44.2011032
  38.6347237  62.4735489  43.6755180  38.6952858  63.9282990  44.0890656
  36.1779289  55.4209175  14.0163193  36.8027153  56.0270653  14.4143839
  35.9203415  55.8455620  13.1980553  76.6260223  70.4128799  77.4886703
  76.5602646  70.5658264  76.5460587  77.5099564  70.7006073  77.7169113
   8.4712524  55.4106941  25.0419445   8.3589668  54.9393311  24.2164497
   8.3158655  54.7507515  25.7176380  37.0507584  32.5324326  59.6445732
  36.5198669  31.7925911  59.9395561  37.8761635  32.1378059  59.3631287
  39.3955460  54.8086853  47.1483650  39.9328003  55.1359520  46.4269142
  40.0187492  54.3830147  47.7371368  73.0194168  57.7835312  40.0000763
  73.6641846  58.0324059  40.6623192  73.5181046  57.7416077  39.1841202
  54.9328995  20.1687832  44.1123390  54.2629776  20.3889637  43.4650688
  55.7623711  20.3071518  43.6551018  36.8382149  42.8390274  62.5438957
  37.2530060  43.2839699  63.2829514  36.4014130  42.0821533  62.9345093
  10.1005850  18.5857983  60.6402397  10.4843311  19.1488857  61.3124771
  10.7116232  17.8529339  60.5642586  59.2999420  60.7745171  44.7690430
  60.2058105  60.4683647  44.8126984  59.2349892  61.2099800  43.9191093
  42.9006500  35.2020302  47.1384354  42.9590416  35.4810982  48.0521851
  42.2846375  35.8163795  46.7392693   7.6325788  69.4069519  37.0716095
   8.1592703  68.7129440  37.4680710   7.8579621  70.1927795  37.5695152
  83.7498322  47.7429428  19.5680180  84.5364304  47.6083832  20.0965996
  83.4770126  46.8608131  19.3157272  52.6120033  47.9489861  17.9922295
  52.1931763  48.6649780  18.4698982  53.2879753  47.6265259  18.5883160
  81.5066986  52.8621979  83.5229263  81.1683426  53.4645271  84.1854553
  82.2916870  53.2936783  83.1855164   3.3937206  69.5499649  80.7907028
   2.4389663  69.5367508  80.7236099   3.6924660  69.7806931  79.9110718
  47.2526474  64.9009094  74.7478638  46.3036613  64.8850174  74.6237717
  47.6004295  65.1780396  73.9002304  22.1629677  53.6142921  68.2148361
  21.9672279  53.3753357  69.1208267  22.3453560  52.7806168  67.7813110
   1.6278827  22.8949680  45.1303368   0.7851853  23.0641270  45.5516167
   1.8101023  21.9746494  45.3201752  20.9773102  41.0857048  71.1300430
  20.3391590  40.5725403  71.6256866  21.0198421  41.9239807  71.5901718
  45.9595108  61.4488869  55.0554314  45.3503075  60.7122726  55.0054245
  45.5984955  62.0995712  54.4533424  60.5348396  13.5736847   3.6526098
  60.9517479  13.6891260   4.5064797  61.1142120  14.0267258   3.0399816
  28.8548508  66.4455719  75.7955170  28.4656525  66.8120193  76.5895386
  28.8880062  67.1809387  75.1836624   3.4128084   7.2599010  33.4540939
   2.5096924   7.1634865  33.1519051   3.8528886   7.7317042  32.7470131
  33.7897987   2.8726697  37.9457474  33.9472237   3.5151937  38.6375618
  33.3452911   3.3665965  37.2567711  68.1586227  27.2459488  21.0862637
  68.3847275  26.3293343  21.2441444  68.9927750  27.6655540  20.8756580
  54.6398392  49.8100471  54.1575546  55.3025589  49.5953636  53.5010872
  54.4797554  50.7462883  54.0390053  54.8897362   9.2244673  66.2658997
  55.6930046   9.4890556  66.7142105  54.8946381   8.2682991  66.3100510
  75.4398880  13.0392981  34.0078888  75.4907608  13.7928438  34.5959473
  75.3669586  12.2843218  34.5917778   4.2622490  37.5990410  16.1159019
   4.5381403  38.4873924  16.3416100   5.0390921  37.1989937  15.7251225
  74.1635742  12.1190653  44.6075058  73.8572693  11.4220181  45.1876259
  75.1101685  11.9874697  44.5539932  19.5914478  32.2704277  28.4769077
  18.7959538  32.4014168  28.9929161  19.6674175  33.0646782  27.9481106
   6.8639483  22.4434090  51.2194519   6.3225021  22.6399899  51.9839287
   6.7774625  21.4974422  51.1015549  54.1590805   4.9859309  63.9105530
  54.0477486   4.0774236  64.1906433  54.9287758   4.9686046  63.3417778
  64.6223373  63.4602242  49.0922279  65.0951920  62.8330154  49.6392632
  63.8739433  62.9676666  48.7552948  12.8487062   1.7093657  40.0365524
  12.1282482   1.2047666  39.6589890  13.0367746   1.2733239  40.8676529
  57.9592209  17.5727234  25.3140182  57.5905190  17.6563835  26.1933880
  57.8217163  16.6540394  25.0830555  16.6626034  60.8899155  74.8997726
  16.4818096  61.2694931  74.0398560  16.3867931  59.9766808  74.8212585
   8.1478424  46.5735092  51.6614304   7.4019823  46.5568161  52.2611351
   7.8033853  46.9712296  50.8618050  86.2453079   0.5735991  29.9825974
  86.8576813   0.2792209  30.6568184  86.2235794  -0.1436687  29.3491268
  25.0120354   8.8895645   8.9099617  24.8447571   8.2137842   8.2530212
  24.2263546   9.4361572   8.8967361   9.3757715  10.0105219  80.6907043
   9.0004416   9.5234909  79.9571075   8.7109041   9.9592838  81.3774033
   0.9059076  17.5252953  36.2512665   1.0204649  17.5930080  37.1991692
   1.6766459  17.0438137  35.9506531  62.0494919  49.1486206  87.2971039
  62.2840691  48.2599373  87.0298080  62.1976814  49.1613083  88.2426758
  44.7787552  19.3412590  18.0100880  45.0564384  19.8201008  18.7910080
  45.4919052  18.7257652  17.8403339  54.8475189   3.7735953  10.6211386
  55.2497063   2.9503772  10.8982449  55.5313911   4.4303594  10.7523289
  84.8742599  16.0155106  86.4177170  85.1109314  15.8588886  85.5035553
  83.9552765  15.7540236  86.4753799  61.1647301  36.0389061  34.6750145
  62.0721016  35.7570267  34.5590286  61.1353302  36.3916550  35.5643616
  51.8582039  58.4380684  17.0970573  52.2071304  59.2644501  16.7630310
  50.9542160  58.4154587  16.7831650  64.2098236  42.5531769  26.7224388
  63.6590729  42.8358040  27.4525299  63.5903969  42.2518425  26.0578041
  81.7347870  63.2894020  44.5618706  82.4821625  62.7125282  44.4041252
  81.7622986  63.9193802  43.8417282  42.3621750  49.9132576  58.3229561
  41.9068489  49.0719681  58.2891159  42.1436157  50.2694168  59.1841278
  23.9578991  33.3928413  86.0538025  23.1779404  33.9437447  86.1201324
  24.6491108  33.9047203  86.4738464  79.2598419  23.2526550  74.8064880
  80.1755676  22.9752827  74.8338318  78.7706528  22.4960480  75.1297073
  12.3754988  23.2558460  12.2846241  13.2917137  23.2087440  12.0115595
  12.1769629  22.3776417  12.6095428   7.5108976  63.3793869  40.1047668
   7.7494278  63.1200905  39.2147675   8.0457687  64.1535873  40.2801590
  68.5410843  25.3915482  68.7876892  68.3827515  25.8470383  69.6145477
  67.6678848  25.1626911  68.4692841  23.0488873  45.9989929  33.5978241
  22.5351753  46.6892433  33.1784401  23.8591022  45.9610252  33.0895500
  53.2205544  45.8035889  77.9512100  52.2933693  45.7597046  78.1849518
  53.2394257  46.3125572  77.1407623  86.0792160  61.5299492   9.6468754
  86.4612808  61.4131126   8.7770452  85.2305069  61.0901642   9.5967245
  51.2106056  20.4078693  70.7804489  50.7029495  20.2162685  69.9919052
  52.1232948  20.3444614  70.4990158  48.8611374  33.4943123  76.4892349
  47.9693069  33.5202293  76.1425400  48.7580643  33.1977806  77.3934860
   1.6416651  25.4860039  23.3595810   1.2430882  25.0242290  22.6219273
   1.8929236  24.7920055  23.9690628   3.2722063  33.6234169  53.9439049
   2.8947201  34.5029869  53.9534912   2.8423405  33.1703720  54.6693001
   7.0380912  51.9679642  67.2703934   6.9015441  51.0241165  67.3524780
   7.7073531  52.1708832  67.9239502  19.2288380  54.0042534  81.7858200
  19.6048946  54.5095825  82.5065536  19.7409706  54.2624588  81.0194702
  75.4341125  40.2904205  10.8539734  74.6635208  40.7569962  10.5303535
  75.6695786  40.7478294  11.6611671  72.6844330  49.9189949  45.8495560
  73.5701141  50.0969238  45.5331116  72.2304535  49.5461922  45.0938072
   8.1001148  54.8355293  64.2322159   7.4219213  54.5040359  64.8207626
   7.6916504  54.8259239  63.3665924  35.2010155  50.6499062  45.8568001
  35.1651115  50.3288269  44.9557724  35.4724960  51.5641174  45.7746468
  53.4117584  48.8839836  38.0884056  54.0861549  49.1604958  37.4679527
  53.5612717  47.9454002  38.2021332  72.6401672  27.5054703  20.1315250
  73.5487137  27.5944386  20.4193897  72.6207275  27.9192390  19.2685947
  85.1424332  15.9339638  40.8769455  84.6011276  16.7081738  40.7226181
  84.6981964  15.4685106  41.5856323  56.2088242  67.7612610  85.9902878
  57.1290779  67.4981842  85.9776688  55.7345657  66.9884338  85.6836090
  67.3744965  61.2365341  47.8322372  66.7889023  61.7338333  47.2612610
  67.1347351  61.5098457  48.7177048  55.4828529  22.8176346  77.5628357
  55.7429428  23.4533482  76.8961639  54.6718903  22.4361744  77.2265930
  11.6249371  26.5940342  88.5750656  12.5064812  26.5819073  88.2022858
  11.3259792  25.6868649  88.5126114  67.5505600   1.2079515  40.7534142
  68.0805511   1.9350582  40.4268227  68.1882858   0.5815578  41.0957108
   4.3020358  21.1324425  82.4491119   4.7451377  20.5459671  81.8359680
   4.9148340  21.8573456  82.5724945  49.6882515  69.8808212  39.4363594
  50.6095238  69.7094879  39.6316338  49.3794479  70.4026260  40.1770287
  53.0138206  26.7862854  87.8523407  53.6700478  27.4146709  87.5511246
  52.8968773  26.1893139  87.1133041  70.7604904   4.4362912  65.6912613
  70.4175568   3.8725300  64.9978561  70.8413010   3.8595042  66.4508743
  61.1842079  47.9713020  35.6954041  61.6856384  48.6315651  35.2170181
  60.3222885  48.3686638  35.8196373  52.6287994  25.6615925  58.5728378
  52.8979530  24.8086491  58.2318420  51.6948967  25.5618496  58.7575111
  17.8158188  26.8039646   9.1888237  17.8489494  26.0556278   9.7847490
  17.0979233  26.6009712   8.5891123  53.4097595  45.9548225  12.3786898
  52.7800903  46.6711807  12.2975922  53.6262741  45.7228622  11.4756126
  11.4303284  43.5626717  32.8631020  11.8906593  42.9179039  32.3258858
  11.2875471  43.1194878  33.6994247  22.6047535  57.7792702   7.3946981
  23.5554409  57.6923866   7.4645433  22.4628639  58.1735878   6.5341096
  50.0457878  52.1546822   7.5814242  50.3850174  51.2780228   7.4008069
  49.4580956  52.0350838   8.3274441  32.5980682  52.2447281  15.4604731
  32.7197227  51.7743187  14.6357641  33.1921921  52.9927444  15.3994360
  22.8245430   5.1101947  25.3815022  23.6321793   4.6037993  25.4682045
  22.4913712   5.1846685  26.2757511  67.7208405  20.0093918  84.3184814
  67.7642975  19.1582718  84.7543030  67.3564529  19.8176746  83.4543686
  56.5036926   1.4510660  43.8082695  55.9775047   1.4390230  44.6077766
  57.1336594   0.7399735  43.9254112  77.2183533  67.5843887  87.2855606
  77.4937973  66.7719193  87.7101212  77.8658600  67.7251129  86.5947876
  47.7075615  68.0391693  83.5284424  47.4369164  68.9559326  83.4781494
  47.6717377  67.8297119  84.4617538  24.2828407  17.0055408  -0.0772242
  24.6279106  16.4070301   0.5853034  24.4039001  17.8766403   0.3006148
  50.8188820  17.2257156  28.8633976  51.4466515  17.4436722  29.5523338
  50.0035553  17.0443726  29.3309307  31.5818310  34.7384109  80.0470886
  31.3245125  35.1115646  80.8901672  30.8153515  34.8609543  79.4869843
  34.7232323  26.7878361  10.5380955  34.6610870  27.3368187   9.7564392
  35.6555862  26.7842445  10.7547455  85.3754196  43.0025749  31.4568081
  85.5446548  43.0579300  32.3973007  84.9806213  42.1391487  31.3349018
   1.3765453  46.9402733  25.1863441   2.0711517  46.6036568  25.7524223
   1.1870123  46.2197113  24.5854321  79.3069611  55.4157219  21.5861588
  80.0946503  55.1290054  22.0483017  78.6140289  54.8438148  21.9163113
  84.9934769  52.1194115  14.7344742  85.1052856  52.8475113  14.1232462
  85.8752823  51.7649841  14.8486624  86.5081940  20.4694996  88.0981369
  86.4903259  20.7394047  87.1799545  86.1863403  19.5680771  88.0891113
  44.6181984  66.1690369  67.3165665  44.9300766  66.4163818  66.4460526
  45.2409439  66.5762253  67.9187393  86.2449112  13.6099596  73.8149643
  86.7022247  13.5269909  72.9781723  85.3906326  13.2061386  73.6621170
  52.8876228   1.1532118  22.0527515  53.4823151   1.8896227  21.9103775
  52.0132523   1.5410562  22.0168724   6.3197408  14.8678055   6.2705164
   5.5951285  15.2139444   6.7914357   7.0776634  15.3866453   6.5399423
  65.9255142  15.4685955  27.4982319  65.6891556  15.5274372  28.4239235
  65.2809067  16.0170498  27.0511169  26.7775421  43.7786865   8.4819317
  27.4175034  43.2235222   8.0364275  26.3108406  44.2221107   7.7735558
   6.7955484  66.0927734  48.8234138   7.4324841  66.4122696  48.1842995
   7.2549896  65.3955994  49.2914886  66.8386536  47.1497345  86.0968170
  66.3827362  47.2230835  85.2583694  67.4137344  46.3918648  85.9912415
  11.0370016  13.8516331  24.4780140  11.5555363  13.2612333  25.0246239
  11.0507412  14.6860542  24.9468250  46.5815163  20.6667881  74.1264114
  47.4574471  20.8321323  73.7776489  46.1706009  20.0930347  73.4797363
  51.7942123  69.3660583  60.7768364  51.4526138  69.4929886  59.8917198
  52.3145676  68.5646591  60.7201004  73.4879684  21.3014050  33.6916466
  73.3096161  20.3672352  33.8000412  74.4306107  21.3836231  33.8362007
  28.2219334  42.6027794  64.5914307  28.1005173  41.6816406  64.8216400
  27.5590878  42.7716980  63.9218521  35.4133873  48.0245972  66.1930618
  35.0040779  48.2015419  65.3460770  34.7267342  48.2087250  66.8340302
  37.9754753   9.0188255  10.3643599  38.4517708   8.3425541   9.8826628
  38.4198647   9.0679617  11.2107258   8.4572268   7.9254971  64.9536667
   8.5041065   7.2847853  64.2440720   9.3476295   7.9614382  65.3031235
  29.6062546  59.7051430  36.6906052  30.1252918  60.4020157  36.2891083
  29.4032879  59.1110382  35.9680557  31.9127445  69.9560471   3.9561210
  32.2589073  69.5059204   3.1855435  32.0037842  69.3203125   4.6658964
  70.7682495  27.8833694  72.0433350  70.2031708  28.6559582  72.0474472
  71.1637268  27.8712425  72.9149323  68.1890945  41.4042549  81.4437943
  67.2548141  41.1968498  81.4623108  68.2488556  42.1921997  80.9036026
   3.7239981  14.9751635  51.4323578   3.5860388  14.6018009  52.3028717
   4.4015865  14.4244375  51.0401726  42.9723511  61.6729622  38.3182945
  43.0769691  61.6519356  39.2695274  43.2978134  60.8227158  38.0226898
   8.2899780  51.4046440  78.9541779   7.9914260  50.5985756  79.3753052
   8.8964977  51.1095772  78.2749863  49.4378395  31.3305073  69.3939514
  49.0193214  32.1824646  69.2704697  50.1162415  31.4897823  70.0501785
  35.2907829  46.0805054  10.8359165  34.4386826  46.2731895  10.4447269
  35.0985031  45.4506454  11.5305662  11.7397451  16.6262379  82.4785767
  12.6621380  16.6821785  82.7281647  11.6577921  17.2175732  81.7303543
  29.0182896  70.6217499  38.3842697  28.3056698  71.2002640  38.1127434
  29.7715454  70.9118652  37.8698082  61.2179604   8.2757797  72.0082474
  60.6326256   8.2489939  72.7651443  61.2875519   9.2056503  71.7920761
  65.3575668  37.2444954  55.4649506  64.5313873  37.3866501  55.0029526
  65.6249619  38.1177101  55.7516975  70.9468079  35.7921257  27.8161526
  70.0773315  35.8272514  27.4174004  70.9339752  34.9970779  28.3490410
  75.9985352  23.9184723   6.3014588  75.3748322  23.1981583   6.2099767
  76.7193909  23.5479069   6.8106575  50.3151283  13.3947353  19.2352657
  49.3613586  13.3223114  19.2714672  50.4755630  14.2647095  18.8697014
  58.3054085  64.9000015  62.3052368  58.1877480  65.8495865  62.3312454
  58.7300568  64.6884155  63.1365852  44.3961296  70.1033478  20.4810658
  45.0880203  69.9332199  21.1202621  43.7325897  70.5899124  20.9701462
  43.1871338   1.4604180  14.9496574  43.1650848   1.7356402  14.0331440
  43.9173393   0.8433294  14.9969273  47.9433899  21.9854012  16.2130909
  47.0740013  21.8758240  15.8278818  47.9628372  22.8967609  16.5051174
  63.2505989  18.5366669  84.4262161  64.1793213  18.7252388  84.5609131
  63.2229691  17.6015110  84.2238541  32.9499397  37.1276512  59.5898972
  32.9017029  36.1917343  59.7847557  32.0368881  37.4134216  59.5598946
  61.3232841  36.4727325  84.7258224  60.5998764  36.0733719  84.2426834
  60.9448471  37.2608643  85.1155167   2.5203817  54.7026138  31.0632591
   1.9402566  54.9405556  30.3400230   2.0228968  54.0587997  31.5674839
  78.8992767  60.5382614  48.0052719  78.8357544  60.8256950  47.0944595
  79.4633865  59.7655907  47.9737968  34.4575768   5.6890192  63.6722298
  34.4034615   5.0477409  62.9636650  33.8250084   6.3658829  63.4315109
  72.0665436  36.9176254   4.3189931  71.6668701  37.6221733   3.8089893
  72.9227905  36.7837639   3.9125919  68.4343262  24.6838741  80.4711761
  68.0745544  23.8311348  80.7153778  68.3484268  25.2155743  81.2624741
  32.9724808  22.1392822   3.5275936  32.4450989  22.0622196   4.3226795
  33.4703445  21.3225956   3.4903245   9.7876797  67.4655609  18.3476562
  10.0369759  68.3401566  18.6462650   9.4999428  67.0144577  19.1413460
  64.9549255  26.8139038  13.7027245  65.5267944  26.1280804  13.3579931
  65.5502777  27.4302101  14.1292839  80.5027084  27.4861660  12.5489225
  80.2059479  28.2496243  13.0441990  79.7036896  27.1232758  12.1666641
  82.0502548  20.2822456  66.4217300  81.3548965  20.8683243  66.7204285
  82.8546219  20.6693058  66.7672882  16.2414417  20.7790565  78.5730286
  15.6134529  20.4102955  77.9518356  15.8547916  21.6138153  78.8374329
  70.9921112   4.1899967  81.8057251  71.0380783   3.5548999  82.5204086
  71.6277695   3.8742628  81.1634827  58.7012749  18.8061867  68.4889374
  58.9052277  18.9465370  69.4135666  57.8206635  18.4310226  68.4921722
   4.9750996  60.0050125  81.6763916   4.9400892  60.9307632  81.4355774
   5.9099002  59.8094254  81.7406235  63.3921165  56.6377640  82.1325226
  64.2857742  56.7983589  81.8295059  63.2939415  57.2026825  82.8989792
  86.0434189  17.8862343  88.0317688  86.8413086  17.3933086  88.2231369
  85.5897522  17.3610535  87.3725204  69.8235626  55.9930344  86.1182938
  69.1308136  56.0532341  86.7761002  69.6975250  55.1338234  85.7156677
   3.4355013  18.7156105  11.0400515   2.9593174  18.0590744  10.5316801
   2.7517443  19.2726192  11.4121399   0.5155840   9.5880766  31.1011410
   1.4022195   9.8764925  31.3177643   0.4877726   8.6717882  31.3765945
  20.1712208  17.0943089  14.1434717  20.1550999  17.5272121  14.9970331
  20.6938133  16.3049603  14.2850857  34.1088295  13.1326542   4.8920369
  33.5765419  13.3285398   5.6630940  34.7313232  12.4705582   5.1926384
  19.4586487  63.0471725  54.3321571  20.3531685  63.2112465  54.0335846
  19.2570267  63.7883873  54.9032784   9.2070827  48.2854576  17.6761837
   9.9733801  48.8028450  17.9238358   8.9561996  47.8294144  18.4794960
   7.9173560   3.1958699  75.3777084   8.5157757   3.2472620  76.1230164
   8.4860086   3.2511177  74.6097183  23.8842564  19.2583179  86.1151123
  24.1696358  18.4475021  85.6939621  23.2985954  19.6662388  85.4772797
  82.8032532  24.0613289  75.0229492  82.2591324  24.3067818  75.7712250
  82.7835617  24.8283424  74.4506454  60.9155617  14.8470192  16.2068558
  60.5415993  15.2503471  16.9902554  61.7786140  14.5398273  16.4843483
  12.5135069  71.5202713  85.5397034  12.6162920  70.5847015  85.3653870
  13.1660242  71.9412842  84.9800568  71.9244308  12.6820679  78.3045425
  71.5682755  12.3617220  77.4758301  71.8720016  11.9300518  78.8944244
  85.3225250   9.3546772  70.0939713  85.9902115   8.8074961  70.5075150
  84.7604218   8.7356462  69.6280594  42.3180504  58.3932190  61.1239624
  41.7950096  58.2585335  60.3336945  42.9576416  57.6811714  61.1121101
  26.7803364  66.8404465  77.8040390  27.1298370  66.1471939  78.3639374
  26.0494633  67.2055206  78.3028107  53.0768204  52.5477638  19.0985718
  52.4460602  51.8744087  19.3534527  53.9279938  52.1142578  19.1602573
  75.7294235  53.0722961  26.6137486  75.7892914  52.1243057  26.4955673
  75.1586761  53.1832962  27.3741169  65.2061768  23.1396961   7.5826383
  65.7606354  22.9034367   6.8390083  65.3758087  24.0714722   7.7213836
  45.9721642  56.0588608  66.8576889  45.4319229  55.3841667  67.2689819
  45.9347839  56.7983704  67.4642868  21.6649666  32.3607979  66.1567841
  20.9992104  32.8587875  65.6824417  22.3125801  32.1313744  65.4903107
  50.9825325  68.3594818  45.5612984  51.6483841  68.4030838  46.2475739
  51.3922119  68.7763519  44.8032646  59.4275932  10.7639875  11.0300598
  59.9406242  11.1475439  11.7413378  58.7454338  11.4111023  10.8508091
  75.6018295  27.2685871   1.2468394  75.6409836  27.8734818   0.5060285
  76.4470215  27.3707371   1.6843917  49.4164276  42.5448761  62.9365120
  48.7132874  42.7404594  62.3171768  49.5047913  41.5922661  62.9055328
  15.1956234  35.9927673  52.2204895  15.8371592  35.4188271  51.8018494
  15.2633276  36.8180885  51.7403870   6.1544952  13.6467829  49.3315506
   6.2753711  12.8839216  49.8969383   6.7411385  13.4916182  48.5912781
  65.1148300  42.5498848  87.9574738  65.3424072  42.0154343  87.1966782
  64.8471603  43.3912277  87.5877075  11.9197512  36.6582527  20.0554428
  11.1894970  36.0404396  20.0198364  12.5049648  36.2991753  20.7223911
  64.2437744  17.3620605  42.4608955  63.6803398  16.8837109  41.8526573
  65.1101303  16.9730453  42.3412247  36.6513634  64.8150024   5.1192169
  36.6167564  65.7709656   5.1532903  36.7362328  64.5456543   6.0338101
  79.2824249  29.7027912   7.9953122  79.8793793  29.8145885   8.7351656
  79.7515488  29.1239491   7.3943973  50.6864891  38.3384895  54.9250946
  51.2617874  38.2984085  55.6890717  51.2820435  38.3253326  54.1758461
  65.8442764  26.0781384  76.8644714  66.7325897  26.1691074  77.2092361
  65.3725815  26.8334312  77.2155685  21.1505947  17.3290386  57.9717979
  20.9875832  17.6650047  57.0904427  21.3951836  18.1016445  58.4811974
  17.4125252  10.5282574  67.5925980  16.8589649  11.0731344  68.1519852
  17.2686310  10.8680477  66.7093887   6.5730424   1.8113923  49.7240410
   6.4084668   2.6989601  50.0424271   7.2347627   1.4617287  50.3207741
  47.0280914  39.7427673  25.2355556  47.2076721  40.6704712  25.3883419
  46.2255745  39.7369080  24.7138634  33.3223991  51.9870453  47.4218216
  34.0737038  52.1945343  47.9774475  33.7013779  51.5462151  46.6613770
  63.7483521  54.5988388  19.3256912  63.9002075  55.2426338  20.0175724
  63.8364906  53.7519569  19.7630138  62.8859177  53.9869881  71.8647766
  62.4548988  54.8394279  71.9264755  62.7784882  53.6008072  72.7340012
  50.4768753   2.3469090  56.2912216  49.6009941   2.5030785  55.9381294
  50.7549629   1.5249484  55.8871422  58.2216454   3.2414896  11.2857428
  58.6291466   3.9681950  11.7569904  58.2222061   3.5196290  10.3698444
  30.0030041   5.5706921  21.3536339  29.4158535   5.6959596  22.0991497
  30.6634026   4.9541464  21.6698284  77.1229553  68.7207794  69.2371292
  77.4084930  68.9878769  68.3634262  77.7789230  69.0917435  69.8273163
  73.8298950  46.2625427  46.1119766  73.2206879  46.5902328  45.4503708
  74.4856033  46.9546165  46.1975060  61.6682930  64.4693527   7.2532449
  62.2396889  65.0378418   6.7369552  61.2405128  63.9084396   6.6062379
  71.0590591  63.7423248  58.9206085  70.7142410  64.1513443  59.7143555
  70.3578491  63.8406143  58.2765045   7.6649666  59.4390106  84.9383011
   8.1107807  58.9971237  85.6609497   8.3337107  60.0071487  84.5558929
  19.3826027   2.6473606  -0.1037726  19.4850426   2.7076945   0.8460158
  18.4384594   2.7120512  -0.2474329  44.6921692  10.2113867  88.8234558
  44.0350761  10.4297523  89.4843445  44.2256279   9.6608114  88.1946106
   3.3552337   5.7694650  58.1672554   3.6383543   6.6053967  58.5377846
   4.1077604   5.4651999  57.6599503  58.4932365  18.6170120  33.1684074
  59.0920677  19.2746258  32.8146057  58.1810913  18.9949627  33.9905701
   3.6374223  53.4260254  86.7775421   2.7031052  53.4041595  86.5706482
   4.0639224  53.6086845  85.9403076  48.1891022  64.7601852  48.9993286
  47.6017227  65.3488464  48.5253105  48.9899254  65.2696381  49.1233139
  48.9372253  62.4007683  23.1399937  48.4853363  63.1926231  22.8484612
  49.7927361  62.7093620  23.4384995  74.9626007  66.2938690  63.4679604
  74.4038773  66.6328735  64.1673431  74.4349289  65.6147003  63.0478134
  36.6395035  70.5580063  70.9196396  35.9452324  71.1760788  70.6911697
  36.1940308  69.8688431  71.4124222   9.5302162  26.0507565  71.5631561
  10.4469671  26.1084270  71.8323593   9.5468569  26.2134380  70.6200256
  47.5367622   2.2146771  34.3762627  47.9498787   2.3810303  33.5289764
  46.9589844   2.9655631  34.5125618   9.3130255  19.1131992  24.6762733
   9.5403032  19.9839840  24.3502178  10.1426716  18.7489243  24.9848537
  49.2255898   4.2834311   9.3426943  49.3149948   5.1377726   8.9203920
  49.7703094   3.6980178   8.8165751  77.8967667  46.2202950  23.9304028
  77.9834518  46.8819008  24.6166916  76.9521713  46.1067734  23.8250942
  18.2378502  69.0621414  25.7950859  17.4184189  68.7601929  25.4031773
  17.9854889  69.8180161  26.3253593  69.7244797  70.9885025  41.5295525
  70.5631180  71.0746613  41.0762367  69.9180450  71.2212677  42.4376221
  24.7959118  60.5130005  81.1559448  23.8857536  60.5431480  81.4507904
  25.2618980  61.0937691  81.7574463  17.8239460  50.7500954  41.6535263
  18.4228935  50.8010330  40.9086113  18.1841564  50.0542641  42.2033386
  81.1255722  63.9161034  21.3090916  82.0743179  63.8105469  21.2386379
  80.9820251  64.1940155  22.2137394  61.8652725   5.3126969  46.8961983
  62.7383118   5.5723581  47.1904984  61.7878189   4.3948994  47.1567383
  81.5689621   2.9491417  61.8785667  80.6373215   3.1685300  61.8905907
  81.9562912   3.5122020  62.5487709  63.8117867  65.0786667  15.0990105
  63.8942909  64.1425781  14.9168911  62.9743576  65.3260574  14.7069054
  25.3248005  17.2865162  32.6029282  25.2737370  17.0939636  31.6666851
  26.2113152  17.6244373  32.7299500  25.7661362  62.0838432  83.0827637
  26.4860573  61.7727852  83.6315689  25.3262005  62.7451553  83.6169434
  39.7251053  69.3270798   1.7843524  39.7583199  69.4371948   0.8340876
  39.1582184  70.0360947   2.0879555  47.1398430  26.7296371  58.4897346
  47.6775970  26.2343998  57.8718414  46.5216293  27.2092381  57.9383469
  68.3669739  46.4905548   9.7113848  67.8241653  45.9343185   9.1526442
  68.5554581  45.9489403  10.4777756  82.7944031  26.9436607  76.4575729
  82.0311584  27.4873772  76.2624664  83.5332565  27.4260464  76.0865784
  50.1602097  40.7070656  21.8856792  50.0198212  41.2413025  22.6674156
  51.0834846  40.4581261  21.9283409  70.1947937  62.2953339   3.2070646
  70.7604828  62.4951019   2.4612002  70.0238953  61.3564034   3.1333401
  65.8449097  30.6892929   2.3445251  65.1515427  30.2821465   1.8251969
  66.5471420  30.8578396   1.7162759  12.8642826   9.3201923  55.8052864
  13.0739479  10.2092676  56.0913239  12.2783852   8.9825430  56.4827461
   8.5517960  46.7782402  20.3109875   9.0974522  45.9919510  20.2953739
   8.9242229  47.3143616  21.0110607  86.2427673   3.2162900  12.5862913
  86.4607773   2.8857610  13.4577589  86.6777725   4.0675216  12.5372496
  86.0910110   2.8182280  75.5094833  85.6167603   3.4625905  76.0349503
  85.4048309   2.3129523  75.0734863  38.4036980  55.7657166  60.4775505
  38.4225044  56.7184601  60.5678864  37.6399536  55.4920006  60.9854965
  50.5108261  62.4160652  73.1599503  50.2313499  63.1085281  72.5610962
  51.2744675  62.7803307  73.6076050  32.5195923  50.7460365  57.1140633
  31.7822285  50.2339897  57.4462318  33.0591545  50.9174690  57.8858871
  11.7797022  27.6626396  60.4230156  11.7519388  26.8447971  59.9264297
  11.5866652  27.4025917  61.3237610  24.8226662  63.8643188   3.9952719
  25.6077251  63.3177872   4.0301285  24.2760067  63.4557533   3.3241014
  14.5389042  14.6714201  62.8083458  14.6124992  14.4503460  61.8799400
  13.5967350  14.6891451  62.9763794  72.5949326  33.5916595  52.0845337
  72.2383194  32.7062302  52.1557884  72.1178360  34.0957756  52.7436867
  74.0643005  64.3727951  85.3069687  73.6552811  64.1062088  84.4836502
  74.8377380  63.8138847  85.3821640  83.5482712  61.8956451  78.9719925
  83.6504288  61.1390648  78.3945999  84.1734161  61.7424011  79.6804657
  71.7978973  48.9294090  71.3396759  71.6992493  49.1546707  72.2647400
  72.7362595  48.7760811  71.2292480  11.0794954  20.3879566  53.6527023
  11.6410379  19.9794922  52.9938736  10.6709213  21.1235390  53.1963959
  70.9526596  48.5534630  33.5552368  71.6021347  47.8548164  33.4757729
  70.1645737  48.1128426  33.8730431   5.2666287  61.9087296  16.5865669
   4.7437711  62.0308723  15.7941446   5.3172760  62.7812386  16.9769497
  14.4781742  11.4129238  87.5562363  13.9327307  11.8902273  88.1814575
  15.2860012  11.9237585  87.5043182  49.0036049  34.7762299   4.3780360
  48.4624214  33.9899750   4.4498739  49.7307129  34.6224594   4.9812770
  35.3380852  66.0708313  17.5581646  36.1430321  66.5282059  17.3150673
  34.7999115  66.7407990  17.9797668  64.0926971   8.1087809  44.9068413
  64.1906357   8.9236231  44.4142227  64.6930084   7.4973497  44.4802132
  71.9723969  49.7091904  48.8969116  71.9217682  49.2250481  48.0727310
  72.6224442  50.3925896  48.7337036  80.3947220   7.0676641  55.2933922
  79.5870972   7.0684724  54.7796097  80.1878967   6.5387278  56.0639000
  80.3949509   1.7465544  13.0420427  80.3237534   1.8033326  12.0891838
  81.3359070   1.7803644  13.2143497   6.4048371  50.0876541   9.6209955
   7.1308703  49.8434372  10.1949854   6.6928701  50.8988533   9.2023964
  75.2495346  23.8456459  24.3220348  74.3725662  23.6950932  24.6748791
  75.7634659  24.1385155  25.0745850  15.2856712  66.0374680  55.0426865
  16.2037868  66.2010651  55.2584000  14.8730459  65.8423615  55.8840561
  27.2554722  55.6869278  17.8586788  26.4215298  55.3480072  18.1841087
  27.9189930  55.1783905  18.3248997  45.8409081  43.1549377  56.4552765
  45.0683517  42.7669678  56.0443382  45.6244850  43.1898994  57.3870354
  15.4497814  41.4323425  17.8735600  15.1954021  42.2578621  17.4611988
  15.1495295  40.7578125  17.2643871  32.3340492  51.1348038  41.7807274
  33.2525368  51.3382454  41.9574432  32.3442307  50.2279968  41.4744072
  61.5708618  45.7226372  84.4807510  60.7654457  45.7421646  84.9976273
  61.5766449  46.5586586  84.0146332  83.2320709  60.7667122   4.0493503
  83.1797409  61.3687134   4.7916999  82.5734024  60.0978584   4.2364869
  10.1782112  34.6813622  19.0672569   9.5758677  33.9466248  19.1837692
  10.9853287  34.2805405  18.7445602  14.4285049  53.7926292  75.4893875
  15.0593081  53.0967712  75.6740570  14.3685532  53.8142891  74.5343170
  70.6295319  29.4315376   6.8460665  70.7056351  29.1485138   5.9348373
  71.3825912  30.0065804   6.9819460  41.7971382  22.4938660  66.4857483
  42.3611298  21.8488140  66.0590668  41.5205116  22.0700169  67.2981873
  14.4405270  13.1726570  16.9395161  14.3420439  12.2564631  17.1985950
  15.0444355  13.5404196  17.5847111  83.6789856  46.8883209  60.9851418
  83.5573730  46.0582695  60.5242195  84.4928360  46.7729225  61.4756165
  49.6507835  66.3336639  22.7013474  49.8837128  66.4255829  21.7774811
  49.8736115  65.4277344  22.9155464  75.8059387  49.8214035  51.6277580
  75.6377640  50.6800156  52.0160065  74.9364471  49.4739685  51.4289932
  78.7812729  40.8653259  69.5558395  78.6811752  41.8101807  69.4397964
  79.2150192  40.5703011  68.7551804  36.6958313  41.8600998   0.8182181
  35.9099960  41.7655640   1.3565139  37.2445488  41.1147957   1.0624757
  56.9889603  56.1194801   9.2127256  57.2683907  56.2830734   8.3119545
  57.2483940  55.2140312   9.3832808   5.5775213  59.4204407   6.3211927
   6.3541698  58.9983215   5.9539523   5.6357112  60.3286667   6.0245924
  61.3874016   3.7509568  37.6135330  62.1834068   4.1133466  37.2245865
  60.9817505   4.4921336  38.0633507  35.8643494  62.8068390  80.3531570
  35.3670006  63.2696877  79.6788864  36.7461357  63.1747246  80.2952957
  70.1055145   8.4239178  22.6439323  70.9381104   8.8472958  22.4347363
  69.4942398   9.1489000  22.7742310  29.1274815  32.8089600  67.1436996
  29.5513630  32.7627869  68.0006866  28.2186413  32.5603485  67.3123169
  30.0823441  49.5883942   8.6245508  30.2975769  48.7818108   8.1562252
  29.9564857  50.2397118   7.9344954  79.9356155  48.3333969  29.1958580
  79.7104797  48.4604187  30.1174946  80.3187943  49.1679115  28.9256897
  62.3226051   7.4010329  63.7584686  63.0795670   7.4273734  63.1731949
  62.2718887   8.2840986  64.1243286  66.1547318  25.8391800   7.3309584
  66.8646317  26.0840759   6.7374072  66.5986710  25.5304241   8.1207809
  63.6278572  14.1573811  36.9788513  64.4855194  14.2895041  37.3828278
  63.7751045  13.4778633  36.3209724  37.6471443  47.4657402  59.7780266
  37.7656631  47.3101845  60.7150383  37.4220085  46.6073227  59.4193268
  85.6230469   9.2837229  10.7855215  85.6445694  10.1718454  11.1419020
  84.6933212   9.0571575  10.7629728  20.7522049  22.6812115  72.1681442
  19.8780975  22.9258537  72.4719849  20.6481495  22.5412159  71.2269669
  58.3123703  50.6279755  73.4948425  58.1076393  50.9026794  72.6010590
  59.1998253  50.9524231  73.6477814  45.2699890  14.6675806  75.0847549
  45.4412537  15.0944757  75.9242020  44.3204193  14.5484037  75.0659866
   3.5778487  69.6227112  76.5186157   3.7713020  68.9019394  75.9192047
   4.1027684  69.4346542  77.2966385   4.9649782  60.9333115  24.4536762
   4.9203520  60.0184669  24.1756554   4.8846974  60.8981590  25.4068565
  86.2056503  10.2691307  21.0526714  86.7976151   9.8179016  21.6545067
  85.4064941  10.4070129  21.5611629  48.7655373  65.5786819  88.7357483
  48.9230080  65.8036194  89.6527252  47.9735489  66.0632095  88.5028839
  16.5414009  36.1157188  86.8700943  17.4176807  35.8546181  86.5869141
  16.6011162  36.1591148  87.8244476  53.7930069  12.0951777  33.3003807
  54.2179565  11.5572691  32.6323204  52.8806992  12.1531734  33.0165482
  64.9690933  56.7328987  38.9851685  65.4002151  56.6786079  38.1322823
  64.3243332  57.4330254  38.8834877  44.0087700  20.5470505  87.1100693
  44.5719948  19.8236637  86.8348923  43.2489166  20.1213360  87.5070801
  21.6467724  44.1259689  42.1475983  22.0476952  44.9446259  42.4396553
  22.3560810  43.6543312  41.7109413  35.7363892  55.8036652  11.0952501
  36.4415550  55.4036789  10.5863428  34.9443245  55.6256905  10.5881119
  66.9151306  58.4958305   9.5498924  67.1606369  59.1805534   8.9277039
  66.5796585  57.7849617   9.0036783  37.4608383  47.5919838  13.8549862
  38.2527466  47.0557175  13.8941259  37.6745567  48.2899055  13.2357426
  49.9960022  34.8370781  87.0761642  50.6415787  35.5227699  87.2473221
  49.5402412  34.7236404  87.9102173  17.8991241  46.2641411  88.1416626
  17.3779602  45.4653625  88.2227478  17.9082718  46.4498711  87.2026978
  75.2925034  48.9146690  59.5889969  76.1967545  48.7013893  59.3586197
  75.3607101  49.7128029  60.1129837  23.4624653  33.9982605  70.7209930
  23.2728062  34.7011185  70.0995026  22.6876774  33.9587898  71.2816849
  36.8970757  13.8005295  75.4171677  36.7613106  12.9027309  75.1142502
  36.2246437  13.9320536  76.0855789  61.8860474  55.9020767  14.1547718
  62.2626648  56.4097366  13.4359722  62.6002960  55.8142776  14.7859421
  11.1011276  51.8437538  82.5051346  11.8732405  52.3733139  82.7042313
  10.5012941  52.4492111  82.0694122  38.4619293  22.1403179  78.6762772
  37.5807571  22.4474068  78.8894958  38.4181671  21.1906605  78.7879257
  49.4614258   1.7703528  74.5954819  50.1914215   1.1563885  74.5155563
  49.8772621   2.6304684  74.6547623  50.3054276  17.2273407  88.8589783
  49.4898224  17.6891022  88.6645660  50.4546509  16.6721821  88.0936279
  46.0265121  54.9521065  22.0632973  46.4663620  54.1377182  22.3072968
  46.6444244  55.6408081  22.3084621  85.5727997  45.8560486  85.6596222
  85.6446381  45.2043037  86.3569794  86.3225861  46.4354362  85.7951279
  10.3922405   6.2517314  22.3963890  11.0055103   6.9846711  22.4505367
   9.5730429   6.6464605  22.0974998  42.8897057  37.9541283  63.6305809
  43.4805145  38.6832352  63.8192101  43.1713181  37.6331253  62.7739105
  40.1156921  39.8304367  42.2817726  40.9776955  39.4995308  42.5341225
  39.7324181  40.1482811  43.0992737  41.5995483  11.4165764  67.4336319
  41.4583588  11.3730755  66.4878998  41.5033264  12.3445492  67.6477280
  73.6576996  52.4482384   2.7001264  73.4676437  53.3839111   2.6320698
  72.8953018  52.0808907   3.1473856   1.2307621  37.5599670  60.6003113
   0.3253520  37.8322334  60.4508591   1.2619090  37.3314400  61.5293083
  14.8601189  56.8706818  44.4231071  15.0743666  56.7623711  45.3497124
  15.2276049  56.0946846  44.0000114  43.5851212  38.5491142  83.9577637
  42.7888031  38.5972252  83.4288101  44.0696678  37.8079338  83.5943146
   2.1827836  38.0590134   1.4011575   2.0145488  38.9944725   1.5145036
   1.3688080  37.7117500   1.0363507  35.7555313  41.0541954  87.2187729
  35.9392471  41.4813614  88.0554428  35.4286461  40.1872520  87.4591599
  46.6829033  46.9180756  21.2651577  46.1218681  46.6263733  20.5465622
  46.0783424  47.0860672  21.9880104  61.0441589   2.2417543  54.6312866
  61.3475647   1.5297867  54.0680122  60.4008369   2.7103376  54.0994987
  65.9766693  49.1168823  77.0169067  65.5428467  49.8829155  76.6410980
  65.9645004  48.4663086  76.3148804  63.0658112  41.7466354  61.4998474
  63.6956978  41.1605339  61.9193230  63.4886169  42.0063515  60.6813011
   9.3422394  25.9458580  77.9324799   9.9389811  25.4595947  78.5014114
   9.0400400  26.6769638  78.4713593  27.8919525  39.0349197   5.4583783
  28.4975147  39.7729683   5.3890305  28.4548206  38.2608833   5.4416065
   8.6453733  49.8645859  11.2219238   8.4894762  50.1667480  12.1167002
   8.8311348  48.9300728  11.3136473  70.3089371   3.0308151  44.0359268
  69.7897568   2.9101779  44.8309898  70.5539551   2.1436584  43.7729607
   6.5648479  61.0866280  38.1071472   7.2428918  60.9380035  38.7662354
   5.7919588  60.6409569  38.4539223  42.7411194  16.4303532   7.5752478
  43.2661438  16.8192921   6.8757424  41.8349190  16.5687256   7.2997713
  25.7341366  50.7363777  60.3774529  25.6389866  51.6840897  60.2824707
  26.4035473  50.4974251  59.7363434  43.7290611   4.7222953  88.2200394
  43.5160866   3.8527515  88.5588150  42.9047012   5.2064342  88.2677155
  18.9216022  17.3777390  23.5981503  19.7791138  17.3350239  24.0213299
  18.3654785  17.8343582  24.2293873  86.8548737  28.3319740  62.2071991
  86.4408264  28.1716785  63.0551987  86.5995560  29.2263985  61.9812546
   1.3837905  19.8135796  18.4929676   1.8165846  19.5167999  17.6924400
   2.1013262  19.9956379  19.0997849  19.2140465  37.7124710  70.7909012
  19.8103104  37.7200623  70.0421371  19.7115040  38.1243286  71.4974060
  13.4009552  29.8734951  74.6964035  13.8903322  29.1294937  75.0474014
  13.2320032  29.6398926  73.7836456   1.3264416  56.1627960  14.2605381
   2.1224103  55.7202263  13.9659252   1.5727118  56.5712929  15.0904255
  26.3715820  63.9473419  79.0321808  25.4769936  64.2051697  78.8097687
  26.5157948  63.1369934  78.5435333  67.6306915  37.5052147  86.5704727
  67.2361526  37.1483421  85.7747269  66.9555664  37.3994522  87.2407455
  11.7853956  21.0341091  66.0733490  11.1878414  20.3384018  66.3474808
  11.2111931  21.7553520  65.8157959  10.0802717  58.0403366  23.5681438
  10.6006718  57.4995232  22.9740582   9.1760302  57.7705269  23.4075756
   7.6248631  35.0130806  59.2925377   7.5656991  34.3807678  60.0087166
   8.0459375  34.5305214  58.5811539  62.9220963   5.2939568  24.0906143
  63.4105072   5.0413151  24.8741035  63.5292587   5.1343551  23.3680401
  50.7778931  36.4040298  26.2202053  50.2088699  37.1737289  26.2174282
  50.3713379  35.8033638  25.5955887  63.6424789  10.6769743  27.3427200
  62.7229576  10.7031393  27.0780983  63.8429565  11.5764875  27.6014004
  65.3672562  42.9323196  12.6089230  64.4121780  42.9960938  12.6079845
  65.6678314  43.8376274  12.5295191  67.2734299  35.8365898  58.1618118
  66.4974670  35.2761574  58.1559486  67.8413773  35.4523201  58.8296471
  72.1605148   4.2980165  52.5653076  72.4091949   3.6651967  51.8915634
  72.9667740   4.7793388  52.7510872  83.5743637  44.4474411  84.7682266
  83.4690170  44.3967476  83.8181992  84.3438721  45.0025215  84.8946075
  54.5511971  34.2185707  81.0168762  55.4043922  34.0551186  80.6149216
  54.6804619  34.0169220  81.9436188  57.4499741   4.3126969  21.3445358
  57.8297348   5.0182233  21.8682213  58.2045288   3.8695726  20.9565659
  74.7488556  45.8335457   2.8121569  75.1970444  45.8664970   1.9670101
  74.1710129  46.5966339   2.8067410  43.7618446  66.5618591  46.8941040
  43.9100876  66.7325134  47.8242264  42.9868393  66.0004272  46.8741493
  20.6329651   0.1145339  79.8367844  21.0471191   0.4612331  79.0465240
  19.7406902   0.4600874  79.8108673  58.6446838  18.7442608  41.0807228
  58.7423668  18.2818584  40.2483330  59.4837456  18.6192017  41.5240860
   4.3651752  49.4874763  31.0542126   3.5679362  49.6969299  30.5676212
   4.8987813  50.2797127  30.9921207  56.8532181  71.8494720  71.3327789
  57.7730026  71.6359787  71.1757660  56.3669357  71.1543198  70.8894577
   8.4594793  32.9659805  51.9529495   8.3358097  32.0176201  51.9923096
   8.6817398  33.1407890  51.0384712  62.1660309  21.2968216  18.9589252
  61.8206100  21.9933395  19.5172958  61.5315094  20.5851631  19.0435333
   8.3241234  52.4189148  38.8784561   8.8112164  52.7528915  38.1251755
   8.0535336  51.5386124  38.6175385  78.0996399  43.9275436  38.7235527
  78.4776764  43.4633293  39.4704285  78.3002625  44.8489647  38.8877487
  86.1539078  49.6779251  75.0102081  86.5548096  48.9590340  75.4987869
  86.8950729  50.1857338  74.6800003  79.0701981   1.6677082  28.6024570
  79.6030121   2.4506171  28.7417221  78.5781021   1.8520867  27.8024063
  60.7662888  51.7725945  73.7670746  61.3335419  52.5106659  73.9900208
  61.3496895  51.1403847  73.3473206  13.5686102  68.0212021  42.1331024
  14.4099302  67.5750809  42.0361977  13.2958984  67.8260574  43.0296402
  58.3285675  29.9965248  18.4574051  58.4287148  30.3639431  19.3355885
  57.8876190  29.1585236  18.5972366  59.5047073  51.9410019  34.9525337
  59.0051193  51.5070381  34.2609291  59.0058556  51.7703667  35.7514458
   1.4458919  28.5446014  51.2319908   1.1954155  28.9836102  50.4191132
   2.3585784  28.7981129  51.3697090  83.5288467  48.3730049  45.0092087
  82.8256454  48.9971619  45.1885490  83.0868301  47.6208839  44.6152954
  66.7073517  21.5171471   1.1652626  66.1420822  21.9327259   0.5141125
  66.5035019  20.5842609   1.0989245  78.9931412  48.8321533  31.8396320
  79.3262787  49.4699402  32.4708862  78.0444260  48.8428154  31.9663429
  25.5644073  39.1556664  75.4467316  26.2330379  38.6031723  75.8515930
  26.0602493  39.8118095  74.9569855  71.5552444  65.6864548  71.1675949
  71.5333633  66.1726074  70.3433304  72.4622498  65.3911667  71.2474899
  67.3602448  28.3310318  14.1404171  67.6416779  29.0601902  14.6930046
  68.1447220  28.0855026  13.6499729   5.1952224   3.4812381  70.0798111
   4.9946671   3.5268571  71.0146484   5.8534198   2.7898145  70.0095139
  78.7217865   6.4027023  41.2156792  79.5689011   6.8360791  41.3196716
  78.7869186   5.6163454  41.7575569  67.5730972  37.7011108  41.7220497
  66.7960510  38.0329895  42.1718254  68.0888901  37.2833061  42.4117088
  53.5758324   6.2445140  60.7155113  53.3230438   6.5734310  59.8528748
  53.8613052   7.0226412  61.1943169  63.3583221  66.4919434  47.8780975
  63.7304726  66.4436035  46.9975319  63.9982185  66.0464630  48.4333534
  33.1783295  55.3110695   1.2551391  33.1144295  55.2260056   0.3038701
  32.2815170  55.4852791   1.5408077  80.0927277  55.1113205   2.8374279
  80.7235336  55.6294250   2.3375471  80.3414688  54.2026405   2.6681488
  25.2374325  60.5902519  65.2433777  25.2710342  61.2592697  65.9271317
  24.5437050  60.8852692  64.6535110  67.3270187   4.2152457  27.1284428
  68.2438278   3.9692955  27.2517014  66.8875046   3.9060144  27.9205513
  62.5647736  68.1915588   2.3544118  63.3523331  67.7873917   2.7185946
  61.8659477  67.9418411   2.9589891  59.3766251  24.9832096  83.9301147
  58.6978531  24.6622066  83.3364334  60.1668167  24.5106525  83.6683426
  23.1276779   1.8208804  80.7729721  22.3115730   2.3137572  80.8582611
  23.1689587   1.5844377  79.8463516  30.6645088  12.1345501  76.4420242
  31.2749977  11.5882416  75.9469681  31.0631523  13.0047712  76.4364090
  75.0388641   3.3643720  40.6151085  75.0005646   2.5253167  40.1560326
  74.3728638   3.2938299  41.2989960  84.2863922  53.5311966  36.5346184
  84.1637192  54.2301483  35.8922386  84.9568100  52.9668884  36.1494827
  65.1421585  53.5476913  56.2079277  64.8431549  53.5563240  55.2986679
  65.9206619  52.9908409  56.1987762  77.9024277  54.9323082  76.0286484
  78.1908569  55.6810532  75.5067062  78.2621307  54.1706314  75.5740204
  69.1068954  45.1910400  73.7508087  69.4577789  44.3312988  73.5185165
  69.6235886  45.4637222  74.5090256  47.7764854  61.2408943  37.2262497
  47.3496780  61.2495956  36.3695183  47.3950920  60.4870224  37.6761971
  72.8802490  18.1232777   5.7175527  73.0992737  18.0129185   6.6427999
  72.1087875  18.6899147   5.7199731  57.5761642  26.2112732  42.5506210
  57.2099380  26.4150448  43.4111938  57.6135750  27.0551147  42.1003265
  85.9328461  66.0521164  81.8404388  85.4951706  65.9709625  82.6878357
  85.2219315  66.0245590  81.2000656  51.5260811  43.5193176  53.9757576
  51.8115501  42.6642609  53.6538620  50.8581276  43.3177376  54.6310730
  61.3703880  64.1800003  23.4422054  61.8458939  64.5176697  24.2012234
  60.4566345  64.4104462  23.6100788  62.9648819  29.4051609  29.1754475
  62.9957390  28.9532146  30.0186710  63.6308365  30.0891132  29.2457714
  15.6185246  45.6577492  19.7718506  15.8030548  45.9891930  18.8930302
  14.9089355  46.2138786  20.0934677  63.3826904  55.6095505  56.7780914
  62.7183418  55.7262802  56.0989380  63.9852333  54.9606056  56.4147148
  65.3717651  41.1838951  85.7611389  64.9799957  40.3243942  85.6062012
  66.2202301  41.1434402  85.3198776  16.5837612  35.3697433   2.9613140
  16.9500980  34.8481331   3.6754258  16.2883835  36.1773643   3.3817081
  75.0599442  18.1863518  83.1957474  75.0547409  17.4755611  83.8368225
  74.2129288  18.1177559  82.7551956   9.3030863  31.5479832  10.4208431
   8.9962015  32.3461990  10.8508511   8.9224606  31.5870934   9.5434456
  45.8170090  54.2292862  58.8438606  44.9654808  53.8138618  58.9800949
  45.9140739  54.8256531  59.5862617  22.8176613  57.4267120   3.5609777
  23.6277180  57.5441132   4.0572186  22.8393288  58.1186333   2.8999143
   4.8961763  29.6969719  87.6513214   4.5946636  28.7885075  87.6476898
   4.1965485  30.1832809  87.2151337  75.6129990  34.7377663   6.6453757
  76.4726257  34.4290352   6.3590903  75.6974411  34.8360405   7.5937657
  64.3053589  31.6841679  76.3510590  63.7382126  32.0771370  75.6876144
  64.0357285  32.0968437  77.1715622  15.1097832   9.0644808  65.9745789
  14.5307426   9.3577051  66.6781158  15.9879656   9.3013687  66.2727661
  34.6227455  68.1952591  15.0517073  34.5061836  69.1194229  15.2720995
  33.9218330  67.7461090  15.5241652  55.2746124  38.5268173  15.3910751
  55.1306534  39.1531258  14.6816759  54.6874962  37.7980576  15.1899958
  52.8982162  28.7853642  31.3027401  52.0554657  28.3317070  31.3169041
  52.9668198  29.1902752  32.1673622  81.1405258  57.7145500  27.1715546
  82.0822067  57.8848686  27.1932583  80.8366928  57.9361839  28.0517788
   5.0571585  46.9885254  57.3050308   5.1559000  46.6086159  56.4320183
   4.1119318  47.0006065  57.4554749  56.0964355  60.8838196  43.2911301
  56.1536255  61.7855721  42.9752121  56.5861130  60.3727608  42.6467171
  63.6840172  30.4021435  42.2281532  64.2656479  31.1411171  42.0496674
  62.8121986  30.7220669  41.9961815  37.3403282  39.8218117  50.5477829
  36.8506775  39.1441574  50.0816727  38.2465477  39.5138550  50.5353775
  66.1178894   3.2214038  72.5940704  65.6196671   2.8580587  71.8619537
  66.5981674   2.4743638  72.9511261   5.2661314  27.7953491  31.9808960
   6.0614004  27.9702454  32.4840736   5.3798399  26.9021797  31.6560059
  26.3059006  -0.1325578  68.5112076  25.8456154  -0.4872800  67.7505875
  26.6783409   0.6932621  68.2021103  74.0997009  17.4986935   2.0452514
  74.3473587  18.1235809   2.7267303  74.1629486  17.9960098   1.2298326
  69.3143387  34.1689568  13.8294086  69.1299973  35.0300026  13.4541140
  68.6612854  34.0644836  14.5213842  31.5024567  65.1472244  16.7938080
  31.7236900  64.9071960  17.6936264  31.2710972  66.0747223  16.8433189
  51.6890488  51.4951591  75.1807404  51.1490135  51.6522446  74.4061966
  51.7377205  52.3465538  75.6154709  27.5719337  63.2302551  37.7000465
  28.1704044  62.8087120  38.3167839  26.7287159  63.2396164  38.1529579
  59.1678467  66.3351517   2.6965554  58.4391098  65.8404846   3.0713582
  59.6458778  65.6949768   2.1694012  72.5507278  70.7581253  58.0835953
  72.1907578  71.3760147  58.7198868  72.8965607  71.3105164  57.3825264
  46.4642448  68.0365448  67.5496902  46.5819397  68.9864349  67.5405426
  47.1840515  67.7008591  67.0154343   1.2618082  49.2913551  88.4627838
   1.5207469  50.0399551  89.0001678   1.0584930  48.6017761  89.0947418
  28.3473549   5.3794084  11.4200277  28.7176285   6.1914139  11.7661152
  29.0192280   5.0435805  10.8267002  85.7346954  52.6090546  23.4276047
  86.5611496  52.1299820  23.3668461  85.5024338  52.8021278  22.5193043
   3.8414533   5.0844793  11.2358608   3.5920539   5.4798050  12.0711746
   3.2226176   4.3638482  11.1176844   8.4959431  30.3205357  52.2357750
   8.2961645  29.5927448  51.6470146   9.1772280  29.9796772  52.8153419
  86.0641708  23.5194950   9.4434795  85.8315353  24.4477291   9.4657440
  85.3291092  23.0780811   9.8689966  67.1085510  19.2105522  50.2858391
  66.4917908  18.7631073  50.8651695  66.6588745  20.0172882  50.0344505
  36.7295609  51.6316299  34.3257790  36.3317986  52.0539665  33.5644341
  36.4788971  52.1855125  35.0651131  25.3225842  67.8920898  16.8326111
  25.6411171  67.2465820  17.4635525  26.0137215  67.9429169  16.1723251
  38.6877785  37.2064629  82.7310638  37.7695580  37.1519165  82.9958725
  39.1732292  37.2393456  83.5553741  43.6817436  56.9552231  58.0624046
  44.0951042  56.5424576  58.8206902  43.3350601  56.2240791  57.5510597
  63.0596619  35.2378960   5.0464201  63.4467392  35.4974442   5.8825059
  62.1460495  35.5165825   5.1086679  53.6886711  70.8727875  78.1430588
  54.4397583  70.3817139  78.4761353  54.0547485  71.4383469  77.4630814
  44.8811264  53.3949585  45.0011673  44.6433258  53.8004799  45.8349762
  45.7544594  53.0330467  45.1512985  75.7752380  18.8951149  25.0035763
  76.1104965  18.9883556  25.8952808  75.0630264  19.5321770  24.9476337
  11.9413919  71.3480835  29.8000908  11.4306936  71.2029114  29.0036335
  12.6990004  71.8558960  29.5095940  19.9578762  44.2454033  34.4897881
  19.7736168  43.9944839  33.5846252  19.1062489  44.2125320  34.9255409
  64.4758530  32.6086845  24.4546776  64.8313599  33.4557533  24.7235966
  65.1961975  32.1834297  23.9893856  46.7461014  47.7351608  34.9878578
  46.7964592  46.8190956  35.2608414  46.4519386  48.2022858  35.7698402
  27.2883472  42.2792358  79.0727463  27.8376789  42.8469162  79.6133041
  26.7466469  41.8014641  79.7008591  22.4881783  48.0861969  14.0716085
  23.1834202  48.7048225  13.8476124  21.9556332  48.5484619  14.7188616
  83.6097946   7.1951833  30.8816948  84.0430298   8.0485735  30.8654594
  83.0677948   7.2166939  31.6703701   8.6353512  38.6489639   4.8082733
   8.4323797  39.5684471   4.9802785   7.8939266  38.3325119   4.2921543
  73.6644516  51.0528603  85.0556412  74.2360458  50.3103447  85.2510452
  73.4311142  51.4077454  85.9134521   1.2601995  47.0622482  86.1781235
   1.4044555  46.6039581  87.0060043   1.5364008  47.9622269  86.3512650
  54.4797859  44.2987938  34.0443497  54.5432587  45.0502930  34.6337967
  53.5450096  44.2228584  33.8528786  68.2682343  14.7934608   2.2384615
  67.7297974  14.6233444   1.4655581  68.8920670  14.0677948   2.2602186
  17.0715199  33.0587502  18.9605389  16.5549450  32.3612022  18.5570469
  16.4430103  33.5432816  19.4957390   4.0425134  22.8944340  40.5456772
   3.1460061  23.1323586  40.3092499   4.0445137  22.8895473  41.5028610
  30.7068138  20.3725414  82.1538773  30.6281967  20.7026806  81.2588577
  30.0428963  19.6857300  82.2150040  57.2706604  34.5506325  88.4413834
  57.1793480  34.1026192  87.6004486  57.5014954  33.8565025  89.0587463
  74.5155869  71.1289444  67.3482742  73.8248062  71.6253204  66.9093475
  75.2418594  71.1264496  66.7247696  16.3802452  63.8993034  25.7244663
  16.4647331  64.4409027  24.9397583  17.1627369  64.0986633  26.2384682
  40.7715416  48.0217552  12.6470785  41.6725845  48.1366653  12.3451748
  40.4975128  48.8968163  12.9216852  54.2601395   0.7651276  53.1268921
  55.1729393   1.0017519  53.2913208  54.0822449   0.0544294  53.7429199
  46.3393555  15.2637405  77.4617691  46.0784760  14.5766459  78.0750198
  46.4264717  16.0479679  78.0036469  20.0661545  19.4578896  15.8838520
  19.3967457  19.0413723  16.4266586  20.5306530  20.0424118  16.4828568
  64.7354736  54.3784943  14.3437920  64.9688110  53.4794350  14.5750341
  64.6453400  54.8264389  15.1848955  47.3326797  49.4921837  24.1481781
  47.9984245  49.5367317  23.4618607  46.5740051  49.9413109  23.7754440
  47.7503433  60.2795029  25.1189480  47.4920769  61.1762848  24.9060898
  48.3987083  60.0523720  24.4524174  83.7337952   5.5635643  12.2527275
  83.1215897   5.0595078  12.7887859  84.2104950   6.1068316  12.8803024
  44.2375107  22.6965046   3.6080701  44.0632668  21.8452377   3.2065513
  43.6025009  22.7592697   4.3215513  86.3320541  10.9083376   7.0368733
  85.6186981  10.6227627   6.4660807  85.8936768  11.2395363   7.8206882
   1.0051177  70.9967117  15.0636787   1.5401077  70.2078171  15.1512308
   0.6412573  71.1375732  15.9377470  10.9897442   7.2202768  71.1064606
  10.6570873   8.1176004  71.0869217  10.2390814   6.6810746  70.8574677
  74.4647064  35.4438934  40.2782784  74.2102509  35.2251091  39.3818321
  74.7666397  36.3507767  40.2269859   1.5680680  19.5282478  13.2967396
   1.8390372  19.3158607  14.1898804   0.6753274  19.8607464  13.3899641
  74.8397217  19.1315346   4.0497069  75.5218201  18.6173477   4.4816675
  74.0741119  19.0379868   4.6165586  43.2520638   9.7927446  23.6032009
  42.7745285   9.0215054  23.2976170  42.5764732  10.4595900  23.7261868
  72.2485123  48.3721123  39.6991768  72.2488327  48.1547241  38.7669907
  71.6253281  49.0945435  39.7764282  14.7466850  20.6561604  68.6733704
  15.3233480  19.9797993  69.0286560  15.2967968  21.4378967  68.6234055
  38.4076576   6.6954675  76.5508652  38.0556335   6.8731971  77.4230652
  39.0192223   5.9709678  76.6824799  24.7719879  53.7445412  86.9317398
  25.0889778  54.6473160  86.9044800  25.2907753  53.2884216  86.2691345
  34.1368484  37.9243774  64.2467117  33.2245636  37.7186432  64.4507828
  34.5938911  37.8423004  65.0837326  61.3215981  16.0323200  33.2776642
  61.5276871  16.3139400  34.1689835  60.5947952  15.4183178  33.3824959
  71.3906250  15.3806849  56.6825562  71.3536530  14.4434147  56.4917946
  70.9211655  15.4751253  57.5113602  39.2917786  20.2660675   3.5657728
  39.8333435  21.0543499   3.6051767  39.8720207  19.5945206   3.2071989
   7.2949076  13.8286066  85.0883255   7.8614125  14.3174763  85.6852417
   6.4788985  13.7113171  85.5747452  73.3908844  25.2380600  80.0862427
  74.1652679  24.6817398  80.1703415  72.6999054  24.6440258  79.7931519
   9.6802616   3.7564502  21.0964432  10.2708902   4.4012642  21.4858055
   9.2412720   4.2297664  20.3896961  34.2374954  66.7561722  69.7191238
  34.6860123  66.6448746  70.5573883  34.9417610  66.7734070  69.0710983
  50.5208130  49.5812187  61.5541573  51.0343094  49.6374092  60.7483025
  49.6228867  49.7669258  61.2794342  79.3090134  23.6310005  57.7248917
  79.2033081  23.9330025  56.8227539  80.2165756  23.8425655  57.9435043
  27.1935177   5.3266563  33.4427071  27.7583103   5.4520173  34.2052841
  26.3698845   5.7514892  33.6822433  10.5778465   8.0525837  12.8556223
  11.4262800   8.4052649  13.1239662   9.9741077   8.3309555  13.5442734
   0.5783898  12.8404102  77.5237961   0.2457393  11.9808617  77.7821655
   1.1911463  12.6560154  76.8119278  41.9868279  47.1815376  15.4433575
  42.6707726  47.3527184  16.0907764  41.6499519  48.0481682  15.2159863
  67.4911804  59.0746994  51.8193283  68.0207748  59.7871017  52.1774445
  67.6414948  58.3413048  52.4157906  15.7034626  49.8384361  86.2232666
  16.6590824  49.7960930  86.2583084  15.5111065  50.7574196  86.0369873
  23.3607006  31.5808105  64.0878296  24.2357922  31.9559040  63.9890938
  23.0576019  31.4405842  63.1907806  86.0281754   7.2034922  49.3933449
  86.1855927   7.6925983  48.5857391  85.4514999   7.7688422  49.9072075
   1.9862128  48.7058945  71.4713593   1.5481427  47.8838272  71.6916580
   1.3476313  49.3840866  71.6915817   6.8607531   5.8720450  77.7505188
   6.7479472   6.1773758  78.6506729   6.0266209   6.0692387  77.3244095
  84.0509644  59.2768517  34.9915771  84.1272583  59.8735542  34.2470207
  84.6569061  58.5637779  34.7901077  85.2087021  36.7649918  40.3838425
  85.4173355  37.6885757  40.5241928  85.9310150  36.2909775  40.7959251
   8.1344843   8.7550392  83.8348083   8.0232372   9.6076746  83.4142456
   7.2925873   8.5846481  84.2571869  -0.1091690  67.4572830  66.1807556
   0.2705611  67.0807114  66.9746323   0.5614312  68.0583344  65.8563080
  13.5635834  48.8331299  73.0508957  13.8553314  48.1030006  73.5968094
  13.5621796  49.5873032  73.6403427  40.4522438   5.0391531  11.6704550
  41.0023003   5.3032913  10.9329567  39.6679802   4.6701770  11.2642307
  23.7904110  30.3255444  13.4587517  22.8462067  30.1683559  13.4599657
  24.1316013  29.7294216  12.7920732  13.2082214   3.3272362  30.9506474
  13.6154585   4.1908021  30.8824997  13.9009533   2.7620633  31.2926025
  68.8197632  48.1385078  47.0927200  67.8927155  48.3059120  47.2623863
  69.0547714  47.4452896  47.7095299   5.2013969  64.5075073  41.5732803
   5.9134994  64.6306000  40.9455910   4.4393926  64.9051590  41.1520233
  43.0752563  54.2275352  62.4610329  42.1282806  54.3441086  62.3843536
  43.2171707  53.2975349  62.2844200  27.5637875  67.1258316  56.1706467
  27.3581448  66.7214279  55.3277931  28.5089283  67.0096436  56.2678032
  27.1613808  39.7460594  88.9292679  26.9506035  40.6147537  89.2715683
  26.3597813  39.2382011  89.0547562  75.1259918  15.6002254  85.0245590
  75.0123596  15.0529652  85.8016281  76.0644760  15.5623169  84.8400574
   4.8575053  14.5745802  38.7328415   5.1385803  14.7531118  37.8354263
   4.5920534  13.6549854  38.7222252   5.6126728  40.7119942  69.2854691
   6.2255735  40.0373764  68.9931030   4.8479538  40.2244110  69.5915756
  35.3323174  61.7252312  41.0849152  35.9925346  62.3759270  40.8462906
  35.7582664  60.8827362  40.9267998  23.3228111  40.0263214   4.5325489
  23.2113743  39.4977875   5.3227820  24.2396126  39.9007416   4.2877245
   1.8552378  51.0163345  73.7081223   2.3905652  51.0639687  72.9160461
   1.7885778  51.9232140  74.0070496  75.0618210  32.0218353  32.3296814
  75.7446976  31.3515205  32.3539543  75.3795242  32.7087326  32.9157486
  82.2564011  33.9386749   9.7579918  81.3583145  33.6074982   9.7592211
  82.2233047  34.7186317   9.2040958  84.4025116  14.5300579  59.1327400
  83.7984467  13.8799152  58.7740593  84.7222061  15.0078726  58.3674164
   8.0941210  11.9352007   2.9142442   8.4917660  11.0652866   2.9511170
   7.4202361  11.9195127   3.5938509  66.0867691  66.9020309  62.1238785
  65.6121826  66.2591782  61.5968666  65.6029434  67.7184219  61.9987488
  28.3391209  57.5469208   2.6961794  27.5435333  57.0445671   2.5203564
  28.4416885  57.5080414   3.6470737  70.6607819  60.7375832  12.1688509
  70.7783203  61.5194092  11.6292562  71.1861343  60.0655899  11.7344999
  84.1114502  37.0041695  14.3701057  83.4170303  36.6556168  13.8110695
  84.9211426  36.7975426  13.9032602  42.9487801  36.7206917  17.0202065
  43.4211388  36.8395882  16.1962090  42.1232414  37.1880760  16.8926315
  62.6999588   4.5018764  19.0097065  61.9118156   4.0790491  19.3507023
  62.3849449   5.0543237  18.2943039  78.5525513  54.0751534  62.8399582
  78.4351044  53.5512123  62.0475426  79.0593414  53.5129471  63.4258919
  63.0656624  32.7420158  58.9812317  62.7947235  32.3506966  59.8117104
  62.2677879  32.7586250  58.4526978  40.1710472  26.4185123  81.1241150
  39.9932175  26.0266457  81.9791260  39.5403481  27.1350460  81.0531998
  81.6448441  11.7356977  36.4265785  82.4538956  11.2550955  36.2513847
  81.9307175  12.6345501  36.5895805  63.5789032  59.1136780  60.7494965
  62.7891006  59.4471436  61.1752205  63.2631760  58.4244347  60.1651230
  84.1959000  40.3887901  51.0889626  83.5278549  40.2341347  50.4211121
  84.7665482  39.6219177  51.0390129  75.5955276  43.9829178  77.7810974
  75.0269928  44.6923141  77.4814987  76.4134674  44.1125374  77.3010864
  53.5897331  54.3317604  29.4013195  54.4449959  54.7271423  29.2327213
  53.2111969  54.8678703  30.0981216  75.9933624  17.0748119   7.4204016
  75.9642029  18.0205441   7.2755795  76.8432388  16.8052692   7.0721455
  52.8387451  47.1119003  42.3163948  52.0461349  47.6094704  42.5174446
  52.9589233  46.5371323  43.0723267  82.4962997  17.6422863  11.2392616
  81.7022247  17.1567535  11.0158100  82.2152710  18.2659588  11.9088030
  39.5329208  65.8489609  25.1570930  39.8113480  66.2642822  25.9733143
  39.8555412  64.9502106  25.2234764  24.3516312  32.6395454  79.5355225
  23.5563450  32.3408051  79.0944901  24.3454456  33.5900497  79.4226608
  16.3429737   8.3475523  57.2962570  15.8774843   8.1409235  56.4857903
  17.2205296   7.9878688  57.1668129  48.4347649  44.5910301  19.7957783
  49.1803818  44.1459312  19.3930664  48.3878098  44.2274475  20.6799927
  79.3866882  71.5146484  18.5150795  79.1602325  71.7625809  19.4114494
  79.9309692  70.7333527  18.6129208  17.6415997  68.1868896  32.7546082
  17.9830627  68.4296722  31.8939724  16.7360458  68.4970093  32.7491913
  39.9097748   6.5330472  18.5850391  40.1844749   6.2742400  17.7053871
  39.0157127   6.2004743  18.6643143  78.9420547  64.6773224  56.4886436
  78.3734665  65.0248642  57.1757736  79.7584000  64.4617157  56.9395638
   7.6600251  40.4252701  33.7511864   7.0099645  40.1950111  33.0873833
   8.4245214  39.8922844  33.5327682  42.9289055   3.6320190  56.1206665
  42.4622574   2.8423717  55.8469353  42.7274780   3.7183859  57.0524406
  12.6477747  70.2657928  56.5114555  12.4720545  70.6530380  55.6539040
  13.4971361  69.8360672  56.4107056  56.9623489  17.8263607  53.5536079
  57.5123672  18.0576515  52.8051300  56.0716362  17.8192234  53.2031593
  21.9691391   4.4999499  28.1504841  21.8749485   5.1620431  28.8353138
  22.7898731   4.0540242  28.3597145  30.4990311  70.0109482  30.5935497
  30.7521706  70.4303589  31.4158936  29.5419769  70.0254898  30.6019516
  15.1681833  14.7577658   6.7103367  14.5318880  14.0711231   6.9100404
  14.6493635  15.4565430   6.3118787  77.5542679  34.3211517  70.1282349
  78.0489883  34.2764549  70.9464493  78.2171249  34.2380333  69.4427109
  77.0244827  43.6244011  74.1444626  77.3833160  43.5328484  73.2618027
  76.1461487  43.9804153  74.0102005  70.4417877  65.1105499  77.8958893
  69.5529709  65.0445328  77.5467758  71.0010681  64.7862015  77.1900330
  18.8943577  55.2796860  84.8234329  18.9698391  54.3919487  85.1733704
  17.9520721  55.4446487  84.7900238  85.3951416  68.2402115  50.9559441
  85.1178970  68.6912918  51.7533722  85.1675034  67.3230133  51.1081314
  77.7488174  30.2248402  53.8178368  78.4956589  30.7514439  53.5329666
  77.1913223  30.1606503  53.0423927  83.6967163  48.0833702  32.0340080
  84.4964676  48.5672989  32.2400246  83.3259277  48.5430717  31.2807312
  59.7086334  28.1236267  61.7390366  59.1633453  27.6430416  61.1161957
  59.0954895  28.4310932  62.4066811  70.2699203  12.9665995   2.1332219
  69.9854279  12.4760284   2.9043496  70.3770599  12.3020582   1.4526798
  57.5126801  43.8223457   8.8092880  57.0959663  43.6906738   9.6608992
  57.1131172  44.6225319   8.4682837  45.3882866  39.3687401   2.2739427
  46.0291061  39.2012177   2.9649706  45.4587402  40.3082047   2.1045952
  82.0121307  20.0528221   4.4044466  82.4424210  20.7431774   3.8999715
  81.3411026  19.7083359   3.8151371  52.5340500  54.7994347   5.6527648
  52.4056206  53.9086113   5.3269243  51.9754524  54.8537025   6.4281702
  61.4065056  48.7931786  38.5874748  61.7256584  49.5157394  38.0468483
  60.9987869  49.2198486  39.3410988  12.1041832  62.5370560  70.5549774
  12.2115345  63.4881630  70.5447998  12.8019075  62.2234154  71.1303406
  85.3857727  70.5161667  41.1933784  86.3079834  70.5116043  41.4497681
  85.2756805  69.7152481  40.6809044  60.1338654  21.9317818  49.2599754
  60.1565323  21.2449646  49.9263077  59.2767639  21.8347225  48.8450241
  82.4036255  20.4151077  41.7915115  82.9993439  20.8002510  42.4341736
  82.6445084  20.8296604  40.9630470  60.5205917  37.7348595   4.6877718
  59.8454361  38.4133415   4.6950979  60.4998970  37.3859825   3.7966542
  52.4249878  55.7265015  70.1966400  52.7846947  56.5007439  70.6295242
  52.2802544  56.0034866  69.2918930  43.8874550  22.0356731  72.4774399
  43.8239975  22.5646019  73.2727051  43.0234299  22.1082363  72.0719528
   2.4346058   0.7454634  11.1416006   1.5199522   0.4911788  11.2639933
   2.9199424   0.1986909  11.7594357  10.4548798  46.6266441  81.0051804
   9.5229187  46.7525444  80.8267746  10.8623877  47.4525490  80.7443237
   5.3140373  26.8846436  85.2247849   5.1895795  25.9460640  85.3655396
   6.2492204  27.0268574  85.3712082  35.7253723  36.1722336  15.6417990
  35.8360443  36.8427238  16.3159103  34.7928047  36.1994209  15.4277668
  65.3513565  31.1622562  33.5796204  65.7307816  31.6148186  34.3329163
  66.0368958  31.1917839  32.9122391  64.8540421  38.0760880  48.5580330
  65.3812866  37.9727898  47.7658348  64.3960571  38.9074440  48.4342194
  85.6897049  20.0089493  10.8771791  85.3059158  20.8634777  11.0739517
  86.6052933  20.1989632  10.6726685  58.5107040  38.4366302  51.0893898
  58.4313622  38.4396667  50.1354866  57.8839378  37.7739944  51.3797531
  15.8732138  44.4965057  87.4970551  15.3856058  45.2719727  87.2193451
  15.4929152  43.7798386  86.9891281  34.1939583  40.2620163  10.4938288
  34.2814560  39.4896049   9.9352970  34.8924408  40.8483009  10.2029295
  20.1916389  36.1532021   8.5740805  20.3856697  35.8369331   9.4564400
  19.9635162  37.0749474   8.6948042  52.4215660  70.8942337  68.5481415
  52.5293808  70.4454117  67.7095871  53.2980843  70.8969803  68.9327698
   0.9017398   4.6523600  73.9707108   0.3505991   4.1509624  74.5716019
   1.2053775   4.0087042  73.3305969  69.8057327  23.9489784  86.5173111
  69.6387405  23.6489391  87.4107971  70.7040024  24.2789097  86.5393982
  79.1778946  10.6123114  68.7321396  79.0937576  10.1002188  67.9278259
  78.2757874  10.7821808  69.0033875  71.9441833  53.7200699  48.1542358
  71.8515625  53.9213905  47.2230415  71.4378510  52.9171143  48.2771988
  86.2963943  25.3755856  85.3885574  86.4180603  26.1222496  85.9750061
  85.3564453  25.3634701  85.2080536  80.6737823   2.0453398  88.9355850
  81.2586365   1.3056374  88.7712250  80.4667816   2.3850529  88.0649643
  54.5652084  11.0818872  35.8857574  54.9691582  11.6505880  36.5412254
  54.5604782  11.6055803  35.0845375  75.0153656  15.0904741  22.2119637
  74.6156693  15.1895790  21.3478737  75.0107880  15.9737835  22.5807095
   4.0326633   6.7079349   8.8032484   4.0176682   6.1095223   9.5501814
   3.7285604   7.5428653   9.1591196  33.2315674  45.2196312  69.4664383
  32.7786636  44.6748390  70.1101074  32.9667053  46.1140938  69.6809540
  53.4057961  36.9603729  35.4189568  52.9059181  36.9781342  36.2350693
  53.7102051  36.0559540  35.3441734  48.4077530  39.6908798   8.1689720
  48.5971260  38.7891884   7.9095087  48.8847504  40.2274818   7.5359125
  60.2815971  52.8505325   0.9596178  59.9793549  52.9496269   0.0568098
  61.1554298  52.4682236   0.8790555  30.8567181  43.6804619  49.9627380
  30.5428734  44.4795837  49.5394936  30.0896053  43.1087990  49.9938927
  48.6434326  50.1099510  74.7735901  48.0170670  50.8027763  74.5641022
  48.5514832  49.9813652  75.7176437  50.1885719  24.9909916  83.0869522
  50.2072296  24.7858791  84.0217285  49.6597672  25.7865925  83.0268250
   2.3292994  50.3740082   6.6725211   2.2061820  51.1453476   6.1192498
   1.9307253  50.6133308   7.5092382  41.3169518  51.8659821  48.3492088
  41.5859070  52.1464195  47.4744225  40.3602943  51.8655128  48.3170090
  18.3760223  50.6747665  22.0889378  18.4530487  50.8691216  21.1548462
  19.2025108  50.2473602  22.3135986  45.3507271  71.4958725  15.5807419
  45.5545311  70.6251144  15.2394600  45.2387695  71.3639755  16.5221767
  64.0246887  19.5925293  73.6718369  64.3909988  18.8273697  73.2284622
  64.7073212  20.2598152  73.6013184  71.6118011  30.4121208  80.2623215
  71.3912888  30.0744381  79.3942337  70.9753876  31.1102905  80.4164963
  17.3063908  24.5752544   6.7993064  17.1540794  23.6530590   6.5929356
  18.1633549  24.5869255   7.2255802  60.9566689  71.6383209  47.9942741
  61.2767792  70.8507156  47.5544510  60.0143051  71.4963531  48.0838776
  52.6197662  53.1799774   1.1237388  52.5696945  52.7610588   0.2645352
  52.5765419  52.4545822   1.7467667  86.1679916  52.9167633  55.5322800
  85.8966599  52.0618248  55.8664856  85.6497650  53.0384064  54.7367439
  55.9483795  34.6950226   9.7557907  55.5687180  35.5721054   9.7027016
  56.8060112  34.7796593   9.3392067  33.7964401  30.8151989  70.7038574
  34.2524681  29.9808636  70.5935974  34.1374054  31.1677132  71.5258713
   9.0552082  63.7981796  18.1134167   9.9282207  63.5627899  18.4275379
   8.5488577  63.9572105  18.9100037  17.7681580  66.5815582  53.1971092
  17.1934032  67.0993271  52.6333694  18.3822174  66.1633072  52.5935898
  77.3368835  32.0533905  26.4835987  78.0428772  31.7323494  27.0446091
  77.7409973  32.7484169  25.9641171  29.4302921  20.9571762  55.3543625
  29.3980045  20.2179012  54.7471848  29.3212948  21.7286892  54.7983780
  43.5542793  44.8420715  12.5150213  43.0238609  44.4107437  11.8450594
  44.4496346  44.5577126  12.3314276  37.2960091  70.2615433  20.6629829
  38.0725937  69.7126999  20.7721767  37.4090195  70.9660950  21.3010025
  56.0376549  16.8229599  65.6331940  55.7553864  17.7040997  65.8784485
  55.6481438  16.6779919  64.7709351  11.8595963  45.2746353  43.7341194
  11.6639490  45.4946060  42.8233147  11.4773817  44.4058609  43.8581123
  28.0714378  37.0447006  13.3906994  27.7134266  37.9111252  13.5840120
  27.5927601  36.7556343  12.6138201   7.0846529  61.5968056  50.1054001
   8.0166731  61.5763359  49.8882561   6.9710827  62.4101944  50.5970612
  -0.0331483  21.9541950  80.9184189  -0.0314288  22.2546425  81.8272400
   0.8872343  21.9779282  80.6565704  64.3408585  42.2292519  65.9341354
  64.6585083  42.8981133  65.3275452  65.0305099  41.5655022  65.9413528
  19.2764988  47.5671310  61.4827957  18.9657822  46.6754417  61.3260345
  19.0895863  47.7267342  62.4079018  85.0007248  38.5009155  60.2581291
  84.7878723  37.8186684  59.6213722  84.4057236  38.3392410  60.9902954
  35.0361214  40.3855209  64.8997650  34.9633522  39.6858635  64.2505951
  34.1441917  40.7204857  64.9918900   5.9132891  59.0754471  41.4128380
   5.4446182  59.5549812  42.0959396   6.6837811  59.6127205  41.2286873
  82.2904053  28.0672913  50.1675873  83.2155457  28.3122997  50.1853256
  81.9935455  28.3158875  49.2921982  69.1508636  65.9008942  43.5183830
  69.3855133  66.3083420  42.6846237  69.5144806  65.0171280  43.4638062
  13.4504271  10.5063162  61.4163284  14.1310911  11.1207581  61.6909027
  13.5416451  10.4573784  60.4647446  45.1368675  58.5646400  20.1143513
  44.2167358  58.6164627  20.3730087  45.1586075  57.8839798  19.4417000
  55.5046730  61.9439354  11.3456316  54.8953972  61.2341347  11.1426706
  55.0881386  62.7272377  10.9862375  53.7644196  31.9933205  66.5228500
  52.8334427  31.9763260  66.3009720  53.9087944  32.8682175  66.8833313
  57.6469688  69.6760941  19.0364094  58.3860626  69.6036758  19.6403332
  57.2863350  70.5470505  19.2025890  60.3440170   6.2627463  38.6330643
  60.1092873   6.8903203  37.9494820  61.2106361   6.5426240  38.9278069
  21.2542095  20.2375736  85.6805038  20.9491825  19.6014042  85.0336075
  21.2146511  21.0790672  85.2260208  80.6762695  59.3797684  23.1208496
  79.7361069  59.5299339  23.0219421  81.0104141  59.3545341  22.2242222
  30.9367065  48.8180656  65.3353271  30.2597866  49.2684135  64.8301544
  30.7781715  47.8882103  65.1726456   9.6632128  66.1048889   5.7916207
  10.4119129  65.8147354   6.3126698   9.0451069  66.4535751   6.4339547
  16.0990524  31.6977119  67.1864014  15.4163113  32.2369003  66.7871857
  16.9186344  32.1208191  66.9304733  42.3274307  41.6427498  74.3660812
  42.8468170  41.3236122  73.6280975  41.5599365  42.0472565  73.9616547
  86.3550110   1.8493671   2.4470694  86.0594177   2.6888463   2.7993898
  87.2844696   1.8090240   2.6722870  74.1747589  20.2100067  67.0711136
  75.0528412  20.2308598  67.4515991  73.5984573  20.4871426  67.7833710
  53.4556923  48.3671455  73.0455704  53.2699432  47.9574165  72.2006683
  53.1198425  49.2592163  72.9581451  75.7083893  46.3398895  51.8574066
  74.7629623  46.4247742  51.7341614  75.9711761  47.1632385  52.2688332
  40.2135201  15.5292301  75.1239548  39.9520264  15.8736839  75.9778900
  39.4653168  15.7078857  74.5542984  77.3786240  18.3989506   5.1447749
  77.9482040  17.6735306   5.4008470  77.7429123  19.1603661   5.5961881
  75.8955917  69.3370667  30.0898113  75.3958817  68.8232346  29.4553814
  76.5346603  69.8147125  29.5609646  67.1913071   5.2256441  71.3334885
  66.7506943   4.6953244  71.9974594  68.1240768   5.1084390  71.5135727
  41.8671341  70.7798920  81.7588959  42.0927773  71.0078201  80.8570328
  40.9716225  71.0992661  81.8697662  34.1194496  20.1637955  70.1241837
  34.8171387  20.2294464  69.4721451  33.9786263  19.2229862  70.2303772
  51.7611732   2.1080661  83.7167664  51.2091980   2.2373590  84.4880219
  52.2542534   1.3098093  83.9062195  73.2829666  29.7300777  26.1077976
  72.3294220  29.6469135  26.1157703  73.5421219  29.4317341  25.2359829
  20.0043564  25.1028099  70.2270203  20.1756229  24.2107430  69.9251633
  20.2262917  25.6558838  69.4779587  12.0750275  14.7642307  13.2249374
  12.0653439  14.1640215  13.9705162  12.5617580  15.5268116  13.5376616
   6.6849813   9.4709206  66.5623322   7.2566280   9.0221729  65.9393692
   6.3189039  10.2034578  66.0667419  28.0853806  17.3422050  52.2750397
  27.7889061  16.4944630  52.6062088  28.0773869  17.2435169  51.3229752
  55.4525986  61.4366837  45.9113045  55.5570374  61.3953247  44.9607162
  54.7767677  62.1003342  46.0493546  40.4060631  20.5314579  60.3452148
  39.7172585  21.1960983  60.3396683  41.1142616  20.9161549  59.8287888
  51.6764488  43.8779144  69.8651276  52.5649147  43.7454758  69.5345001
  51.7611237  43.8039589  70.8157043  73.7313919  52.2823982  40.5549431
  73.5378342  51.6895752  41.2811165  72.8863678  52.6736641  40.3334084
  39.9039116   4.8595052  69.9720306  39.2309227   5.5003095  70.2015610
  40.6734581   5.1306534  70.4725342  55.9735909  48.7717247  71.6780243
  55.2707367  48.5108452  72.2731476  56.0702553  49.7134247  71.8197632
  58.9704018  21.7538090  29.9294662  59.4485397  21.7738857  29.1004829
  59.2818184  22.5243835  30.4043007  83.7658539  15.7933760  65.8612595
  84.4018936  16.2120876  65.2812805  83.0288620  15.5751534  65.2907715
  70.5373611   0.1903488  69.4796448  70.9371567   0.9854347  69.8321152
  71.2765198  -0.3304057  69.1654892   3.7140388  30.8115196  79.7934036
   3.2400076  30.6461067  78.9784470   4.6369567  30.8027306  79.5396805
  72.7826538  49.6035576  26.2881355  72.5205612  48.8380775  25.7766838
  72.5014725  49.4028816  27.1808281  46.2487297  28.6247940  79.7306061
  46.2788658  29.4692898  80.1802139  47.1463203  28.4808693  79.4308624
  22.5353870   3.1087122  56.8757095  23.4002628   2.6990700  56.8553658
  21.9235001   2.3741469  56.9230385  25.3207626  47.2209740  51.1396294
  25.6698933  47.2513428  50.2488899  24.3706760  47.2060509  51.0241127
  23.1738644  49.3687935  85.7931671  22.3889790  49.7421417  85.3921738
  23.1230450  48.4339294  85.5939560  72.3713989  65.5499954  46.8977051
  72.4981155  66.4381866  47.2313118  73.1039658  65.0514145  47.2596436
  42.5604668  44.5115356  20.9903660  41.7631035  45.0321236  21.0874844
  42.2559357  43.6663437  20.6600037   5.1421375   6.2665248   6.0980611
   4.3494267   5.9115982   5.6957321   4.8611956   6.5559230   6.9661350
  75.7973938  11.1273251  64.0276108  74.8899155  11.1450386  63.7236328
  76.2784271  11.6367521  63.3754425  68.2280121  34.9388809  61.7061043
  68.5634308  34.0613937  61.8897972  69.0006180  35.4413681  61.4476089
  77.5949478  59.4814529  75.6374512  78.5099182  59.3077240  75.8585663
  77.1790924  59.6790161  76.4766541  58.7223701  41.2085800  61.7550850
  58.9878006  41.9317245  61.1868973  59.4827309  41.0525551  62.3152084
   2.4980223   3.8458159  28.5517464   2.1415205   2.9984577  28.2850590
   3.3932228   3.6522057  28.8298893  14.2084990   3.0096333  57.5095139
  15.1000900   3.0564673  57.1644020  14.2548771   2.3531156  58.2045441
  73.0236359  15.6114578  77.0457993  72.6508408  16.4128094  76.6782532
  73.1458969  15.0359449  76.2907715  79.0191574  15.1430712  82.6343613
  79.1515961  15.2060614  81.6884613  79.8719101  14.8772182  82.9784241
  27.9740963  58.1173134   9.3356667  27.8648396  57.4077530   9.9687710
  28.1947498  58.8815308   9.8681297  39.6848755  44.1272964  59.6468811
  39.4998169  43.3993378  60.2402306  39.4364510  43.8005524  58.7821503
  36.1091843   0.3011973  14.2054501  36.6401558  -0.4952273  14.2028694
  36.7461014   1.0135082  14.2618446  58.2744865   5.0617747  72.6352386
  58.6860962   4.7875862  73.4547729  57.3463974   4.8598762  72.7540741
  63.8388367  27.0751152  10.0736742  63.8968735  27.3052406   9.1463633
  64.7337875  27.1685867  10.4001122  75.7131577  11.1054907  27.1769562
  76.2531433  11.0169153  26.3915863  75.9284973  11.9731417  27.5190697
   7.4986110   2.4318202  47.2567863   7.7811928   1.5834908  46.9151459
   7.2038989   2.2449477  48.1481094  72.6164169   3.8837049  60.3748474
  72.9103775   4.7562904  60.1132889  73.4205093   3.4203777  60.6093597
  21.5655479  64.0611267  74.7089310  21.0507507  63.5713005  74.0676117
  22.0418186  64.7088165  74.1894073  66.6410294  12.8218393  85.7730637
  67.3114624  13.4975863  85.6724701  66.9921722  12.0644712  85.3047409
   8.5215282  54.3155823  33.5996742   8.3729019  54.5413513  32.6814308
   9.4587202  54.1279259  33.6515121  74.8458939  11.2719488  77.1398392
  75.4971085  11.1400070  76.4508286  74.0869675  11.6375170  76.6852798
  45.4852753  39.0526962  69.5193710  46.2984390  38.5882263  69.3212204
  44.9479752  38.4087791  69.9807892  71.1981964  18.1017075  63.2251587
  70.2854843  18.0527229  62.9409447  71.2428894  18.9005375  63.7506142
  56.4537048  19.0692291   8.0011663  56.2802734  19.9887009   8.2029724
  55.8959274  18.5816479   8.6072845   0.8463274  22.1476574  42.5777664
   0.2550618  21.4985867  42.9590073   1.3524766  22.4762268  43.3207893
  52.5527382  44.9916344  40.7441139  52.7047501  44.2741966  41.3592606
  52.7730865  45.7813873  41.2380486  13.4318399  54.9667282  14.2267904
  12.8191395  55.1910172  13.5264149  13.1229057  55.4644699  14.9837866
  72.7016068   2.1797040  69.2598801  73.6146698   1.9868509  69.4728699
  72.7423248   2.9755056  68.7295227  24.5149078  14.5153179  54.5340729
  24.3804321  14.1825266  53.6467171  23.6507015  14.4644651  54.9424744
  44.4684029  45.8780594  19.4432449  43.8335228  45.3344650  19.9097862
  44.4264565  45.5714111  18.5374641  46.6491737  47.9578094  32.0643120
  45.9765968  48.5218773  31.6826038  46.3109169  47.7349205  32.9315720
  21.6350117  54.8402138  83.6311340  20.9893646  54.7394524  84.3305740
  22.2757854  54.1483078  83.7951736  59.1967201  61.8354073  41.7523384
  59.1258926  62.7856369  41.8433189  58.8128624  61.6475296  40.8958435
  68.7684479  -0.0204163  35.6506271  69.2208023   0.7676890  35.3498039
  69.2078934  -0.7378223  35.1940651  39.2195129  58.8364906  21.3988857
  38.3379326  58.8559647  21.7712708  39.2663574  59.6214333  20.8530846
  32.4920959  56.9722214  71.6777573  32.0024300  57.2422256  70.9008713
  32.2648544  57.6227226  72.3421707  52.5547981  39.3714333  21.7626648
  53.4561424  39.3662987  22.0848179  52.5166168  38.6401901  21.1461773
   7.7187591  54.9614487  31.0072250   8.1311607  54.1336098  30.7605648
   6.8104696  54.8718567  30.7187519  74.4017639   6.6806645  12.9598522
  73.9679718   6.7830844  13.8069458  73.7378006   6.9339538  12.3185749
   7.3358006  28.3733749   6.5300694   7.9976568  28.1898155   5.8633728
   6.7978210  29.0672531   6.1488276  34.3756332  48.0744324  14.0013542
  35.0635567  48.6940651  13.7583551  34.7583656  47.2134247  13.8328037
  43.2755432  28.1102619   3.1457641  44.0181847  27.5650024   2.8861368
  43.4598694  28.9660835   2.7586968  38.3215027  64.9254227  15.9281073
  37.4066277  64.6934357  15.7686796  38.3548203  65.1419144  16.8599091
  57.8132973  34.1377640  79.7830505  57.6915970  34.2405586  80.7268982
  58.2488785  34.9446640  79.5084381  16.0358162  50.3600998  23.7670021
  16.5968819  50.2851295  24.5388927  16.6364269  50.5796165  23.0547428
  78.2557907  51.2641945  28.7363071  78.9283981  51.0366936  28.0943756
  77.5121307  50.7046051  28.5125694  15.2873545   0.6786169  66.0488663
  16.1466656   0.2979488  66.2302704  15.1519833   0.5293708  65.1131134
   4.6080737  70.8763657  82.6179657   4.1468520  70.2101593  82.1083832
   4.2151237  70.8260193  83.4893417  46.0137749  40.9197845  31.7055683
  45.7547226  40.0235252  31.9196835  45.2103577  41.3319130  31.3879204
  69.8919983  11.2655468  26.5091972  70.3900299  11.0437899  27.2959747
  70.0962906  12.1867151  26.3481216  86.0834427   3.2745674  28.7837906
  86.2500916   2.8978839  27.9197483  86.4092789   2.6171992  29.3985519
  82.7501373   5.4956207   9.7247505  83.1136169   5.4288044  10.6077261
  81.9676590   6.0371532   9.8281994   9.3184443  70.8705902  49.9824219
   8.7115927  70.4233017  49.3925972   9.3425817  70.3191605  50.7644539
  24.8875141  17.7621117  68.2020187  24.7426891  17.8190765  67.2575531
  24.4528236  16.9500427  68.4624405   6.6719856  32.1485710  41.9943352
   7.3994617  32.4079018  41.4288635   7.0849690  31.6628857  42.7083282
  56.1463814   9.9911289  17.5683403  55.6817398  10.0092411  16.7316723
  56.9948654   9.5987053  17.3626556  64.9662476  31.3927116  37.9523277
  64.4833069  31.7879238  38.6781425  64.4600906  31.6242561  37.1735992
  34.6282654  70.8717194  16.4108486  34.8596077  71.5171890  15.7429552
  35.4178162  70.7865295  16.9452534  56.8837547  44.6112900  58.1033363
  57.5901337  44.8840981  58.6888580  56.1081581  45.0618210  58.4375572
  81.0074463  65.9849319  62.0925522  80.5893250  66.1265411  62.9418793
  81.8811340  66.3637238  62.1895790  37.8882065  48.4470596  35.7571487
  38.3814583  49.0014687  35.1525307  36.9719276  48.6707001  35.5938911
  18.7107849  51.1811905  82.1539917  18.9258060  52.0952301  81.9681854
  18.0938148  50.9353790  81.4646759  76.3117599  25.3784409  37.4216194
  77.1431198  25.0390205  37.0901642  76.3876190  25.3102818  38.3733711
  68.9489899  11.3714170  80.7473679  69.6752701  10.9880714  80.2556381
  68.6617126  10.6721106  81.3344574  51.6253700  28.6091232  78.1190491
  51.3200378  28.8973808  77.2588654  52.3717613  29.1768627  78.3108902
  82.6837234  45.8313370   0.5159432  81.9912720  46.0380363  -0.1117636
  82.5847168  46.4869652   1.2062901  35.3873672  50.7979393  14.2172337
  34.4741936  50.7087135  13.9444981  35.7251472  51.5219421  13.6900158
  48.1250191  71.2103577  30.9103470  48.2629433  71.6517563  30.0722656
  48.4587326  71.8259048  31.5630112  19.1874199  21.6249237  14.0557346
  19.6656017  20.8682537  14.3948860  18.2894382  21.4975891  14.3617535
  66.0383606  65.6167755  33.0760765  66.8158493  65.1611710  32.7533493
  66.3676376  66.1937256  33.7652359  31.9490166  58.0488625  52.6425591
  31.8030281  57.3170471  52.0430870  32.3782120  58.7156677  52.1064682
  25.3354626  71.4410324  24.2296505  26.2212467  71.0839691  24.1653996
  25.0762730  71.2769547  25.1363659  82.3025513  42.0424728   7.5701718
  82.4913254  42.8838577   7.9857030  83.0820007  41.8530731   7.0478473
  82.6302338  67.5226212  13.1270714  82.5232239  67.0761414  12.2871675
  82.2207184  66.9367142  13.7636623  18.8712387  61.8688011  76.1263962
  18.2136116  61.2579269  75.7938385  18.5573177  62.7307930  75.8531723
  32.7197838  70.7151566  42.0199776  32.5948868  71.3218613  41.2902222
  32.0029068  70.9141159  42.6222496  42.4076843   4.2833490  13.5755835
  41.6873436   4.4033604  12.9567661  42.0893822   3.6200922  14.1879606
  53.8272667  24.1152668  30.8438911  54.1638489  24.6590881  31.5560703
  54.5871010  23.6164551  30.5437660  62.0539932  26.0464458  80.7554398
  61.9566994  25.1808968  80.3584595  62.1591911  25.8706512  81.6904602
  79.2671204  37.1856766  68.0129318  79.3345795  37.6380806  67.1720886
  78.3318405  37.1964455  68.2163467  49.2887192  55.2901993   1.8490115
  48.8320503  55.0560951   2.6570210  50.1051559  55.6937599   2.1436331
  57.1972427  22.3984318  45.5619507  57.2956123  22.0767155  44.6658173
  56.3101845  22.7568626  45.5917320  40.8469925  47.6668015  69.3193588
  40.1304855  47.2054672  68.8834457  41.6265526  47.4259224  68.8188629
  37.1156311  43.0434761  77.9224930  36.3170090  42.5308914  78.0477600
  36.8780861  43.9284744  78.1992264  54.5392876  56.1393738  32.5448990
  54.2244148  56.9767036  32.8854332  53.8006935  55.5413399  32.6592216
  19.6729813  38.7846069   8.9903183  18.7910023  39.0020332   9.2920990
  19.9709682  39.5717354   8.5344009   4.0414577  43.3788795  41.5892868
   4.6601110  43.5887642  40.8896828   4.5937095  43.1708717  42.3429337
  34.7256355  21.0324841  75.5200806  35.4042053  21.6977711  75.6348495
  34.7001572  20.8767319  74.5759811  67.0619965  37.8073730  14.4059896
  66.5406876  37.0046272  14.3977184  66.5547867  38.4277496  13.8824415
  51.9447556  53.8248787  15.4989681  52.3129387  54.2789497  16.2569218
  52.2261162  52.9160423  15.6042814  85.4389114  34.4459457  65.4217911
  85.1310043  35.3238258  65.1965179  85.7429428  34.5234833  66.3261108
  63.7971191   9.6601038  52.2437325  62.9024506   9.9871721  52.3376808
  64.3025665  10.1569700  52.8870621  79.6489792  24.3920174  62.2099037
  78.7122421  24.5887432  62.2173386  80.0548782  25.1735630  61.8348503
  65.4469223  13.0632362  32.4310074  64.8006516  13.7686043  32.3990707
  65.8723526  13.0891933  31.5739403  32.3951874  16.7946949  83.4937668
  31.5744972  16.3525295  83.2765350  32.5739594  16.5370598  84.3981476
  32.2877388  50.8687172  68.9090042  32.6122284  51.3606491  68.1547241
  32.7749062  51.2223892  69.6531906  34.2746925  64.0592117  72.3082047
  34.1806602  63.2129555  72.7455292  33.7205276  63.9899673  71.5308151
   6.4394727  59.2871475  45.2657433   5.8909731  59.7873802  44.6614723
   7.3013725  59.2713051  44.8496819  78.3924484  17.6765251  26.9337215
  77.5222168  17.5484886  27.3112450  78.2539673  17.6205959  25.9882450
  28.3963928  63.8550797  40.6157379  29.0048504  64.4800568  40.2215195
  28.7513580  62.9967575  40.3844147  86.2933807  44.0671997  28.4977913
  85.4619293  43.5989304  28.5729485  86.4182510  44.1839104  27.5559769
  22.1024647  56.2711258  56.4317398  21.7452812  56.9275513  55.8336105
  21.3669033  56.0375824  56.9979858   1.9126351  53.6587181  63.0530624
   2.8114171  53.3566208  62.9220657   1.7978987  53.6641922  64.0033493
  34.6157837  16.1714020  13.7044792  34.8144035  15.9164829  12.8034801
  35.3862762  16.6624584  13.9898472  15.1791420   6.7384596  83.6186371
  15.0706835   7.6132884  83.2456207  14.3254309   6.5330386  83.9997101
  76.6727295  37.2511711  84.8730316  76.9984665  36.4925117  84.3887100
  77.0971680  38.0013580  84.4567337  45.6347733   0.6514925   2.9483869
  46.5093994   0.5042460   3.3083532  45.2552567  -0.2242204   2.8754060
  45.0758743  36.6901741  82.6735229  45.0725250  35.7391396  82.5651169
  45.9852066  36.9457130  82.5184479  65.5622025  50.1991501  88.4033127
  64.8467484  49.6031532  88.6250076  65.4734497  50.9215851  89.0249557
  17.9123554  58.7177238  66.8383560  17.8694057  57.8800201  67.2994766
  18.6698856  58.6337967  66.2592697  40.1197166  66.8368225  84.5128708
  39.3118210  67.3250504  84.6714859  39.8342476  65.9293671  84.4067001
  81.4038620  61.7538452  82.5031433  81.5466461  62.3228836  83.2594833
  81.2170639  62.3555908  81.7825623  18.0026436  41.1163025  82.5708694
  17.4080486  41.8542824  82.7052994  17.8515606  40.8490715  81.6642303
  61.1858788  61.4787483  23.9486389  62.0870781  61.5477867  23.6335144
  60.8466644  62.3726082  23.9019089  49.8277893  13.0911264  67.7570343
  48.9559975  12.6963549  67.7761459  50.1862183  12.9225235  68.6284256
  14.7302256  43.8694572  26.9604282  14.8026991  44.5973206  26.3430176
  15.5336733  43.3653297  26.8317509  11.6762896  23.4661865  27.6837082
  11.7916489  22.5983391  28.0707035  10.9828100  23.8706322  28.2049961
  31.0592003  52.1713028  74.6210938  31.8470154  52.7069740  74.7140121
  31.1861820  51.6993256  73.7980881  64.7659683   7.1984892   0.7216887
  64.2092285   7.8118176   0.2419967  64.7366714   7.5065413   1.6274911
  20.6457424   8.3228245  51.6145020  21.0335178   9.1125870  51.2374916
  20.9328175   7.6157494  51.0366898  49.8565903  27.7458839  42.0011139
  49.5441971  26.9270267  42.3859711  50.5336304  28.0513420  42.6048927
  22.7160358  40.8387184   0.8999579  21.9672260  40.7449112   0.3111325
  23.3934364  41.2491646   0.3624697  46.4756126   6.3313017   9.6251965
  46.9193802   5.9258442  10.3701162  46.1237450   7.1507049   9.9730473
  36.8653717  71.2126846  74.4169312  36.6567726  70.6040955  75.1256943
  37.7572899  71.5040741  74.6061783   4.2712469  27.6623306   2.9560273
   3.4570057  27.9197979   3.3884089   4.8910842  28.3566189   3.1796250
  15.8757801  23.7627201  75.9752350  16.5031300  24.3095875  76.4481049
  16.3893242  23.3596973  75.2751846  65.9261398  55.6933174  84.0128937
  65.0302277  55.3970032  84.1734161  66.4283142  55.3487358  84.7513504
  24.3451061  20.4540806  69.6430664  24.8504181  19.7672482  70.0779800
  24.5606556  21.2520866  70.1257248  20.5670261  53.6035233  47.2654724
  21.3490353  53.7556610  46.7348595  20.8009987  52.8678856  47.8314438
   0.8146598  60.1040573  11.5445766   0.4399064  59.2440796  11.3542347
   0.2781187  60.7159805  11.0406885  55.2287407  39.0629311  21.9247837
  55.3041077  38.6625862  21.0585995  55.7157288  38.4759293  22.5031452
   8.3134918   4.9986591  47.3708572   7.9755030   4.1270909  47.1650314
   8.8200455   5.2478175  46.5978394  15.4830647  33.0930138  85.7636185
  14.8443851  33.5699883  85.2336960  15.2369165  33.2874832  86.6679535
  10.0906582   1.4881766  73.8161240   9.9262648   1.6470829  72.8866348
  11.0157928   1.7027191  73.9358368  69.7618637  17.8621960  88.2868958
  70.6275940  17.5430298  88.5416183  69.2008438  17.0874748  88.3228760
  32.6828194  37.1030159  85.6726837  33.2263680  37.0157318  84.8896332
  32.5378494  38.0451546  85.7598114  59.5488968  51.8284760  15.3988552
  59.8053970  50.9170227  15.2585230  59.3090248  52.1465111  14.5284834
  15.9007187  25.7540970  22.6798248  16.4170952  26.5597687  22.7016945
  16.3616428  25.1910000  22.0579700  29.3634949  27.3102264  69.5991898
  28.6870918  26.9182396  69.0468750  29.4756145  26.6884460  70.3182526
  54.7760696  56.5226746   3.3558006  53.8587799  56.3511086   3.1427815
  55.2561188  56.2724762   2.5663815  12.7158985  42.7866898  55.6791840
  12.3918791  43.6657372  55.4829140  12.7062054  42.7357140  56.6349754
  76.4884033  38.3975143  80.4873734  76.6495743  37.7667618  79.7856522
  75.5595169  38.6139145  80.4062271  36.4455185  49.8397446  39.4607353
  35.9773712  49.0843735  39.8163757  35.7795143  50.3282433  38.9769554
  67.8440323   5.7109017   0.2170228  68.5186615   5.0606980   0.4128444
  67.3511810   5.3328042  -0.5112436   1.7117878  16.5725365  19.1002407
   1.8314608  16.8831749  18.2027931   2.6009469  16.4819260  19.4429035
  57.6396523  36.2836380  32.3495674  57.3233528  35.4329033  32.0455246
  56.8805885  36.8619919  32.2749939   1.5662146  53.4625206  75.0212250
   1.5224233  54.1441498  74.3506317   0.8314552  53.6527710  75.6044617
  52.7468643  56.7607269  12.3302155  53.4785080  57.3408318  12.1194878
  52.8958168  55.9825478  11.7931051  11.9327230   6.9232149  61.5311089
  11.0500813   6.5546937  61.4941406  11.8138943   7.8505349  61.3257065
  45.3048515  57.3779907  31.9286976  45.7198448  56.6211815  32.3425255
  44.9058380  57.0268364  31.1326370  79.5162430  58.9621964  55.5200691
  80.3710632  58.8135567  55.9243164  79.2599945  59.8356972  55.8159790
  42.8190727  45.8684769  80.9822540  41.9420891  45.8682747  80.5986710
  42.7562332  45.2666435  81.7239304  70.7386398   1.9014554  34.6658020
  71.5877380   2.2666769  34.9145317  70.3469315   2.5684185  34.1019211
  80.9635773  25.6709023  26.1625061  81.5202103  24.8972969  26.2515774
  80.0725708  25.3387794  26.2721748  32.2896767  17.5263023  80.7073441
  32.7937965  18.3212299  80.8810883  32.2360077  17.0864830  81.5558167
  35.4696770  49.6439133   9.9699354  34.8403893  50.3365059  10.1712799
  35.6711006  49.7656326   9.0421181  45.3802032  67.9985962  71.9170685
  45.3336525  67.7309952  72.8349228  44.7301903  68.6967621  71.8378754
  73.3746796  48.6936989  21.8749008  73.2226028  49.1687813  21.0579548
  72.6209946  48.9123344  22.4229755  17.0942326  37.8017159  72.7811050
  16.2669849  37.9411011  72.3201675  17.7117481  37.5504494  72.0942535
  62.6750717  71.4163818  42.8873825  62.0859184  70.7483521  42.5368690
  62.9017754  71.9567566  42.1305237  27.4759655  33.8992348  75.2442017
  27.3238277  33.8812218  74.2993393  28.4230385  33.7953224  75.3363266
  64.2442093  25.1593895  41.7439270  64.2122421  24.9558029  40.8091736
  64.5744171  26.0570068  41.7824020  16.7491360  48.5046082  56.6877480
  16.9727631  48.4096489  57.6136017  15.8494263  48.1840477  56.6245613
  54.2567368  17.6333885  70.2040787  53.4332085  17.4501171  69.7519226
  54.9308968  17.2672443  69.6316452   5.0770774  25.4957256  45.7630196
   4.7299862  25.5482082  46.6535263   4.8103790  26.3185806  45.3531227
  24.7125988  46.2856827  39.2394371  23.9067078  45.8831825  38.9157639
  24.4302769  47.1210289  39.6118927   4.2950020  25.8240490  35.4949799
   4.8008084  26.6315708  35.4038734   3.6429598  26.0243263  36.1665192
  49.8580971  10.3563032  19.2674675  49.2496643  10.3924456  20.0055294
  49.9063644  11.2588854  18.9524345  45.0275116  39.8366356  64.0398865
  44.8041267  40.7672577  64.0565109  45.1384583  39.6004639  64.9608307
  29.8072605  39.6507225  67.7728500  29.3090916  39.4775505  68.5716476
  30.0408134  40.5770836  67.8323212  44.3388863   8.5917301  10.1300917
  44.0129128   9.4780970   9.9741220  43.8457031   8.0442038   9.5191746
  33.1919518  43.4020042   2.1001790  32.6540337  43.3884583   1.3085412
  32.6587334  43.8680916   2.7441299  57.1020584   0.8140207  30.0697460
  56.7728081   1.6326783  29.6987648  57.0043983   0.1748572  29.3639374
  79.3751907  36.4001389  18.5104179  78.5255890  36.7256050  18.8078709
  79.8386841  36.1697693  19.3156071  61.2601624  66.3026047   9.7882633
  60.7509575  66.7476196  10.4656849  60.7862930  66.4815598   8.9760714
  81.5926437  29.0962715  47.8257523  82.0915985  29.7463760  47.3311424
  81.3240662  28.4516697  47.1710815  85.4775162   2.7184653  58.3195877
  84.9068527   3.0677114  59.0041351  86.3642883   2.8930640  58.6348457
  85.9536743   4.7918563  39.5903320  85.8460693   3.8417420  39.5463333
  86.4946289   4.9359322  40.3667603  13.8419552  27.8985882  80.7729263
  14.6289797  28.0380669  81.2995834  14.1269398  27.3212109  80.0646515
  21.4920120  38.5158691  62.9137840  21.6460419  37.6355782  62.5708580
  22.2367935  38.6814499  63.4918098  70.1973495  64.4826584  61.5715942
  69.6315994  63.7106247  61.5827827  69.6225128  65.2045441  61.8259125
  35.4184265  57.9256287  38.3213043  34.7349434  58.4432297  37.8956604
  35.2886925  58.0807648  39.2568970  28.9798737  61.8681450  22.8319931
  29.2631149  61.2259827  23.4828644  28.5555496  61.3470840  22.1503201
  54.6779251  26.9434700  55.1438370  55.3997116  27.3123169  54.6347122
  54.8048134  27.2917557  56.0263481  66.7141800  18.8111038  67.4827499
  66.1473846  19.2968998  66.8836060  66.1336365  18.1726055  67.8968964
  34.9903641   6.9933834  58.0186501  34.1768379   7.4224257  57.7534485
  35.6762810   7.6238728  57.7990303  69.6919022  46.7982674  37.4463425
  68.7540970  46.8692856  37.6244049  70.0029373  46.1343613  38.0617409
  44.1738434  16.1702576  30.7723141  43.9103889  17.0613995  30.5427666
  44.8397903  16.2845173  31.4503212  30.7873478  21.0727558  60.8136101
  31.0896835  21.5841846  60.0631027  31.4679565  20.4122925  60.9431915
  48.6706467  37.9620171  26.6128368  48.8860207  38.7644577  27.0881615
  47.9576836  38.2150421  26.0264091  43.1836967  62.6287460  75.8114471
  43.2335052  62.0071030  75.0852890  44.0947227  62.8618965  75.9900589
  74.7970352   6.7753401  89.2148666  75.3372345   6.4751520  88.4839096
  73.9273834   6.4197493  89.0318527  72.6252670  39.5143051  34.8854523
  73.1470184  39.7960396  35.6368752  71.8238144  39.1592636  35.2699585
  38.3560143  32.1421356  76.9349289  39.1796913  31.8202610  76.5686264
  38.0042000  31.3980255  77.4235611  79.9384003  35.7261543  32.9761047
  79.9622574  36.2703476  33.7631989  80.4184647  36.2320633  32.3204956
  33.5966797  66.5289230  73.7960815  33.4244461  65.6751404  73.3990631
  34.3975983  66.3996506  74.3040695  44.1025696  48.9121857  31.3610878
  43.8999748  48.1843147  30.7733860  43.3345566  49.4812927  31.3111000
  82.3152161  61.8023872   1.7556739  82.8039474  62.5747643   1.4714134
  82.6658554  61.6031799   2.6237743  64.7871475  23.5124454  29.7714577
  64.9770813  22.9905548  28.9918499  64.8452072  22.8900261  30.4963398
  38.1821671  47.6326027   1.1174916  37.5840683  48.3687096   1.2465521
  38.0831718  47.4027023   0.1935986  83.4446487  18.2784882  25.6673012
  84.0940247  17.7978363  26.1806355  83.9611588  18.7773190  25.0343609
  33.7086220  28.4466553  87.3150177  32.8008118  28.7267418  87.4319153
  34.0324860  28.3064709  88.2047882   6.6628532   4.9941940  10.1740780
   5.8069301   5.1136475  10.5856094   7.0374336   5.8744202  10.1405592
  12.6585703  48.0581284  31.4516411  13.5577650  47.7973862  31.2524090
  12.3567581  47.4101410  32.0882378  34.3114815  12.6929684  68.5358734
  34.1256981  11.9535971  69.1147079  33.4671707  13.1308880  68.4281769
  82.5089569  68.2528915  77.2452545  82.4841080  68.8039398  78.0275421
  81.6419296  68.3549881  76.8527374  23.2241402  57.1158333  46.1209641
  22.4970055  57.5098801  46.6028748  23.1202660  57.4375381  45.2254486
  67.8013458   9.2960176  42.3244514  66.9589844   8.9085484  42.5622063
  68.3482132   9.1751165  43.1006889  84.1050873   4.6754074  79.8204575
  84.1074982   3.7338963  79.9930344  83.1885376   4.9341598  79.9164505
  38.5225945   2.9183993  34.0860748  39.2828903   2.3382976  34.1268425
  38.1843147   2.9331722  34.9813843   4.2727785  53.5880203  26.0958157
   4.3445888  54.2938042  26.7384224   4.2903085  54.0329056  25.2484646
  20.7951488  52.0200958  59.7910881  20.9701595  52.4962120  60.6028252
  21.5696850  52.1754608  59.2505417  78.3201828   6.3916926  44.9407310
  77.3823547   6.5706148  45.0092621  78.3765259   5.6230874  44.3730125
   5.6737614  68.5412750  65.9090729   5.5111461  67.9633026  65.1635971
   4.8018804  68.8111115  66.1975937  84.9660187  31.3598537  61.7524719
  85.7965469  31.6591797  61.3825302  84.7025070  30.6309185  61.1908226
  20.2580166  61.8558159  62.0279045  20.1537781  60.9963112  61.6197128
  20.0920639  62.4787216  61.3203163   8.1525211  41.0880318  84.4516525
   7.5427690  40.3843193  84.2297897   8.8971386  40.6415596  84.8546906
  42.5640068  22.7012615  80.2207413  42.4360695  22.6219349  79.2754517
  41.6839790  22.6226177  80.5889740  35.6063385  29.3337975  85.5182190
  35.3372917  30.1592464  85.1151276  34.8581161  29.0748596  86.0561295
  12.4012127  59.5755577  86.4735947  12.6381569  60.1175652  85.7210541
  11.4832621  59.7880440  86.6422577  80.6937256  32.7646217  58.7340164
  80.9473572  32.9536514  59.6374397  81.3154373  32.0964394  58.4455147
  16.0387974  69.3416443  16.8520927  16.4763641  69.0075684  17.6351395
  15.9444189  68.5760117  16.2854080  48.7563477  18.9944363  83.0605469
  48.1296082  18.3052597  82.8404083  48.3219910  19.8059845  82.7979507
  30.8159313  48.9908867  53.4588089  30.7823696  48.3282814  54.1487770
  31.1372280  49.7782135  53.8982620  50.2647820  17.4183216  79.2993240
  50.3544922  18.3699093  79.2476730  49.8195534  17.1753120  78.4875641
  68.9279099   6.6862011  64.7782898  69.6920624   6.4634991  65.3099899
  68.8990860   6.0072598  64.1041718  72.6405792  56.5934944  63.4457130
  71.8560791  57.0938454  63.2211151  73.2233658  56.7123985  62.6957436
  58.4889259  15.6683636  27.8329296  59.3391876  15.9273462  27.4776592
  58.2358589  16.3950100  28.4022923  30.0070286  40.1540680   3.6132972
  30.2933044  40.9299202   4.0953059  29.8614731  40.4669609   2.7204690
  13.5213556  22.5790577  76.7398682  13.7214069  21.6475697  76.8322830
  14.3067179  22.9543362  76.3416138  78.9422913  23.4452553  11.1708937
  79.8395996  23.4188213  11.5031033  78.8776245  22.6835346  10.5948429
  28.2634525   8.9618387   8.0031633  27.9523468   8.5823345   7.1813226
  27.4834156   9.0081940   8.5559978  61.3527908  37.7448997  75.3202515
  61.2280121  38.2472992  74.5151062  62.3010025  37.7329330  75.4505768
   9.5433464  22.8112812  65.3467789   8.8926544  22.4833031  65.9674759
   9.0346889  23.0571308  64.5740891  61.9033966  58.6816521  35.0139503
  61.7269745  59.6222000  35.0356369  61.2055397  58.2948112  35.5427055
   5.5620275  55.0025406  10.3293095   4.8358397  54.4847260  10.6768064
   6.3293257  54.4401093  10.4349508   4.9430389  49.5533371  52.1893272
   4.7845607  50.4515266  52.4798012   5.2480292  49.6438637  51.2865410
  51.8848686  20.2996521   8.9412203  52.3785210  20.2434025   8.1230679
  51.7304573  21.2363186   9.0638733  64.6077042  12.5557404  68.3040543
  63.8774948  12.5850973  67.6858521  65.0524292  11.7305422  68.1104126
  72.5002365  57.8874588   2.1738055  72.0376816  58.4497147   1.5524024
  73.1026459  58.4768562   2.6276202   1.0663164  30.8119450   1.4067868
   0.4120993  31.1378841   0.7887287   1.1563520  29.8833447   1.1927148
   2.6195428  64.1800003  60.4934807   2.3984380  63.4918671  59.8659325
   2.7754714  63.7139664  61.3148994  71.2077255  70.1334381  72.2652206
  70.8394012  70.3650589  73.1178131  71.7987976  70.8564682  72.0552444
  68.1692200  16.8510361  29.4022484  67.3288574  16.7501659  29.8492832
  68.3824997  17.7790680  29.4997330  47.3211365  51.6076508  20.1809788
  48.0116730  51.7748222  19.5395412  47.5238686  52.1944084  20.9095688
  20.1480503  50.6351624  44.3982544  20.8185101  50.8079147  43.7372894
  20.6352386  50.3041725  45.1527901  14.0520029   5.9669805  10.3258562
  14.8720036   6.3095884   9.9702568  13.3827343   6.5762777  10.0142975
  83.4935226  69.8381119  55.3792877  83.7660141  70.6470490  55.8124237
  84.0364075  69.7932663  54.5922050  82.3021469  36.3400459  85.4500122
  82.8676453  37.1123238  85.4441147  82.0723572  36.2184792  86.3712311
  28.2963448  60.5536995  78.0561066  28.5889111  59.8976173  78.6887131
  28.9073944  60.4698181  77.3241119  31.9541264  12.2944136  82.3599472
  31.3910713  11.9818554  81.6517792  31.7291374  11.7401352  83.1072006
  69.0353851  69.7472534  70.5685272  69.8048172  69.4443054  71.0506363
  69.3700714  70.4314194  69.9887466  11.5110178  25.8879814  58.3263130
  11.9810057  25.0681267  58.1740532  10.5918150  25.6690712  58.1734238
  32.6306572   1.3722042  22.3986149  32.8330307   0.7706356  21.6821003
  31.8395252   1.0109620  22.7984238  76.5640564  31.9109802  37.2613144
  77.0851669  32.6641350  37.5395966  75.9772644  32.2603951  36.5906334
  86.8487091  20.2507839  78.5656662  85.9525452  20.0341396  78.3083954
  86.7563171  20.6828327  79.4148026  74.5747910  47.0855484  26.6190166
  75.0308838  46.9531021  27.4500828  75.0172043  47.8345985  26.2197304
  76.5951614  23.1605625  59.1596413  77.4307556  23.3815632  58.7483253
  76.4265900  22.2578640  58.8895493  25.4238033  31.2782230  50.6836052
  24.8681850  31.0802689  49.9297256  24.9920998  30.8446522  51.4197273
  21.4184284  43.6641693  81.0423126  20.9774857  44.0535889  80.2872314
  20.8335667  42.9610825  81.3248672   4.9208798  57.9239159  24.1878414
   4.3317714  57.9664192  24.9410839   5.7011309  57.4790573  24.5188103
   8.9638443  27.9193516  50.2701111   9.3024206  27.5989380  51.1061363
   9.7459135  28.1074085  49.7512321  78.6808548  17.3891926  33.8079109
  79.2237701  16.7599373  33.3330269  79.2531815  18.1441689  33.9446030
  36.7095413  70.1663284  24.2655525  36.2610092  70.5864258  24.9994278
  37.2650986  69.5018616  24.6730671   4.7591696  60.7381363  75.6483612
   4.8367357  60.7639732  74.6946640   5.2881589  59.9849930  75.9113770
  42.2139397   7.7147551  73.8702240  42.4441643   8.2506208  73.1112289
  42.3094864   8.3048048  74.6178513   9.5083570   8.2194042  30.8120003
  10.3774099   7.8256774  30.8891811   9.1382961   7.8296089  30.0199471
  29.6475792  40.2289162  54.1422195  29.1099319  39.5699348  54.5814362
  29.7299042  40.9360924  54.7820320  70.5187759  15.2837582  78.2303619
  69.9746704  14.8761120  77.5565567  71.3998108  15.2886057  77.8562241
  26.0404472  58.5207443  82.5864258  26.4840260  59.0105743  83.2789078
  25.7437191  59.1912651  81.9711304  67.1160965   8.2839298  79.7362289
  67.4751968   8.7242956  80.5065231  66.2047424   8.1034470  79.9666443
  54.9314919  10.4431925  79.7041931  55.4037743  10.1522217  80.4842682
  54.7497292   9.6377859  79.2199249  75.9005814  26.5061913  20.1650772
  75.5217896  25.6789722  20.4624939  75.4446793  26.6974049  19.3454285
  47.7649002  67.5364609  26.2840843  48.3269577  68.2379913  26.6129913
  46.9364204  67.6557083  26.7484493  40.4244690  57.3421898  86.2523575
  39.7541962  57.7097855  86.8284073  41.1303825  57.0798035  86.8431778
  55.1537361   6.6274719   6.9827523  54.8436050   6.6741147   7.8871174
  56.0516014   6.3034163   7.0538626  59.2044678  59.8635712  36.2791901
  59.6308670  60.2954636  37.0193825  58.4366341  60.4049263  36.0959015
  51.6805191  39.5155029  86.0932388  51.0882454  38.7755013  85.9596634
  51.1077538  40.2823906  86.1007156  16.3582325  53.6081238  19.9674416
  16.4598560  54.0757179  20.7964535  16.9402695  52.8522720  20.0458775
  27.8366013  24.1324863  73.5174408  28.2155590  24.6768780  72.8273315
  27.4919548  23.3674183  73.0568771  55.8286705  54.8574791   5.7117100
  55.4670830  55.3846207   4.9992423  56.7684135  55.0381699   5.6902499
  39.8167458  49.8807526  85.1839828  39.2230530  49.9289589  84.4346924
  40.2781792  49.0497780  85.0708847  84.3537445   1.5639942  24.8137875
  83.7454147   1.6875943  25.5424118  85.1549301   1.2376063  25.2234154
  10.2952747  61.5085564  64.6262589  10.7407064  61.4896584  65.4732895
   9.4783773  61.0321960  64.7745514  49.3757515  32.7250824   7.3259988
  50.2191238  32.2757225   7.3811059  49.2639999  33.1309586   8.1856546
  49.9726105  39.9835930  62.4026451  50.4202309  39.5192299  61.6953735
  50.5663948  39.9114838  63.1499405  10.0659494  20.8812008  28.4505157
   9.5438585  20.8653336  27.6483917   9.4199600  20.9121246  29.1561871
  62.6842003  66.1917419  63.0837593  62.4137688  66.4049301  62.1906433
  63.1562958  65.3633118  62.9997635  21.1039162  26.7390327  26.7934303
  21.3500462  25.8629456  27.0902863  20.5819225  26.5871181  26.0056000
  85.3471985  70.1030960  33.0342064  86.2984772  70.0083694  33.0825539
  85.1439743  70.8005371  33.6575089  57.2734528  30.0582409  60.9563217
  56.7380753  30.7135735  61.4036942  58.1745834  30.3492718  61.0959435
  43.4615211  14.9319391  84.5678253  44.1132889  15.4082317  85.0821991
  43.8376694  14.8850775  83.6888809  56.6982040  34.9371147  35.5541878
  55.8094444  34.6038628  35.6778183  56.6043625  35.8889923  35.5909920
   9.3436642  55.8760719  73.4488907   9.8523130  55.8334312  74.2586365
   8.6765728  56.5409088  73.6198120  53.1999283  66.2234344  49.8269043
  53.6834717  65.4754791  49.4762154  53.1875420  66.0783691  50.7729645
   7.7073393  63.0769043  79.0447922   7.0466914  63.7689896  79.0730057
   7.4958506  62.5758781  78.2570877  66.7922058  29.5117245  63.5743523
  67.3955307  29.3662758  64.3031006  66.1423340  28.8140030  63.6585197
  11.8175831  57.3981209  84.8596878  12.2486897  57.9237404  85.5335617
  11.8517208  57.9424400  84.0730667  30.3469200  39.6729431  75.5799179
  29.6241322  39.5022316  74.9760361  30.0025997  40.3286476  76.1863174
  24.1626186  47.3247566   4.3056493  23.6332912  46.5543289   4.0995336
  24.1613445  47.3673782   5.2618990  63.0317574  49.3548660   0.9454371
  63.3815575  49.6635475   1.7812519  62.4685097  48.6171150   1.1793330
   7.8365974  62.7143059  25.9311123   7.6721492  63.5313644  25.4603653
   8.7011232  62.4344063  25.6303082  42.3708000  37.8465424  74.5827408
  42.4448509  38.0254784  75.5201492  41.7020569  38.4579926  74.2742844
  60.6639442  26.5339355  49.0307236  61.5340080  26.3665199  48.6685219
  60.5789528  25.9072037  49.7492065  65.8692932  29.5382710   6.4129372
  66.3816452  30.1977673   5.9451823  66.4391098  28.7697678   6.4436812
  57.5184937  57.5578957   3.9378395  56.7570229  57.9667130   4.3492537
  57.3832550  56.6186752   4.0635753  44.7053528  62.7722588  48.9997826
  44.3668480  62.2272110  49.7101135  43.9746132  62.8468437  48.3860283
  81.7414246  30.7970028  84.7347794  82.0734634  31.1106949  83.8936005
  81.7998657  29.8434734  84.6748047   3.8450723  12.2313757  21.9294682
   3.2485132  12.7967224  21.4388237   4.2559958  11.6809282  21.2628479
  54.6748734  38.4109535  37.4154663  55.0022736  37.8328438  36.7263870
  54.1471252  39.0611992  36.9518967  22.5886402  53.4764290  53.8593330
  22.8198109  53.6144524  52.9407768  21.8610210  52.8550758  53.8324356
  55.1628036  46.5858536  19.1364250  55.6889153  47.3792534  19.0366383
  55.6730652  46.0329628  19.7281857  28.8315258  60.2072716  61.8324738
  28.5160961  61.0708618  61.5661087  29.5332260  60.0070229  61.2129974
  14.9486151  12.4522247  77.8664246  15.3888512  11.6093998  77.9762878
  15.1225224  12.6965866  76.9574280  71.3028946   0.0625847  79.9622955
  71.1553421   1.0014946  79.8486786  71.4547958  -0.0440900  80.9013290
  12.2411613  28.1720905  26.5577507  11.4526806  27.9605446  27.0575294
  12.2958498  27.4843750  25.8942089  50.3091049   7.7558327  55.0571060
  50.3326111   6.8500237  54.7485771  49.8303833   7.7145319  55.8849678
  65.1925430  16.6504345  30.0232410  65.0243378  16.2530403  30.8776493
  64.3361359  16.6717815  29.5962391  59.2043800  32.9752922  25.3363495
  60.1132698  32.8928490  25.0476456  58.8338203  33.6525612  24.7704620
  66.7762909  40.7905502  26.1222858  65.9192200  41.0461922  26.4633274
  67.4033890  41.2181091  26.7055244  81.9431305  19.4443245  55.0769424
  82.1826324  20.2620163  55.5131226  81.0343018  19.2920170  55.3358917
   7.1113448   7.7563152   9.8833513   6.4297590   8.2049274  10.3837709
   7.0157409   8.0935793   8.9926519  68.4610901  66.8794785  27.2292728
  69.0074768  66.9335403  26.4452000  68.2272110  65.9536057  27.2948513
  11.8232250  66.6336670  21.8930340  11.9885921  67.5676498  21.7643089
  12.2603731  66.4245758  22.7185116  15.2238274  15.2179346  79.0758209
  15.1946669  15.6217251  78.2084503  15.2915888  14.2792978  78.9008942
  22.7662945  28.2161922  76.8897095  22.3380337  27.8333130  76.1240540
  22.0706615  28.2855377  77.5435562   6.2671127  47.4785423  53.6155815
   5.6761737  46.8600388  54.0450859   5.6897712  48.0465279  53.1053810
  57.2174492  51.8638611  69.0042953  58.1441689  52.0904694  68.9263687
  56.7607231  52.7037506  68.9572220  84.8057861   0.2149681  35.0673447
  84.5816879  -0.3032290  35.8403130  85.6228180   0.6547651  35.3024597
   1.6934416  20.0366726  50.1052895   0.9247841  19.8390274  49.5701904
   1.3534982  20.5665379  50.8263397  27.1822090   7.6643267  72.2198257
  26.4950943   7.0934663  72.5636673  27.8700027   7.6387396  72.8850479
  63.4629669  15.5525236  49.5340843  64.1502609  16.1729755  49.2914124
  62.7919159  15.6629038  48.8604851  80.4963150  56.8104477  52.2970314
  80.2424316  57.4555511  51.6370163  79.7515717  56.7761841  52.8973732
  14.0156622  71.7546310  33.3257599  13.5039663  70.9637070  33.1559486
  14.4093390  71.9712677  32.4805870  68.2508469  12.2525768  35.6765175
  69.0645294  11.9736023  35.2566071  67.9702148  11.4913321  36.1844406
   7.3434439  28.7078896  77.1403809   6.6981807  28.4602318  76.4781647
   7.8157053  29.4438972  76.7511597  48.1307335  50.4593773  60.1296539
  47.2376404  50.2739067  60.4198532  48.0343399  51.1731033  59.4991493
  73.4440308  65.2056580  82.1560059  73.5622864  65.5118332  81.2568359
  72.5267868  64.9352570  82.1982651  72.2711182  16.1108494  48.6071625
  72.1423798  17.0457954  48.7669601  72.7367172  15.7972326  49.3824654
  60.3871460  42.9619980  23.5714035  60.0348740  43.8312416  23.7625885
  59.6226006  42.4436035  23.3204632   3.3102860  67.6259155  35.3727379
   2.4444396  67.3429565  35.6668091   3.2526071  68.5808868  35.3421822
  54.5599785  43.8044853  72.8821182  53.8946609  43.3497200  73.3986206
  54.1177635  44.0242615  72.0621338  14.3086519   0.6773418  79.3215561
  15.0014076   0.7675702  78.6672058  14.4943018  -0.1564425  79.7534943
  61.6693230  71.6698761  77.0300064  61.7394447  71.7217178  76.0767899
  62.2692184  70.9658432  77.2763596  24.0960178  55.4513588  48.1057091
  23.9108295  55.8835526  48.9394646  23.8669472  56.1023445  47.4424019
   6.0815649   7.5800982  32.3887939   6.7312107   6.9119329  32.6073036
   6.5723095   8.2403059  31.8993797  69.9906006  38.9496346  43.7360344
  70.1201477  39.5041962  42.9666786  70.6324081  39.2673798  44.3711319
  76.8079071  37.0636368  78.0937958  75.8656387  36.9836044  77.9456177
  77.0473328  37.8891716  77.6726074  24.8356724  64.4146347  11.3929548
  25.7643127  64.3668289  11.1658611  24.6768570  65.3441391  11.5573797
  22.3335133  20.0981426  53.9225006  22.7047043  20.1364384  53.0410347
  21.6402302  19.4409199  53.8620949  44.0170517  43.9050827  32.8004684
  44.9481392  43.9946556  32.5972748  43.7224846  43.1743698  32.2568550
  26.4115486  37.4746094  69.2926559  25.4550114  37.4399414  69.3009415
  26.6628342  36.9695244  68.5193634  47.4630165   6.0410094  17.0164547
  47.8122101   6.5075707  17.7758083  48.0349998   6.2983680  16.2933846
   3.5232091  38.3916740  79.7432327   2.7927670  38.3198738  79.1287994
   4.2875872  38.5497665  79.1891937   3.7268705  10.0883560  86.1216812
   3.8370838   9.8863754  87.0508118   3.8637772  11.0339727  86.0642624
  25.9417686  31.7431355  14.4682856  25.3462753  31.0107422  14.6270857
  25.6951275  32.3982582  15.1211367   5.1658573  11.8845549   8.2932844
   5.5500579  11.6353788   9.1338396   4.2218871  11.8841209   8.4518766
  15.0424671  24.2190571  13.2362556  15.3964691  24.7867680  12.5516996
  14.5798807  24.8145847  13.8258247  18.1810417  60.4035568  21.1197186
  17.8227310  59.6468163  20.6558361  17.8306732  61.1603851  20.6499443
  45.7861176  52.4919128  75.6328735  45.8633842  51.8490868  76.3378830
  45.3409958  52.0218048  74.9278259  59.4514236  52.1155052  59.7742500
  60.3033714  52.4885979  59.5479279  59.5970726  51.1694527  59.7759285
  85.4295883  36.3988037  79.9048309  84.6969147  35.7852554  79.9593811
  85.0173645  37.2622375  79.8768082  76.8955231  50.8556976  21.7703533
  76.7284012  50.6133118  20.8595562  77.5502701  50.2249222  22.0697880
  74.6214981  57.9704552  31.3060093  75.4655991  57.5340157  31.1908989
  74.5500259  58.5562782  30.5523949  68.9352875   1.0646906  11.5313845
  68.2447510   1.0427337  10.8688793  69.4462967   1.8456874  11.3189182
  41.6563530   5.0195694  28.8644505  41.6132660   4.6541696  29.7481117
  41.0832634   4.4564195  28.3441963   1.8655888  51.0557404  35.6225777
   2.1516752  50.4796410  36.3314476   2.1136591  50.5924568  34.8225365
  44.5766258  63.6551628  28.1645012  45.2994919  64.2772980  28.2460175
  43.9099731  64.1266937  27.6650352  50.5001945  38.5175972  73.1911469
  50.6149216  38.5058250  74.1413727  50.6875000  37.6200905  72.9161377
  30.0849648  20.5424500  74.7322311  30.6729221  20.3764648  75.4691086
  30.6475182  20.9236794  74.0581207   9.2513590  22.8499889  78.3315811
   9.3497009  23.5681438  77.7064285   8.3050451  22.7526932  78.4376755
  79.9114380  49.7512817  15.1393480  80.0110321  50.5208778  14.5789614
  80.5980835  49.1517830  14.8471851   4.4616990  19.8079281  88.4845123
   4.4308596  19.5349026  89.4014282   5.3412409  20.1682510  88.3713531
   0.5620111  41.3912773  72.3599472   0.8120753  40.5332680  72.7027588
  -0.2054603  41.6405144  72.8748245  81.6984482  67.1690216  58.6266747
  82.5092850  67.6711273  58.7083435  81.0758438  67.6258698  59.1922607
  39.7150803  46.3173561  21.8553696  39.9680214  47.2253990  21.6889076
  38.8621674  46.3812408  22.2851219  64.4096298  40.4937935  23.0443802
  64.1458664  41.3854561  22.8172417  65.2453537  40.5996780  23.4989014
   1.8782229  52.5624466  81.6765137   1.2540724  52.9655991  82.2799530
   1.6206299  52.8866959  80.8135300  46.8587341  45.7605705  71.2203979
  46.3850861  44.9371643  71.3382568  47.3823547  45.8517494  72.0164719
  37.5972748  64.0368042  74.2440109  38.5030861  64.2715225  74.4456177
  37.6535378  63.5483551  73.4227371  34.9941750  25.8517399   5.5246501
  34.9078369  26.7837334   5.3242383  34.1938095  25.6343784   6.0025649
  15.6849260  37.7373924   4.5593939  15.8841038  37.7325096   5.4956288
  15.5856218  38.6639137   4.3404770  54.6164551  12.8632812  -0.0012627
  54.1584282  12.0818253   0.3082006  55.0399666  13.2179880   0.7804369
  28.9151115  16.7151279  75.3958130  28.6017303  15.9074602  74.9887543
  29.8121605  16.8120022  75.0762024  11.4465675  46.7373276  22.0548935
  10.6473827  47.2463379  22.1906948  11.1776628  46.0167427  21.4850845
  58.7323189  39.3846664  15.1572323  59.5297279  39.0870018  15.5951424
  58.4877281  38.6575203  14.5848103  39.7931023  69.5819321  73.3559265
  39.4524422  70.4738007  73.4248886  40.1028671  69.5130234  72.4528580
  65.4659119  46.8742447  83.7756653  64.8756790  47.1237717  83.0646133
  64.9851913  46.2045364  84.2621078  78.8932266  70.4692459  70.4824524
  79.5094681  71.0557556  70.9211807  78.7963257  70.8371887  69.6041260
  39.7130394  34.5373192  78.3583069  39.5671806  33.5947113  78.2780151
  39.1481552  34.8062401  79.0827560  51.0751762  34.3304787  50.4569702
  50.6531944  34.7584419  49.7119789  51.9771843  34.6502113  50.4374580
  44.1425362  69.2408218  78.8564453  44.3396034  69.7457352  79.6454010
  44.9704018  69.2131958  78.3767471  78.6144409  49.2880440  17.5017509
  78.7953873  49.4673233  16.5790653  79.0347061  50.0077744  17.9724865
  45.6717720  16.0259743  49.8755188  46.3279266  15.6901064  50.4861603
  44.8406906  15.9309092  50.3408089  37.6553764  61.6291733   3.3672602
  38.0303879  60.8305206   3.7384100  37.0191574  61.9209290   4.0202031
  75.2609024  29.8024120  66.0690842  75.1517029  30.7521706  66.0214539
  74.5455399  29.5070248  66.6323242  47.8536606  49.5980911  39.5569000
  47.0433807  49.4013023  40.0269547  48.5424881  49.2024040  40.0909195
  47.1522636  23.5575867  19.6826935  47.0425224  24.1996555  20.3840752
  48.0243912  23.1908340  19.8280163  16.0978317  26.3440323  83.7596664
  15.1560869  26.2172260  83.6444702  16.1682644  26.9924946  84.4602127
  49.8519058  22.4154739  59.5592766  49.6018143  21.7839680  58.8848228
  50.2293396  23.1484489  59.0729408  26.5838127  53.0508423  79.0829697
  27.2680511  52.3848763  79.1503525  26.4652271  53.3639793  79.9796982
  54.1971550  52.5583687  61.0484695  55.1240311  52.4130363  60.8587151
  54.1820297  52.8486481  61.9604683  83.4658051  52.1975212  38.7621841
  83.7860794  52.3567429  37.8743210  83.8292542  52.9156532  39.2802849
  59.0046272  33.0373573  65.1354523  58.1798859  32.9880447  64.6521301
  58.8281250  33.6512413  65.8483505  23.4546413  18.2117615  73.4986115
  22.5326405  17.9574642  73.4601212  23.5503120  18.6374798  74.3505707
  22.7585354  61.0068970  55.1501427  22.7628174  61.9212875  54.8671188
  23.6007309  60.8881531  55.5892754  53.1972961  65.9357452  31.1735001
  53.5093727  66.8391800  31.2248974  53.9680519  65.4043808  31.3730659
  42.8016396   0.4324820  38.1244659  43.2434502   1.2502801  37.8959007
  42.9871597  -0.1532273  37.3904648  79.9613647  45.7211227  79.6900864
  79.4386826  46.4935341  79.9055176  80.3145828  45.9060402  78.8198700
  73.6133728  66.2478714  14.7502213  73.4937210  65.3028641  14.6559963
  74.5355148  66.3947067  14.5396891   2.1247771  56.5052376  80.8530350
   2.8497105  56.1365013  81.3577499   2.3135540  57.4427681  80.8125992
  50.1397133  60.8127632  79.4238739  49.9619331  60.7243767  78.4874878
  50.4589577  61.7096443  79.5234451  57.1200600  55.6825485  55.0256882
  56.3700714  55.1491623  55.2888336  57.5762596  55.8750458  55.8448715
  16.1157875   9.5047722  52.4275017  16.0047073  10.4525719  52.3528748
  15.6465750   9.1484966  51.6730881  58.8226166  65.2962418  33.0031700
  58.2117844  65.9335022  32.6330185  58.6771011  65.3457718  33.9479446
  22.3735256  55.1519241   8.4606152  21.5476208  55.1539574   8.9444609
  22.4391232  56.0341339   8.0950508  44.5654984  17.4265728   3.1537609
  44.5771675  16.4753742   3.2601528  43.7976723  17.7134686   3.6480923
   4.6514897  69.4514465  48.6124153   4.4408121  69.2469177  47.7013626
   5.5492873  69.7820282  48.5822296  75.3766327  26.8726921  25.5954132
  75.0332947  27.4424305  24.9071178  76.3255692  26.9907074  25.5528336
  20.7604542  63.4266968  21.0646343  21.1652031  63.5157013  21.9274731
  20.8126259  62.4907379  20.8710041  84.2304993  31.3682785  72.5453491
  83.4448929  30.8645706  72.7582550  84.9372406  30.9157715  73.0057755
  66.3289948  68.1832428  49.6814156  66.0926971  67.3864212  49.2065697
  66.4895325  67.8890381  50.5780220  32.4675522  33.3984833  70.5599747
  32.7361946  34.1645355  70.0528030  33.2889824  32.9677620  70.7965393
  19.4397144  16.2818012  88.1670685  19.4130917  15.3998079  87.7961121
  20.2164211  16.6824875  87.7766724  55.0279503  51.4118919  77.4684296
  55.4082336  51.6576538  76.6250916  54.7737694  52.2437057  77.8680649
   2.3504372  50.5307236  18.1175289   2.1701181  51.3748627  18.5312252
   1.4987817  50.2347183  17.7961330  13.0473051  57.7737961  42.4672623
  13.8533707  57.8288651  42.9805450  12.7481318  56.8724861  42.5871315
  23.0428619   3.7235854  34.2274055  23.7747574   4.2423105  33.8935127
  22.5600853   4.3266268  34.7926483  66.6795959  35.0814476   4.8536592
  67.6243744  34.9358025   4.8046498  66.5919647  35.9871216   5.1508265
  10.4783697  10.8751307  77.9343185  10.1926851  11.6208467  78.4620667
  10.2471685  11.1143179  77.0367813  78.2894974  63.3857269   5.8803759
  78.5430374  62.4643173   5.8260221  79.0319290  63.8136673   6.3068705
  12.4060163  60.9783211  57.1331635  11.5453262  60.8691444  56.7287827
  13.0264177  60.8330460  56.4188614  49.2117577  27.0385990  15.3540916
  48.7183418  27.5988579  14.7550230  49.9231339  26.6849518  14.8201351
   2.0102258  15.6071682  76.6341324   1.7270597  16.2997475  77.2311096
   2.7422132  15.1865644  77.0852661  73.2343903  10.6373196   0.1859825
  73.9294357  10.5042639   0.8305335  73.6870575  10.6393404  -0.6574160
  39.9443703  62.4128456  65.8235321  40.0721130  61.5580215  66.2348633
  40.8128090  62.6567039  65.5032501  36.9110222  71.2299042  17.9739456
  36.4483871  71.8131790  18.5755997  37.3900337  70.6285706  18.5441895
   6.8783460  37.1893654   2.8584096   7.5654335  36.5332909   2.7413156
   6.5935998  37.3993416   1.9689934  38.9774513  45.2040443   2.3507626
  38.6234245  44.7523689   1.5846771  38.9482803  46.1316948   2.1165740
   0.2261479   8.9276114   4.9743214   0.9160695   9.3991842   5.4410744
   0.4345332   9.0529156   4.0485210  78.3774414  53.1297836  18.1960869
  78.7953033  52.4886589  18.7710514  77.9953918  52.6064949  17.4915047
  71.7308884  71.0475922  30.1984730  72.0588150  70.9232635  31.0891113
  70.7781982  71.0426865  30.2911530  52.3516693  16.3332825  46.1581154
  51.9303322  15.6498775  45.6368980  52.3931046  15.9688826  47.0422707
  53.2875671  23.9006615  69.9621735  52.9692497  23.0007668  69.8907776
  54.1876640  23.8626995  69.6387253  20.7051754  22.2567558  84.0222855
  20.1312561  22.8538780  83.5423889  21.4437046  22.1080723  83.4317780
   8.8805847  52.7659836  81.2994690   8.3545809  53.5633774  81.2385406
   8.7669306  52.3386307  80.4505386  65.9773407  32.3808784  85.9137955
  66.0336533  32.2330666  84.9697571  66.5542603  33.1276703  86.0741348
  84.2625198  30.0724030  30.8951302  84.2960510  30.4888134  31.7563553
  84.1434402  30.7982578  30.2826061  47.1328011  34.3148880  71.4924088
  47.2838898  35.2579689  71.4291916  47.1778603  34.1274185  72.4299927
  25.5245018   3.4767945  32.3876724  26.3301640   3.8186584  32.7753181
  25.4479408   3.9353695  31.5509644  77.5229111  32.4146957  83.3936234
  77.2969971  31.7608471  84.0551910  76.6907349  32.8366547  83.1799393
  61.1439896  30.6444645   8.5617228  61.9447250  30.1946888   8.2919941
  60.4431381  30.0212383   8.3703346  47.6096840  17.3663311   0.7060784
  47.5235367  16.5492134   0.2150292  47.5617561  17.1001625   1.6242771
  70.2127762  58.6265526  17.9123554  69.7391205  58.5550423  17.0836411
  69.7687378  58.0112839  18.4958858  61.8488770  62.9492111  20.6783161
  61.4878464  62.0673180  20.7685966  61.7759285  63.3286896  21.5540485
  54.8839188  69.0115662  12.2923260  54.3788147  69.6489792  11.7875366
  55.5778694  69.5271759  12.7031908  18.7581062  28.5409145  85.6638260
  18.7476444  29.4739418  85.8773346  19.3172131  28.1480808  86.3341370
  36.0331306  68.3718338  81.8651505  35.6665726  68.6052551  82.7180176
  36.6032143  67.6244659  82.0458984  75.5395432   1.1409101   9.6419992
  76.3345032   1.0834904  10.1720762  75.0186691   1.8237782  10.0646229
  12.5251417  49.7285652  68.4544296  12.7530069  49.3107338  69.2849274
  13.2647839  49.5355301  67.8783188   6.5143499  36.4473267  71.3420029
   5.7152557  36.9733849  71.3727112   7.2206140  37.0888329  71.2652283
  70.3622665  15.4428787  10.5183973  70.5253296  16.3511181  10.2639532
  69.5327301  15.2209196  10.0955114  75.0788956  33.7008133  82.9767990
  74.1315765  33.6142349  82.8704224  75.2182007  34.6351929  83.1309586
  22.6071148  43.7492676  19.6137753  21.9078350  43.8741989  18.9721909
  22.5987873  44.5511932  20.1363411  35.4812927  34.2262726  77.9495392
  36.3595314  33.9214096  78.1775436  34.9709702  33.4242630  77.8373566
  19.6925125  66.9532623  80.0687790  20.4291878  67.5599289  80.1429749
  19.5573158  66.8547897  79.1263046  12.7271633  62.6188698  31.0959320
  13.2478924  62.7495842  30.3034763  13.2880907  62.0943451  31.6673050
  76.1136551  29.1028671  82.8843231  76.4943161  29.5996666  82.1600876
  76.2814255  29.6408176  83.6580734  77.6719666  61.2938766  88.7874832
  77.7505569  60.3403854  88.8175888  77.4783630  61.5468636  89.6901169
  78.9365387  28.6919785  65.3287811  79.6885986  29.0245647  64.8388596
  78.1776886  28.9423256  64.8018036  46.5592232  59.9203606  64.0033417
  45.8380966  60.2483139  64.5406113  46.5243263  58.9697685  64.1100311
   2.7079451  29.1214752   4.7044401   3.0641074  29.9433746   4.3670049
   2.0110409  29.3902836   5.3030210  43.0903091  67.0723877  54.0753975
  43.7751083  66.8781357  53.4354362  43.5555077  67.1477509  54.9085541
  51.7726746  20.8230896  40.9309845  52.3167610  20.0412941  40.8361244
  51.9714661  21.1481400  41.8090820  29.8167381   4.3412147   2.9889255
  29.1306553   3.7733483   3.3397107  30.4916592   4.3487735   3.6676421
  76.8780518  21.6527805  16.7910023  76.8435211  21.4847126  17.7326984
  76.5985947  22.5637341  16.6998806  40.0556755  57.1026726  10.0897608
  40.9206848  57.5115433  10.1182461  39.8918152  56.8258171  10.9912767
   4.8266783  28.0785427  47.5781021   4.0544095  27.5131550  47.5910835
   5.4451203  27.6529312  48.1719170  80.8665924  30.9380131  20.8814716
  80.3433685  30.5021858  21.5541668  80.2214966  31.3164692  20.2840977
  10.6470098  60.6467781  68.9433136  10.8354673  61.2004890  69.7010193
   9.7035418  60.4917336  68.9887085  36.9212837  50.2164993  50.2363052
  37.5606346  49.6319237  50.6434097  36.1614456  50.1823540  50.8174362
  20.9053116  60.3790131  71.0576324  21.3302898  59.5873337  71.3875885
  21.3458958  60.5589714  70.2271347  42.7167320  63.8040161  12.7006178
  42.8564835  62.9790497  12.2357216  42.1503029  63.5713692  13.4363251
  58.4107971  59.2742538  57.3691177  57.8994789  59.9103622  56.8689651
  58.5606537  59.6985626  58.2139473  85.9270248  36.9333267  11.3758869
  86.0267792  36.1530952  11.9213438  85.6638412  36.5951462  10.5199680
  59.0285759   4.9609632  70.1025772  58.7126923   5.7438450  69.6514206
  58.6917953   5.0462365  70.9945068  37.8391953   6.6128983  69.9019089
  37.0653610   6.1349115  69.6036835  38.0429497   7.2111845  69.1830444
  17.5720711  65.6615143  70.0065384  18.0531902  65.0434952  69.4562531
  18.0316811  65.6428375  70.8459702  14.2819853  48.6345100   2.0906138
  13.3325911  48.6464539   1.9692067  14.4492188  47.8369522   2.5927722
  32.9646454  59.9043198  73.7127762  32.2160110  59.3080826  73.7297516
  33.4830704  59.6597252  74.4793549   8.4128456  11.2055492  46.6352539
   8.0924959  10.5386562  47.2425919   7.9660354  12.0083895  46.9036560
   5.9806104  23.7983189  53.8720207   5.0943108  24.1170807  54.0425949
   6.3473349  23.6338768  54.7407570  21.7098961  19.8803158  71.1277847
  21.6769562  19.6375904  72.0531158  22.3612518  20.5805264  71.0868835
  31.6074734  16.0394154  72.9734573  32.1660690  15.2876997  73.1712646
  31.2834511  15.8708010  72.0886917   0.4496873  47.5046120  18.2633553
   0.0541239  46.7520485  17.8235683   1.1213208  47.1250801  18.8300095
   0.4037240  53.9710884  86.9059219   0.1620626  53.4136429  87.6455765
  -0.3740295  53.9792519  86.3480072  26.6530151  20.9028091  78.9894714
  26.6519375  21.4843578  78.2291946  26.6570721  20.0212040  78.6166687
   5.0854845  54.7195168  56.8598328   4.3933287  54.8003845  56.2036209
   5.1729431  53.7767982  57.0007820  22.9423237  69.5884476  72.4818573
  23.3276749  70.2299957  73.0786438  22.4643059  70.1145477  71.8408051
  59.5378532  37.2504768  37.0319481  58.7945137  37.1499252  37.6265640
  59.3317871  38.0333366  36.5211639  56.3946877  12.3839226  49.3370895
  56.0687294  12.8303957  48.5556526  56.6427002  11.5122576  49.0289955
  61.7703934  39.5118179  48.8136635  62.4378815  40.0450058  48.3819199
  61.3543854  39.0259857  48.1015282  62.8470268  51.6536140  31.3620605
  63.1849022  50.8732796  30.9225712  62.7978058  51.4060783  32.2853889
  82.0970993  26.1715927  79.1992874  81.6370468  25.4488697  78.7723694
  82.4070053  26.7181187  78.4771423  73.0166473   0.8813404  44.2691078
  73.0267715   1.4766278  43.5195999  73.8330765   0.3873883  44.1937027
   8.9613781  22.1853790   7.5594239   9.2778044  23.0870304   7.5034595
   8.0472908  22.2345371   7.2796736  77.3887177  59.5065155  21.1929798
  77.9211807  59.8207970  20.4622669  77.5480728  60.1379967  21.8944530
  46.0224113  65.7081451  28.8377876  46.5651436  66.0736237  29.5364265
  45.5955467  66.4687042  28.4433651  36.2518806  45.2797089  19.9916859
  35.6315231  46.0048904  20.0658588  37.0778847  45.6954536  19.7444935
  84.4394379  60.1302185  60.7253532  84.3540726  59.9137192  59.7968750
  85.3352814  60.4555397  60.8140488   0.1136871  21.4271240  67.0251770
   0.7556040  22.0962219  67.2628403   0.2592249  21.2766151  66.0911560
  84.7124786  17.1136112  76.3849258  85.5568695  17.5449066  76.5161591
  84.9326324  16.1917114  76.2512512  51.4327049   1.8233576  71.8801346
  52.3005104   1.4209328  71.8455353  51.6066093   2.7617779  71.9533234
  28.4589787   8.5561953  88.7244949  28.7724266   8.1656504  89.5402527
  28.2392521   7.8078327  88.1696014  81.2397156  68.6791458   7.9613199
  81.1233139  68.8172073   7.0213094  80.8952255  69.4758224   8.3648844
   0.1091658  62.2681084  31.1116390  -0.3389538  62.4201889  30.2795982
   0.9266248  62.7604599  31.0369034  56.5985603  60.7553329  54.2211914
  55.7310791  61.0909233  54.4472046  56.5674553  59.8294830  54.4621735
  19.2829056  66.2205429  61.7029648  18.4025002  66.5772400  61.5851212
  19.2453976  65.7626648  62.5427132  48.4716225  24.2901688  78.9779129
  47.8201332  24.9310627  78.6932220  48.9052429  24.0144997  78.1703186
  73.6999969  20.9067535   9.9879942  73.7451706  21.7028637  10.5175219
  72.9378586  21.0373020   9.4237909  70.4827576  35.7038574  79.9245300
  69.9442978  36.3117638  80.4312286  71.0253372  35.2625847  80.5780792
  72.1272125  10.5019026  61.8227463  71.3880920   9.9419584  61.5852699
  72.2916183  10.3033609  62.7445831  17.7156849  49.8454094  63.7489319
  18.2138367  49.0413551  63.8958054  18.3796158  50.5054436  63.5494766
  32.2089920  34.0461578  73.3868332  33.0220261  34.5273781  73.5405655
  32.1707573  33.9379196  72.4365387  71.4283676  21.2191181   7.8903017
  70.6988602  21.5784206   8.3952351  71.0113831  20.6895123   7.2106862
  32.7513504   9.9141350  78.2653198  32.9789810   9.1483049  77.7381439
  32.7805138  10.6462059  77.6493225  18.5926228  19.2440453   7.0497251
  17.9834385  19.0074234   6.3503428  18.0635128  19.2186623   7.8469892
  47.4308891  21.4142437  66.5502930  47.5282021  20.9384861  65.7254181
  48.3116875  21.7320671  66.7488327  16.5995121  55.1088638  28.5732327
  15.9607372  54.7560387  27.9537888  16.0830040  55.3365364  29.3462887
   9.1957636  22.2605705  52.6256561   8.6106358  22.6430817  51.9717865
   8.6511002  21.6274052  53.0932808  85.6135712  27.3932343   6.3158031
  85.5829468  26.6515255   5.7115169  84.7137146  27.4841270   6.6292267
  10.0550489  57.2055130  40.9216843   9.4070187  57.1984177  40.2172394
  10.2938728  56.2857475  41.0367012  17.9414368  59.8164406  85.6197433
  17.6131592  58.9641113  85.9061050  18.8782425  59.6778030  85.4804382
  46.5742760  36.6496544   2.2561035  45.9221268  36.5816345   2.9534612
  46.4069557  37.5020447   1.8540200  45.1652489  -0.1832385  46.1497574
  44.9341393   0.7455915  46.1399689  44.7117996  -0.5508875  45.3911743
  19.6887398  41.7546082  66.1176224  19.0627785  42.4143829  65.8191223
  19.3805313  41.5094261  66.9900436  69.7855301  69.4905396  66.7923584
  70.6687775  69.6104889  67.1412354  69.5100250  70.3690796  66.5306473
  11.3955870  20.4275036  62.3864326  12.0655174  20.0940590  62.9832878
  11.3026028  21.3505058  62.6223412  12.0905151   3.6290388  56.1807442
  11.3548632   3.0296147  56.3061981  12.7035065   3.4058051  56.8811989
  43.5275269   6.2581253  20.8777504  44.2387619   6.8063436  21.2091541
  43.6703720   6.2264490  19.9317989  35.8920364  55.4767761   1.9936687
  36.3526077  55.9936371   1.3326397  35.0239792  55.3274841   1.6189439
  78.0998993  16.2481155  48.4630661  77.1789169  15.9953327  48.3988800
  78.0843506  17.2047997  48.4903946  77.3431625  30.2326641   9.7716551
  77.9557495  30.0798855   9.0521908  76.7262268  30.8787346   9.4278297
  32.3315849  27.7953510  11.8187675  32.9811592  27.2112598  11.4274569
  31.6213360  27.2148113  12.0921793  79.3361893  61.5321922  56.8917923
  79.7928543  61.6720810  57.7213211  78.4714813  61.9201431  57.0260239
  54.3600845  31.4272308  45.3562927  53.8774223  32.1332283  44.9263649
  54.4503441  31.7170258  46.2640953  26.6510983  49.4259605   4.3854899
  25.9743252  48.8148460   4.6766086  26.4489918  49.5857811   3.4636209
  56.6964035  68.7114258  51.2130585  56.1053810  69.2134933  50.6519394
  56.5634537  67.8014679  50.9474792  50.6150398  54.2785187  22.9885559
  50.0934982  54.9262962  22.5146236  50.9200745  54.7411995  23.7690125
  69.5513306  60.5520325   8.7720337  69.7301865  59.6768036   9.1158590
  70.1639023  60.6529503   8.0434704  20.6826935  37.9047470  85.5757980
  20.1595001  38.6395721  85.2555923  21.4557991  38.3130112  85.9654846
  55.7199631  66.0468979   6.8424492  55.7224770  65.4369659   6.1047497
  55.5716362  65.4941711   7.6097283  86.6219864  18.8926926  68.6800919
  86.7425079  19.8104610  68.4363556  85.7885208  18.6458969  68.2792664
  70.1932373  64.5862885   1.1956756  69.8329010  64.3459091   2.0492640
  70.9736710  64.0399246   1.1026863  37.1940422  27.2486553  10.3902845
  38.0514069  27.0010281  10.7364655  37.2940750  27.1923275   9.4399939
  11.1380339  13.7662039  86.6459198  10.2237768  13.9436226  86.8670349
  11.6044607  14.5630770  86.8982544  83.2925720  51.8552666   0.2416364
  82.9596558  51.2468224  -0.4180581  82.5423965  52.4096451   0.4564278
  82.3666077  41.7994461   4.5052991  81.8012619  41.5204277   5.2255464
  81.7740936  42.2288742   3.8882539  64.9271774  18.1393776  51.2933426
  64.1999817  18.7475338  51.4258919  64.8186493  17.4826965  51.9812546
  36.5679779  58.9962234  17.1919594  35.6386566  59.0606079  16.9718552
  36.6192436  59.2874947  18.1023235  32.5259018  31.3909912  63.2688828
  31.7523232  31.5606804  63.8064842  33.2483406  31.3485260  63.8953896
  39.6915703  70.0215836  17.7086296  40.6143646  70.2701035  17.7626991
  39.5148430  69.5751343  18.5366879  43.3708725  26.6715927  72.7862930
  43.9367599  26.2445107  72.1431732  42.5087433  26.2809505  72.6436005
   6.9143920  33.9353180  72.3016434   7.3632269  33.5826073  71.5332870
   6.6663599  34.8241043  72.0471420  60.2666664  27.8448772  44.2327690
  60.1668739  26.9152184  44.4377251  59.3810081  28.2015495  44.3007812
   9.5578594  33.3328972  54.6567650   9.0986195  33.2240562  53.8240089
   9.3377314  32.5465736  55.1562386  76.5773392  45.8372078  57.2017212
  76.9458237  44.9584389  57.1111031  76.7209320  46.2463112  56.3483467
   8.1737127  20.6737328  63.6474113   8.7070169  20.8184700  64.4289932
   8.3816357  21.4125156  63.0753975  31.5108948  12.1045027   5.9469891
  31.0766983  11.6728916   6.6828003  31.8501301  12.9207067   6.3143606
  85.4381256  53.0552101  29.2846336  85.7407227  53.9490814  29.1244526
  85.2075729  52.7214165  28.4176502  11.3006048  60.8581238   4.5834155
  11.1017942  60.4286842   3.7513773  10.7404423  60.4156952   5.2211533
  85.8269806  44.9576073  67.1784134  86.7592316  45.0241890  66.9717636
  85.7901993  44.9955788  68.1341553  71.7136002   7.4106750  79.8725586
  71.9223099   7.2193236  80.7869186  70.8415298   7.0379744  79.7428894
  58.3950005  50.5464249  22.4934292  58.8391991  50.2109947  21.7147064
  59.0702019  51.0377350  22.9613514  72.7554703  65.4550095  66.5245285
  73.4584274  66.1031189  66.4793549  72.3463287  65.4847565  65.6596909
  77.4918442  60.0443954  64.6287384  76.9151840  59.7365837  63.9294968
  78.3554459  59.7049217  64.3938446  32.6452560  57.5065308  80.5026550
  32.4899101  58.4345055  80.6786118  33.0452766  57.1740761  81.3062057
  11.0266123  38.0246925  66.9144440  10.9022856  38.7387085  66.2891769
  10.9325800  38.4385605  67.7724152  42.8736496   2.8665669   8.2345142
  42.9781876   2.7405469   7.2914219  43.3552933   3.6719093   8.4233847
  56.4679565  41.8449707  38.0400734  55.6653748  42.1602135  38.4556618
  57.1069412  41.8063507  38.7517204  85.0215302  58.5424232   5.5335860
  85.7174683  58.0942459   6.0142460  84.6225739  57.8581161   4.9961920
  73.9478073  36.7901802  48.4214554  74.2769623  37.6754646  48.2660255
  73.6754913  36.7935677  49.3390961  29.4534035  48.7699585  17.1515141
  28.6637878  48.2362709  17.0625229  29.2177887  49.6127930  16.7637730
  26.1200733  61.3830833  16.2432327  25.4533672  61.5341454  16.9132462
  25.7765083  60.6568031  15.7229366   9.3868980  54.9875450  60.4460945
   8.8043375  55.6832314  60.1413383   9.0166435  54.1860046  60.0763969
   2.3594332   4.4301500  78.3306732   2.3237681   3.7952073  77.6152649
   2.8825066   3.9998002  79.0070038  46.5725555  57.2424850  64.1459503
  46.2404251  56.8619461  64.9590378  46.6155167  56.5055237  63.5366249
  13.6839190  60.0727501  54.8995056  13.0892601  59.8526878  54.1824379
  13.8712387  59.2341347  55.3212471  66.3746490  11.2699890  11.9738150
  65.5639343  11.1658573  11.4756813  66.1928482  11.9883204  12.5797691
  48.9645958  12.6547270  28.3189640  48.2235260  12.0504971  28.3631268
  48.7344208  13.3606119  28.9230976  81.1118698  62.9777565  79.9957886
  80.3296280  62.8983498  79.4498672  81.8230743  62.6522141  79.4440231
  63.2641792  40.8933182  88.9767456  63.6616859  41.6721115  88.5872574
  64.0059204  40.3824539  89.3008957  75.2116241  27.5762081  49.1957741
  75.7685928  27.3541183  48.4496536  74.5360184  26.8981476  49.2005463
  76.7445526  23.9142666  45.0692558  76.0369644  23.3668003  44.7289085
  77.1616592  23.3758240  45.7418098  19.9972572  56.8214226  32.8002396
  20.2749233  57.3499565  33.5484276  19.7711639  57.4616051  32.1254921
   4.9619794  53.3661804  89.2293472   4.1703048  53.5356827  89.7399902
   4.7296066  53.6195488  88.3360214  67.6198349  24.6259327  37.0994072
  67.3036270  25.0117989  36.2824936  68.5698700  24.5814190  36.9912910
  18.7226925  13.7412491  87.2210236  19.0432663  12.9780226  86.7404480
  18.4151077  13.3870687  88.0553970  30.8098488  37.6997032  15.3632116
  31.2334976  38.5559387  15.3030710  30.1118755  37.8224869  16.0066319
  65.5147324   9.1110592  50.0958939  64.5843201   9.2119102  50.2968597
  65.9530334   9.1937046  50.9428291  32.9434662   4.2940679  75.7745743
  33.7516251   4.4632668  76.2588043  32.8554535   3.3409445  75.7810440
   9.1568718  66.2013550  64.2438049   8.7265282  66.7007294  63.5497856
   8.6056643  66.3381042  65.0143280  65.5204926  63.0301666  56.8907471
  66.3062210  63.3034325  57.3642387  64.8060379  63.4998398  57.3210831
  52.9815865  25.5337009  81.9475250  52.3169632  25.4345856  82.6292038
  53.6776962  24.9278965  82.2018127  70.7482605  67.9863358  76.0512772
  71.5068588  68.1549225  75.4924011  70.4833832  67.0929184  75.8324585
   4.3307805  60.3818321  43.7725868   4.4301190  61.0481911  44.4525337
   4.0769191  59.5906830  44.2478447  51.5237923   7.5452356  86.8803024
  51.6748543   8.0581694  86.0863800  51.6649399   8.1647625  87.5961914
  57.5097504  51.1168556  86.4577637  58.1145706  51.8133621  86.7133026
  58.0388374  50.3195267  86.4815598  71.4796295  62.9309387  82.5069656
  71.2120590  62.0752220  82.8422089  70.6649780  63.4298363  82.4463425
  35.0937271  55.4055023  54.1668472  34.6724472  55.8991661  53.4632492
  36.0150337  55.6609612  54.1202965  53.4339714  12.8567543  43.8609657
  52.7075157  13.4325352  44.0996475  53.6871796  12.4371986  44.6832161
  22.1187954  51.0336685  73.2502670  22.5249138  51.8803177  73.0645676
  22.2052097  50.5422668  72.4333878  77.2957916  17.7216625  42.7705307
  78.0149536  17.2187443  42.3882942  76.5256729  17.4597111  42.2660217
   6.0424843  31.2863770  33.2815552   6.5069084  30.4513073  33.3381157
   6.2714267  31.6297474  32.4178925  83.4600067   0.2984259  10.5978823
  82.9485245   0.6413965   9.8650894  83.0386887   0.6638110  11.3758354
  63.6267738  60.2464256  22.1753826  63.8357735  61.1449394  22.4307804
  63.5283356  59.7784729  23.0045757  75.4811096  50.1726456  87.4916611
  75.4225311  49.6520920  86.6905212  75.5419540  49.5252151  88.1940613
   6.6975708  52.0187531  25.5049381   5.8223281  52.4062729  25.5019379
   6.6437678  51.3007469  24.8742218  44.5167999  62.2609329  14.8203440
  44.4232178  62.2514687  13.8677769  45.1875763  62.9227486  14.9885454
  60.8172302  38.5597191  69.3584747  61.5350113  38.8516922  68.7965317
  60.1214714  39.2002411  69.2105484  69.2892990  34.2522507  55.7979813
  68.3465881  34.1683960  55.6548576  69.4579773  35.1925545  55.7378616
  46.3422546  45.0358315  31.7626152  46.6062317  45.9497452  31.8689537
  46.2053795  44.9341011  30.8207302  52.3363609  46.9638557  70.7187119
  51.7357903  47.7072105  70.6641998  51.9695511  46.4096031  71.4075470
  80.8467865  70.2489014  59.0673790  81.4639664  69.6428452  58.6574860
  81.2362289  71.1132355  58.9351158  44.3917618  45.6647263  74.9811859
  44.8962860  46.4769974  74.9375916  44.8528366  45.0646400  74.3950653
  81.9455719  53.8973885  70.4620667  81.7518845  53.1099548  69.9534760
  82.7984695  53.7219887  70.8595963  37.2597847  46.0163078  39.5451736
  37.5776443  45.2647896  39.0447578  38.0544090  46.4612961  39.8397751
  32.9155960  58.8846512  37.0414467  32.9593277  59.8405838  37.0641518
  32.0689659  58.6931343  36.6380005  55.3938713  33.6920090  52.4216309
  55.5455284  33.2161980  53.2382317  54.7881851  34.3931770  52.6619186
  70.4162064  30.9202557  16.2108364  70.9986420  31.2275963  15.5161781
  70.9036255  30.2157593  16.6378479  23.1518707  31.3627453  76.7832870
  22.8991375  30.4671974  77.0076828  22.6318111  31.9123974  77.3695068
   1.9464506  13.8112469  62.6917801   2.3176970  13.1976595  62.0578079
   1.0503938  13.9564953  62.3881073   2.4552803  25.2751007  57.6605988
   2.9270878  26.0626183  57.9316063   2.8729835  25.0164375  56.8391037
  11.9220762  49.6612511  60.9914894  11.8058462  49.6115723  61.9403038
  11.2116547  49.1279716  60.6349106  16.7881565  66.0421677   8.3425579
  16.2914734  66.1155930   9.1575089  17.6703777  66.3336639   8.5726595
  58.1542854  38.6762505   0.6318962  57.5727348  38.0976028   1.1250476
  58.2112846  39.4693413   1.1648068  29.4328461  37.9570923  64.3258667
  30.0094662  37.4277992  63.7748756  29.5472088  37.5986061  65.2060089
   3.3094814  19.2179565  16.0590744   4.1772432  18.8490028  16.2236748
   3.4827635  20.0992985  15.7282515  48.5834160  53.7764549  15.5864906
  49.1417160  54.5026550  15.3087015  49.1284180  52.9979401  15.4719515
  64.0792236  34.5979080  21.1924458  63.8700867  35.3463936  20.6336384
  63.8672523  33.8329849  20.6574783  32.5872803   5.5506325  18.5813580
  33.1234970   5.4743242  19.3705845  32.2128906   6.4302173  18.6302853
  81.1083221  34.7947693   2.6605322  81.4615097  34.1456032   2.0521929
  80.8565750  34.2876778   3.4323571  11.1955681  10.3892536  53.8366852
  11.6637926  10.7770672  54.5760117  10.5843534  11.0704718  53.5563469
  29.3813343   1.4289818  42.8189850  29.1118336   0.5395721  43.0482254
  29.1043091   1.5361565  41.9090385   6.3697033  50.5682755  35.2426758
   5.4453359  50.7746582  35.3811760   6.8339672  51.3654480  35.4980240
  73.9887161   6.4748912  52.7496719  73.9156723   6.5276394  53.7026215
  74.2232666   7.3622408  52.4779510  13.1113682  31.2329044  82.1780701
  12.5302973  30.4741917  82.2323151  12.7212315  31.7854481  81.5007858
  66.5155945  70.5521393  53.5294800  66.1141052  70.3206863  54.3670120
  65.9996033  71.2937927  53.2133522  53.6329231  60.3239326  51.4610100
  53.5540771  59.4517021  51.0747147  54.2235451  60.7940445  50.8724632
   4.8329458  67.9964828  30.2204800   4.5260329  67.7926559  31.1039333
   5.4754786  67.3139572  30.0267220  47.2204933  33.5496330  21.4577751
  47.8195305  33.0202255  21.9841881  47.1229401  34.3636131  21.9518890
   8.4423323  14.6353168  23.7012501   9.3340178  14.2872829  23.7005520
   8.2100544  14.7007914  22.7749710  54.6462212   4.2999210  27.7277775
  55.4265480   3.7550263  27.8298054  54.9258957   5.1728182  28.0035763
  38.2995148   1.0649356   1.0045829  37.8583603   1.8320805   0.6397512
  38.9153099   0.7960118   0.3228873  70.2074203   2.9981458  59.8106880
  71.0663223   3.2723844  60.1321068  69.8713455   3.7627645  59.3430939
  71.9842453  53.7832031  11.0246410  71.7716904  52.8502350  10.9997978
  72.8579712  53.8195114  11.4138889  41.9526596  10.1908560  11.4392347
  41.9468498  10.3056593  12.3895073  42.6202393  10.8022652  11.1281919
  29.9104919  49.0635033   3.7704508  29.6883698  49.1439934   2.8428652
  29.1620617  48.6092491   4.1574121  46.0877533   3.6315224  66.1840744
  45.2322578   4.0379214  66.3226395  46.5028877   3.6472678  67.0464249
  69.4650269  62.1634369  66.2480698  68.7732925  62.0102692  66.8917084
  70.0939941  61.4580688  66.3999786  26.4446011  53.0245590  68.6559830
  26.6682968  53.8308563  68.1911392  27.0170002  52.3602066  68.2722778
  10.0286160  28.7239552   5.5132284   9.9115200  29.0794048   4.6322198
  10.6920385  28.0417156   5.4100223  16.8296356  56.2120438  68.2161713
  15.9481306  56.4893723  68.4657135  17.0720520  55.5622749  68.8759232
  10.7938528  59.1479340  20.6145210  11.4630613  58.4789581  20.7589645
  10.0122194  58.6548882  20.3651466  29.1803513  65.9605331   7.2236977
  28.7107029  65.3323441   6.6750302  28.7911301  66.8072968   7.0052185
   9.7881355  14.8673401  19.5238895   9.7466373  15.1018600  18.5967903
   9.4584818  15.6407042  19.9815655  20.9999352  70.8982849  23.2025356
  21.2507172  70.7191162  24.1087589  21.8163357  70.8223572  22.7086163
  52.4750557  31.8415146   7.6501760  52.9033928  31.0781059   8.0374289
  53.1495285  32.5207176   7.6510687  57.8329544  43.7576485  19.6737366
  58.0515404  42.8500099  19.4624348  57.6908836  43.7556534  20.6203327
  70.1756134  42.7293968  73.3139267  69.3922882  42.3301086  73.6923523
  70.3871689  42.1760025  72.5621109   2.7072835   2.3299725  24.6194000
   2.9537406   3.2521031  24.6912785   3.5255148   1.8521001  24.7549267
  42.7575455  35.2021065  57.2013435  42.0494003  34.7361717  57.6459503
  42.5434647  35.1318016  56.2710419   4.8190827  51.4267807   4.6832719
   5.7176404  51.6907082   4.8811860   4.5316606  50.9519043   5.4630876
  38.5980148  68.5316467  64.3816833  39.4863091  68.5182114  64.7380371
  38.5450668  67.7438202  63.8406143  65.8135986  15.6108265  55.2120743
  66.3877563  15.5896378  55.9776611  66.3503647  15.2620630  54.5004044
  31.5589600  -0.2774388  78.8257217  31.9981709   0.4662842  78.4131622
  31.1554031   0.0890702  79.6125107  74.8886337  66.1343765  43.2533531
  74.9806824  65.6894913  42.4108315  74.0237503  65.8727036  43.5691490
  68.0871506  45.4252167  68.9420242  68.8137512  44.8598442  69.2040100
  67.4211655  45.2869034  69.6155014  21.0805511  31.8265247   3.2729099
  21.6001816  32.4237099   3.8110435  21.6170158  31.6774330   2.4943151
  24.6001053  49.2944298  16.4262314  25.4427280  49.2355156  16.8765068
  24.8256683  49.5259476  15.5252590  84.6517792  34.9147453   4.1572685
  85.0565338  35.2827911   4.9427285  84.7135925  35.6135750   3.5060799
  55.8220062  16.1780014  50.7262459  56.7310219  16.2744331  51.0101852
  55.4340706  15.5790300  51.3641853  49.1663857  23.5409279  72.2429428
  49.2400436  23.2667809  71.3288040  48.2886429  23.9167767  72.3102951
  67.1002960   6.1552782  10.8591261  66.9779816   6.4237132  11.7697372
  67.6782532   6.8221827  10.4883995  12.1459408  56.4619293  57.9911575
  12.8701134  56.9010925  57.5451317  12.4971008  56.2354813  58.8523445
  20.0839386  65.4224930  76.8270035  20.3143272  65.3171692  75.9039307
  20.6733894  66.1066132  77.1444244  44.2333565  66.6860275  10.8252726
  43.3131332  66.9354935  10.9100285  44.5963631  67.3171844  10.2039042
  42.1080818  57.7783928  69.6004944  42.6789246  57.5985641  70.3475113
  42.6915932  58.1443024  68.9357758  48.9143906  59.8387146  22.2542324
  48.8433723  60.7709770  22.4593582  49.3060837  59.8147354  21.3811722
   6.4039860   4.1359830  16.5780735   6.2930074   3.2760661  16.1725388
   7.1767144   4.0403028  17.1348209  35.0490036  52.0269547  23.9569359
  34.8334885  52.2757416  23.0581112  35.9740601  52.2534409  24.0528870
  50.7475319  54.9665909  46.8645096  51.1649780  55.6707344  46.3683701
  50.3282127  54.4208527  46.1992493  62.6441803  31.5418110  61.8567543
  62.2300301  31.7589550  62.6919518  63.5756035  31.7091064  62.0006218
  57.2806702  11.6505156  31.0223446  57.4959793  10.7525177  31.2742844
  56.9493523  11.5753155  30.1274681  71.8537445   6.9933796  19.3906345
  72.0693512   6.0718255  19.5337524  72.5786057   7.3299303  18.8638115
  40.9966240  24.6714268   4.5434594  40.2726746  24.8714962   5.1368375
  41.6948814  24.3539295   5.1160545  74.5779037  67.6033020  86.8521347
  75.5275269  67.4862595  86.8793488  74.2316208  66.7211685  86.7173615
  85.9790115  21.2187347  74.9180756  86.1052094  20.2721767  74.8522263
  86.8156357  21.5497532  75.2447510  38.3570862  69.9765930   8.2982979
  38.8105316  69.9602890   7.4554729  38.5588684  69.1292801   8.6952629
   2.5657694  49.6488838  44.7299576   2.0449131  49.8920135  43.9645615
   2.0048542  49.0479050  45.2202950  20.0721188  24.1297855  12.9879723
  20.9517422  24.1918030  13.3603296  19.7755089  23.2496567  13.2195444
  72.8320465  27.7424030  63.2008896  73.2735596  27.2890987  62.4826889
  72.1609573  28.2735901  62.7722816  74.2725906  68.1541824  69.1173248
  75.1019592  68.5784760  69.3372116  74.5275574  67.3473129  68.6698990
  62.7722702  61.7202225  35.9854584  62.2503815  61.6298027  36.7827606
  63.6301804  61.3658981  36.2192917  51.3567085  18.8808289  65.3404541
  50.4391899  18.6080837  65.3382187  51.3227158  19.8361568  65.2912445
  71.0512314  44.6168823  65.0341797  71.4175034  44.9684868  65.8456345
  70.1315460  44.4488792  65.2395706  78.3903656  14.9774199  29.6780910
  77.7902222  14.5908899  29.0403938  79.2616959  14.8108835  29.3185329
  17.7910233  40.9040222  45.8125153  17.1112366  41.5756035  45.8681908
  17.7339764  40.5794029  44.9138489  55.6495972  39.6772461  45.3017807
  55.7897835  38.8989716  44.7624626  55.1338348  40.2629700  44.7475739
  80.1587601  62.9331589   0.2767685  79.5510101  62.2111549   0.1168187
  80.8676682  62.5410233   0.7865846  72.8452988  13.9874029  74.7663803
  71.8948212  13.9006748  74.6936188  73.1812363  13.6436157  73.9386215
  55.0541229  13.2269440   4.8469548  54.1373444  13.1712656   4.5774221
  55.2839699  12.3329868   5.1004176  79.6142120  52.2587242  87.2100449
  79.5883636  53.0263901  86.6388550  78.7453537  52.2288399  87.6105728
  61.5224152  30.6249676  76.3929062  62.1202316  29.8810196  76.3194962
  61.9980927  31.2628822  76.9249039  65.6375580  52.4581985  43.8349838
  65.5669327  52.8656311  42.9717102  64.9296951  52.8525085  44.3445702
  37.3036346  66.0907974  34.3895569  37.7149849  65.6347504  35.1237488
  37.0209618  66.9286423  34.7560997  37.2681007  41.4039307  80.5843658
  36.7582359  41.9841652  80.0190353  38.1734886  41.6926193  80.4696426
  59.8284531  70.4750137  21.4996777  60.4742317  70.9677353  22.0060635
  59.1238365  70.2939148  22.1217289  55.4914246  19.9653492  47.8664169
  54.6560211  19.8034286  47.4281082  56.1247978  19.4415722  47.3757782
  41.9085732  38.6547241  69.4736557  42.2280006  37.9031754  68.9742813
  41.3041306  39.0982857  68.8785629  42.9021339  18.9042339  60.0806694
  42.5161781  19.7721424  59.9623184  42.5591660  18.6022530  60.9217453
  79.5336685  44.7417297  44.3912582  79.3917084  44.0847702  45.0727882
  79.6937790  44.2321167  43.5969734  72.0324020   4.5236306  27.5785809
  71.5629578   4.3069344  26.7730389  72.3205643   3.6781809  27.9226837
  37.4607620  45.4326973  57.1930351  38.2725716  44.9354172  57.0934677
  36.8102112  44.7799149  57.4516640  42.9665298  66.0008469  85.1323853
  43.0061684  66.1888885  86.0700912  42.0979538  66.3008728  84.8644409
  85.9300842  20.0261917  43.5371780  85.9655380  20.3975983  44.4186745
  85.1248474  19.5087624  43.5275002  61.4988365  26.4808521   7.9206638
  62.2299423  26.2379932   7.3525648  61.9122963  26.8847523   8.6836500
  57.9058380   2.1976008  72.9635925  58.2782707   2.8624938  72.3844147
  57.5194016   1.5529448  72.3708725  85.8830414  24.9819431  75.8458405
  85.4819031  25.8375626  75.6933975  85.3225021  24.5681419  76.5021973
  52.2234154  61.7921410   0.6338399  51.7765503  61.8769722   1.4760664
  53.1148796  61.5279083   0.8612364  22.3654823  64.6031876   5.3983693
  22.4626064  65.2472992   6.0997338  23.2313232  64.2028198   5.3192778
  68.9355164  32.6151695  10.3325958  68.8347626  32.1363983   9.5098810
  69.3622742  31.9926281  10.9212809  53.4533463  42.5694237  25.4517498
  53.6692886  42.2987595  26.3441296  52.8071671  43.2668266  25.5627327
  84.0513535  66.8138199  65.4211884  83.7366028  66.2648926  66.1394043
  84.9668732  66.9901123  65.6379318  66.7052917  38.0668564  53.2857018
  66.3447266  37.4341850  52.6644516  66.4894104  37.7073364  54.1461525
  52.0336494  54.6285477  32.7706604  51.1521339  54.4105949  33.0734062
  51.9614182  55.5276718  32.4503708  59.2110634  51.5534630  38.3098221
  59.7832832  51.2461205  39.0129128  58.3306236  51.3054962  38.5919075
  23.2548065  59.4288139  62.4284668  22.7756062  59.8069954  63.1657448
  23.8261337  60.1350021  62.1266174  33.2906952  46.6973114  79.7435455
  33.8124771  46.5574837  78.9533386  33.8825836  47.1499214  80.3444138
  46.3460846   5.8876119  32.3051186  46.6140213   5.1282377  31.7876320
  46.8581696   6.6133490  31.9483185  35.6177673  53.0128860  32.0912094
  34.8618774  52.6178818  31.6566582  36.2211990  53.2227135  31.3784142
  66.7547302  47.6876678   4.1785817  66.8104095  47.5258751   3.2367990
  67.6134720  48.0400925   4.4122381   0.5724389  21.8951721  52.1945648
   0.9177006  22.3842239  52.9414597  -0.2409126  22.3462467  51.9682388
  86.3920212  42.5418320  22.9564056  86.3614655  43.4872971  23.1026688
  85.5148621  42.2354088  23.1864815  79.7686920  28.9918575  79.9179001
  79.7284546  28.1481743  80.3682404  80.7022552  29.1370583  79.7642517
  57.9226227   0.9092540   5.0324478  57.4287682   1.1177821   4.2394419
  57.2821350   0.4966877   5.6119304  44.8492737  27.4416389  62.0629959
  45.1175804  26.5738850  61.7609291  44.2606354  27.2681198  62.7975922
  56.3934517   4.3868008  36.4277039  56.2173157   4.0365138  37.3009224
  56.7626343   5.2552705  36.5880089   7.1599188  18.3887253  10.3929415
   7.1847014  19.3291359  10.2161789   6.9137588  18.3248768  11.3157425
  22.9485950  35.6350060  88.9422455  22.2484570  36.1729355  89.3119354
  22.6354637  35.4018974  88.0682678   3.3724031  36.1421776  65.1897736
   2.5791359  35.8867416  65.6606369   3.1136434  36.9134178  64.6853256
  57.0600471  67.8521576  62.1496773  57.0310860  68.0303268  63.0897026
  56.1515617  67.9397278  61.8612022  31.9608040  57.0589447  42.7185020
  31.7559586  56.8301926  43.6251144  31.4946766  56.4065399  42.1956978
  25.6538391   5.6364799  10.8037310  26.3621902   6.2226963  11.0698509
  25.9382439   5.2846742   9.9601803  82.7340851  61.3482628  72.6592255
  82.4881134  61.2560158  71.7387848  83.6909180  61.3219032  72.6552429
  19.6965427   5.3981109  22.2639275  20.0943546   4.6296091  21.8548031
  20.3104229   6.1101041  22.0837898  83.8767776  55.7888603  87.8536758
  84.6225891  56.3881149  87.8835068  83.8182373  55.5248489  86.9354706
  50.4632721  64.6130981  68.4484940  50.6010056  64.6106262  67.5012589
  50.9647408  65.3659592  68.7614746  73.1545029  51.5369072  20.2384911
  72.7828903  50.8572426  19.6761818  73.8986664  51.8778610  19.7423000
  29.2063732  20.3913860   6.1420798  29.0477142  19.6206856   5.5970297
  28.3340836  20.6745148   6.4162722  63.7189674  17.6989594  17.8254108
  63.1199760  17.3182640  18.4676838  64.0535507  18.4894238  18.2490292
  48.7191086  40.4138145  27.9148788  49.1675911  40.1245117  28.7094841
  48.0980949  41.0761490  28.2180099  31.3955879  36.3677139  62.4489365
  30.6901493  35.9416618  61.9620399  32.1503487  36.3272972  61.8616257
  86.3950424  67.0775681  29.1221581  85.6743927  67.6058350  29.4654217
  86.0178833  66.6155472  28.3734798  55.5903664  55.7241516  36.5800705
  56.4165764  55.2425613  36.6210327  55.7289925  56.3798981  35.8966866
  50.0042686  53.3527946  56.8417244  50.1202354  54.0523033  56.1987076
  50.4284859  52.5912590  56.4463310  42.0778847  36.8594742  13.2291737
  41.5463181  36.5473633  13.9614687  41.4492950  37.2676888  12.6338005
  28.9158039  47.3517838  22.9225960  29.8149872  47.4983711  22.6289711
  29.0046749  46.8018265  23.7009792  81.2661896  12.6537638  83.0872726
  81.2598267  12.2321243  82.2279663  81.0650864  11.9480133  83.7018509
  71.0374680  38.0737572  52.8348656  71.6478729  38.8074837  52.9075584
  71.2624817  37.5014343  53.5683823  57.7646790  12.9457846  60.0241241
  57.2048340  12.3058920  60.4638329  57.2941513  13.1626644  59.2192650
  72.1060638  56.3592148  75.8695145  72.4131851  55.5210915  75.5238953
  72.9033585  56.8746910  75.9913177  68.9896240  71.2167435  86.6910248
  68.2866821  71.1348343  86.0465164  68.9002151  72.1070099  87.0311127
  51.3286667  34.2176170   5.6510434  51.9005661  33.6569786   6.1753016
  51.3485794  33.8290520   4.7764864  53.7210960  46.0490570  38.3643570
  53.3037796  45.9765091  39.2227364  54.6216049  45.7593498  38.5105858
  78.5036087   0.0184269  32.2659073  79.1429214   0.7304158  32.2901611
  78.6550064  -0.4671361  33.0767937  40.6660118  28.7495785   4.5963979
  41.4345436  28.5433178   4.0643749  40.9876289  28.7343311   5.4978204
  21.7203808  69.3705978  87.7166748  21.9968758  68.8947601  86.9334946
  21.7746372  70.2933197  87.4679413  74.4161530  37.2290497  15.5201406
  73.8014069  37.2135925  14.7866039  73.9032059  36.9251328  16.2689705
  46.4780769  18.4320278  77.5335846  45.5923309  18.1321468  77.3292389
  46.4768906  18.5530090  78.4831085  55.7439232  46.4818687  41.5543785
  56.3673172  47.1917038  41.4002838  54.9671745  46.9172821  41.9055328
  30.8202057   0.8923846   4.9760618  31.0988369  -0.0202122   4.9001460
  31.6308823   1.3967744   4.9080396  76.2656403  26.9889412  34.9974709
  77.1342621  26.6052837  34.8769112  76.0444107  26.7991333  35.9092102
   9.6200352  44.2281151  52.1984596   9.2650890  45.0749741  51.9281387
   9.0144815  43.5855751  51.8287506  84.6585541   1.8925296  31.9203072
  84.2696762   2.5997245  31.4056435  85.0838699   1.3307369  31.2724419
  34.9992676  43.1630402  28.3580151  34.1536827  42.7766800  28.1301003
  35.6397209  42.6376648  27.8783989  20.1397209   1.9682608  82.6971817
  20.6877041   1.4090306  83.2478256  20.6579018   2.1050611  81.9040833
  16.4558926  59.7545624  81.5635834  15.8700657  59.0755081  81.8981323
  15.9907522  60.1235657  80.8127747  16.8163567  17.1087151  80.3320694
  16.0539474  16.6382160  79.9950333  17.4088211  17.1725464  79.5829773
  17.0225983  68.1083221  12.0868807  16.5722408  67.8457718  11.2840853
  17.4030228  67.2973480  12.4242649  64.1109085  39.3510361  82.1874390
  63.4774284  39.8514404  81.6731186  64.8486252  39.9492226  82.3065567
  62.0231400  42.4086914  76.3217850  61.9362984  41.6017761  76.8292999
  61.1242981  42.7168083  76.2061310   7.9209952  51.3157578  21.9328346
   7.5918469  51.5302315  21.0599689   8.8447599  51.5653534  21.9084740
  54.7445831  21.0408611  63.3673286  54.7661629  20.5485382  62.5467262
  54.2689781  21.8433475  63.1527481  13.8020191  62.4496155  68.3501129
  14.0699739  61.5401878  68.2182999  13.2492142  62.4256210  69.1311798
  27.1918087  50.9020691   6.8071609  26.6142540  50.4831352   7.4452510
  26.6687260  50.9518166   6.0070724  61.5973969  63.2316475  56.9353561
  60.7416306  62.8920097  57.1971703  61.9903603  62.5233650  56.4253120
  20.0522099  61.8665657  39.0206146  20.0543003  61.7709084  39.9730225
  20.7813854  62.4591217  38.8378105  86.1212006  58.4981689   9.3907652
  85.2247238  58.8297157   9.3395414  86.2055130  58.1731377  10.2871342
  75.4046860  17.2964268  31.1481743  75.9515076  16.6144810  31.5382595
  75.8565445  18.1141300  31.3565407  26.4346619  64.8431473  81.5859833
  26.1946964  63.9354858  81.7725143  26.6235428  64.8529587  80.6476517
  -0.0520994  29.8571472   8.6048603   0.5206611  30.0701351   9.3416185
  -0.4283712  29.0068245   8.8320198   4.3162727  52.2973137  16.8615093
   4.1001825  52.4479103  15.9412613   3.8174906  51.5158882  17.0998821
   0.0658992  66.4209213  72.8385010  -0.5141005  65.6594925  72.8307343
   0.7810556  66.1832809  72.2483215  43.3043251  62.4096336  88.1185532
  44.1274376  62.8672791  88.2896652  43.0406036  62.7084045  87.2482529
  71.8289566  15.9123001  88.3765869  71.5261765  15.7197695  87.4891815
  72.0357513  15.0556469  88.7502365  50.0183907  44.6039734  83.9166183
  50.9720421  44.6366463  83.9922104  49.7214394  45.4437485  84.2670898
  43.8430138   7.9127893  83.0680542  43.9369278   7.0086117  83.3678513
  43.3082886   7.8484406  82.2767563  13.3522005  57.7077179  75.3384781
  13.1281118  58.2775345  76.0742264  14.1668072  57.2815704  75.6050262
  27.1875210  51.9281349  38.2078667  27.2973118  52.3528099  37.3570862
  26.5865002  52.5000610  38.6852646  73.2354584  51.1237411  66.5948792
  74.0405121  50.7497063  66.9529572  73.2025070  52.0101547  66.9546204
   8.9566345  20.1632462  55.0786743   8.4068689  19.3796711  55.0784912
   9.6931257  19.9392300  54.5097885  77.6214218  30.2374077   5.4352741
  78.0496063  30.0329056   6.2665777  76.7558365  30.5609398   5.6849236
  83.6276016  18.3587646  16.4273834  83.3719940  18.5974827  17.3183975
  82.8465500  17.9486675  16.0558853  72.5290451  58.5035400  81.2226410
  71.8562317  58.6743584  81.8817062  72.6887817  59.3556900  80.8169861
  28.7186489  64.3945999  83.2167206  28.1057911  63.9750748  83.8205719
  28.2331848  64.4674835  82.3949890  56.8061905  67.2678299  21.5412693
  56.9009972  66.7377625  20.7498989  56.4507942  68.1005554  21.2306232
  24.4551888  42.6871758  74.0568466  24.1910439  42.8602371  74.9604568
  24.0293980  41.8584633  73.8373718   1.3710147  38.4853020  73.3969650
   1.3110147  38.7800903  74.3056641   0.4836529  38.2005692  73.1784515
  78.5843582  71.4227448  21.1201363  77.8538208  71.8714447  20.6944447
  78.4044800  70.4921417  20.9864979  39.8085098  36.1564178  49.1327629
  40.1842461  36.5241432  49.9326591  38.8668976  36.3044853  49.2203827
  47.0321541  44.0054855  87.8179779  46.1021729  43.9141769  88.0254288
  47.1601601  43.4559288  87.0447845  67.8626251  55.3009491   7.1446710
  67.4348526  54.9868507   7.9412770  67.2882156  55.0133781   6.4350305
  58.5265503   9.3178253   1.9824415  58.2355118   9.1368561   2.8761859
  57.9784088   8.7567654   1.4338220  34.5563698  12.6650381   9.8345938
  35.2378235  12.0297384   9.6149340  33.8190460  12.1321163  10.1322174
  65.9052124  66.0636978  66.5828552  66.3851166  66.6981430  67.1152115
  65.1814804  66.5650177  66.2071762  32.7599640  59.5360222  88.6986084
  32.0502510  60.1775360  88.7302322  32.3434715  58.7333450  88.3848038
  82.1219940  37.7235756   2.2021871  81.5394363  37.0021210   1.9647738
  81.5801620  38.5077553   2.1144125  69.1932602  20.3632221   4.2093568
  68.7384186  21.2054501   4.2116780  69.7396240  20.3882408   3.4238069
  24.4248581  54.0837250  63.5941734  25.1815300  54.0880432  64.1803970
  24.6414814  54.7264671  62.9187546  19.2431431  69.3475876  58.4564667
  18.8973160  69.1861191  57.5786514  20.0621681  69.8202362  58.3080292
  39.3284798  55.6765175  71.4911804  38.5887146  55.9902496  72.0113297
  40.0752106  55.7157860  72.0887527  58.6148148  19.9962158  17.1457367
  57.9712677  20.6886063  16.9951553  59.0109673  19.8466110  16.2873001
  40.1465721   9.5733328  80.9394150  39.8703384   9.2470274  81.7958298
  40.5007248  10.4445152  81.1178741  26.8371735   9.9776459  31.8575077
  26.3421898  10.2462015  32.6315231  27.0275631  10.7960854  31.3990955
  26.7544270  62.2884750  67.3301010  27.0081577  62.8222237  68.0830765
  27.0397415  61.4033775  67.5568924  35.7788200  45.3829384  72.9773331
  36.2625198  45.3090134  72.1546555  35.1909218  44.6275520  72.9782257
  47.7825279  19.5442963  21.9123993  47.4758911  19.6941967  21.0181179
  48.6210403  20.0036736  21.9582481  65.4559784  35.1200829  41.8436775
  64.9165039  35.8370934  41.5103683  65.5763550  34.5410423  41.0910454
  62.4436150  50.0496864  60.0022392  63.2800446  49.6044197  59.8667564
  61.8077698  49.5146942  59.5271416  78.6065216  63.8847733  24.6349640
  78.9890060  64.5229797  24.0327740  78.5212021  64.3577576  25.4627533
  23.6222420   7.5529399  76.6927032  23.5465355   7.3163066  75.7683105
  24.2787552   6.9498763  77.0413284  50.1716194   0.9665939  15.2715960
  49.8224220   1.7829633  15.6291342  51.0675201   0.9226322  15.6057568
  84.3817368  21.1512833  71.8984680  84.3276062  20.4619865  72.5604172
  83.7143784  20.9169350  71.2535248  25.4399128  15.4557238  70.8444977
  25.5658836  14.5365267  71.0799484  24.5857105  15.6822758  71.2122498
  39.5984306  58.7837830  50.4876213  40.1918144  58.4794922  51.1743050
  39.9503403  58.4052887  49.6819344  32.3769608  51.5806656  87.6472702
  32.8392525  50.7431564  87.6803894  32.7764130  52.0458298  86.9122238
  84.4549179  22.5043182  11.4749956  83.8676071  22.0056248  12.0429783
  84.8562469  23.1516819  12.0547295  81.1179047  63.8822517  47.5193558
  80.7401733  63.1768188  48.0446358  81.2380447  63.4967003  46.6515121
  65.0506516   9.7120047  68.5528336  64.6203995   9.1676483  69.2122192
  65.7584839   9.1637030  68.2143631  19.5769444   1.0493476  63.6692772
  20.0610027   0.4938109  64.2802582  19.9774742   1.9136934  63.7626266
  12.6842413  67.2899857  26.7607498  12.5942211  67.6360474  27.6486511
  12.7360916  66.3413544  26.8775368  12.3477974  61.0040283  44.7494354
  11.4813566  60.7965584  44.3994827  12.1722069  61.4126778  45.5970268
   2.4532771  27.5966911  64.4275131   2.2125216  28.5118198  64.2832642
   1.7467808  27.2457600  64.9696732  37.8781090  35.9633713  11.3155460
  37.8556747  35.4082527  12.0950165  38.2461319  36.7920761  11.6221962
  75.4583893  33.4930000  86.2372513  74.7969360  34.1847458  86.2512512
  76.0526047  33.7440872  85.5300751  82.2989578  37.6502686  64.7666702
  81.6690063  38.3147812  65.0456238  82.6752777  37.3196106  65.5823135
  63.7859077  33.3111801  10.5014935  64.4690018  32.6805801  10.2735529
  64.2058258  34.1655807  10.4019871  71.3356400  24.6765251  24.5458946
  70.5846024  25.2586575  24.4305515  72.0077438  25.0349541  23.9662151
  81.2558212  57.9142075  37.5408134  80.6194916  57.2105103  37.6677895
  82.0974503  57.5204163  37.7706528  83.6464233  12.2473516  86.4874420
  84.0505447  11.6588593  85.8497925  83.8115082  11.8327484  87.3342438
  59.2534218  65.4898758  57.2243996  59.2263336  66.4449005  57.1658325
  58.7922325  65.1887283  56.4415550  75.5749588  27.6441422  38.7100143
  76.2712936  28.2758217  38.5302238  75.8558044  26.8448181  38.2645531
  44.9169998  29.0091381  84.1664352  44.9054680  28.6515522  85.0542603
  44.8064919  28.2459412  83.5993805   3.2588191  68.9503860   9.6141996
   2.4461772  69.3642807   9.9049501   3.1585550  68.0297012   9.8560905
  25.1852379  70.7648315  51.3133202  24.8087559  71.5806656  51.6433334
  26.1089687  70.8102798  51.5600700  39.9134102  55.1569290  88.4601746
  40.5550385  55.2415619  87.7549210  40.4403114  55.0360641  89.2501144
  82.9463348  44.7375374   7.7329974  83.7519989  44.6167488   8.2355442
  83.2142334  44.6269226   6.8207326  37.3837204  43.4266891  35.5767860
  37.8052635  44.2854118  35.6104164  37.7320328  43.0197945  34.7834740
  38.2931175  50.2912788   4.8828049  39.0179558  49.9084511   5.3770523
  37.6531944  49.5832634   4.8090205  45.4511070  49.6268845  62.9406700
  46.3557434  49.6114616  63.2531166  45.3313904  48.7795982  62.5117111
  20.0305004   6.9171357  17.5811195  20.0778370   7.7251511  17.0701389
  19.5625610   7.1650648  18.3784885  52.4641037  57.6594849   6.3674612
  52.4715958  57.6393738   7.3244205  52.4338379  56.7384033   6.1087689
  49.1353912  25.9594746   6.5019674  49.2970123  25.0607567   6.7890530
  49.0788231  26.4636784   7.3136387  20.8827343   5.8067517   3.4959495
  21.7299004   5.7101746   3.9309361  20.3152866   6.1970625   4.1606994
  20.2381439  69.4391861  14.3565598  19.7173862  69.6965485  13.5957642
  20.8486481  70.1650467  14.4855595  25.2143974  12.1763659   2.5164928
  25.3981895  11.4289980   1.9473770  24.2682247  12.3034344   2.4469006
  82.4518661  38.1770592  26.0419292  82.9208221  37.4415894  25.6477242
  81.9035721  38.5179520  25.3352470  42.3892899  22.2471695  77.4259262
  41.7049980  21.5835552  77.5130615  43.0537415  21.8349934  76.8737946
  59.4727211  32.8494453  49.1351624  59.4647827  32.4747391  50.0159378
  59.2438278  33.7698479  49.2643700  60.7926216  40.8824883  87.7198486
  60.3498459  41.4511795  88.3497467  61.7228317  40.9761314  87.9252167
  21.7623863  47.8341522  75.0303726  22.0647297  46.9465294  74.8381653
  21.9982491  48.3410225  74.2534027  66.0771561  57.4310570  18.1759338
  66.8167419  56.9880142  18.5918102  65.7152100  57.9898643  18.8636551
  19.2725658  44.5843849  76.6091614  19.5062828  45.5064430  76.5022964
  19.9404774  44.1091614  76.1149063   2.2183950  69.1482468  46.5548325
   1.3695835  69.0578690  46.1217232   2.0354161  69.6749420  47.3328705
  71.1197205   1.7401341  23.2002792  70.9867630   1.5416453  24.1271858
  70.8276138   0.9520137  22.7422695  78.0815277  21.2357750  76.6346283
  78.5634460  20.4747314  76.9583511  77.6935959  21.6247921  77.4184723
  64.1826630  14.5501986   0.1954038  64.7212830  15.2746410   0.5136797
  64.6184921  13.7645826   0.5256888  31.8913288   2.0390644  66.1665344
  32.3568382   2.0784903  65.3310852  31.6027279   1.1291484  66.2371979
  40.2536125  58.5285988  81.1453857  40.3047447  59.4251137  81.4768677
  41.1124115  58.1525230  81.3384094  65.6255722  45.7362595  28.0051689
  65.9236374  46.6294327  27.8330441  65.9603500  45.2257805  27.2678986
  77.3343430  36.0138550  29.9290619  77.2826385  35.0747108  29.7514076
  76.5126877  36.2187958  30.3752804  36.3726997  61.2628059  48.4982948
  35.6875916  61.5477333  49.1030083  36.9733772  62.0064583  48.4493141
  70.7854385  24.1217709  67.3771591  69.9686432  24.4047852  67.7882233
  70.8978119  24.7149239  66.6343460  34.5245781   0.4335596  49.5705605
  35.4280930   0.7212616  49.4397316  34.0391998   0.8326498  48.8485031
   2.9703739  41.9010811   6.2297626   3.0396435  41.8955421   7.1844368
   3.7214277  41.3876877   5.9321437  44.3248100  23.2798862  87.3690567
  44.3844643  22.3271961  87.2979507  44.4268456  23.4571285  88.3041534
  70.7136612  45.8940163   7.1308537  70.0726318  45.1923485   7.0169153
  71.0183334  46.0864029   6.2440672  59.7473564  38.4596481   8.4653835
  59.4096909  39.1991386   8.9707212  59.9571609  38.8310051   7.6084657
  45.7297859   5.7327847   3.1309078  45.5666237   6.0422535   2.2399311
  45.4251938   4.8253427   3.1288130  13.5733957  24.5724506   0.8303984
  13.9887066  23.9378872   0.2463809  12.7523346  24.1556816   1.0919187
  65.6959991  58.4312744  85.7792816  65.6508865  58.5157700  84.8268814
  66.5854416  58.7059212  86.0022278  51.2944450  46.7059593  45.7083893
  52.2234764  46.9044304  45.8255997  51.1668701  45.8763046  46.1684265
  84.8446121  69.0531082  81.7759399  84.4350510  68.3615417  81.2561111
  84.1822128  69.2886047  82.4255600  52.5615807  66.2066498  77.2020645
  51.7375336  66.4509277  77.6233826  52.9166756  65.5111923  77.7556686
  61.8477783  62.8163185  62.1655502  61.3532104  62.0083694  62.3028603
  62.7535324  62.5269432  62.0555496  71.3886490  26.5621681  29.2761478
  72.0528488  26.6172562  28.5891018  71.6699066  25.8285732  29.8229237
  85.7064133  46.4199448  77.4319077  85.9433212  45.6372108  76.9344711
  86.3735352  47.0646019  77.1961136  68.3017426  64.3635941  32.5408173
  68.2309265  63.7740593  31.7900410  69.0692825  64.9028778  32.3503151
  43.9958687  26.0044117  57.0880737  43.3298759  25.3724194  57.3587532
  44.0697098  25.8838902  56.1413689  64.4678497  69.2506638  76.0196915
  63.8769989  68.6980362  75.5081024  64.1368256  69.1898956  76.9157715
  58.2776985  42.6290817  14.3822193  57.4007378  42.2925911  14.5664663
  58.8541908  41.8747559  14.5042143  61.4954948  12.4223557  30.9854355
  61.5794258  12.2574730  31.9245853  60.8395195  13.1165314  30.9218197
  24.9323254  47.1729927   1.0142273  24.6883507  46.9840965   0.1081227
  24.1246433  47.4896698   1.4187012  51.2063560  57.6533470  80.1300201
  50.8765831  58.4166946  80.6041336  51.1078835  56.9276505  80.7463760
  78.2994156  13.2192469   7.2397685  77.6879807  12.5711346   7.5895333
  77.8197632  13.6406078   6.5265913  42.6025734  25.2541237  35.9146996
  42.5639763  24.3018780  35.8254395  43.1356087  25.5427170  35.1738739
  78.4070282  50.5003319  58.8143959  79.1479721  49.9267502  59.0099525
  78.0046768  50.1149101  58.0360680  75.0087662  41.9524574  51.7245255
  75.8971863  42.1171761  51.4086189  74.9607162  42.4195213  52.5586586
  55.0927773  27.6503124  15.5673380  54.2069130  27.3657799  15.7920942
  55.6549568  26.9289684  15.8499098  41.1524544  54.0391235   1.7184671
  42.1095886  54.0376549   1.7074612  40.9226646  53.7558174   2.6034336
  80.7020645   8.9557009  13.0219440  80.8798523   8.0538960  13.2890978
  80.1236877   8.8713427  12.2639227  83.9416656  43.7214355   2.3181796
  83.4768219  44.4883881   1.9836148  83.8588943  43.0689659   1.6227192
  63.9912224  28.6848431  31.9727917  63.8948975  28.4318905  32.8909264
  63.7210464  29.6027775  31.9476433  21.7051582  15.7942333  85.8156128
  21.6008472  16.7444077  85.8657990  21.0881081  15.5210667  85.1367493
  80.7190781  54.5631828   7.7795510  80.1546249  55.1725388   8.2552757
  80.2921753  54.4550056   6.9296770  44.9820709   2.4915528  37.0412827
  44.8030243   2.9200885  36.2043037  45.2175598   3.2074850  37.6313820
   7.0110660  56.2102242   0.8134980   6.3323226  56.0255928   1.4626896
   7.5203342  55.4013367   0.7627480  36.4225883  57.0435524  26.8838234
  36.4262466  56.1548920  26.5281563  36.8652191  56.9651375  27.7289047
   7.2325330  47.2768021  28.6182957   7.5667887  48.0365067  29.0951138
   7.5220189  47.4138069  27.7162647  71.3372269  60.0841751  57.5336609
  71.4226685  59.1376534  57.6478157  70.4009933  60.2248611  57.3925858
  61.5879707  41.2860069  58.6673737  62.3889160  41.7338028  58.9397697
  61.4980583  41.4997787  57.7386932  64.2598648  14.6048994  81.6806412
  64.1676788  13.6562166  81.5927048  65.2048874  14.7562504  81.6642227
  17.4585400  27.9291115   2.6494288  17.7456608  27.4136009   3.4031150
  17.1315689  27.2804222   2.0261114  58.6509743   2.3318667  39.0380936
  58.2483482   3.1159143  39.4114494  59.5086365   2.2790627  39.4598236
  21.1051483  70.4090576  42.8248100  21.3161259  70.1226349  41.9361725
  21.0897655  71.3646317  42.7711487  16.4841099  53.5919914  45.6189919
  16.3584270  54.0864754  44.8091049  16.8095360  52.7391624  45.3308678
  25.8384533  63.2253380  41.6328163  26.7850189  63.1051254  41.7089424
  25.4693375  62.6507149  42.3034821  35.8516884  15.7036209  11.2587938
  36.6655617  16.1854115  11.1114225  35.3727760  15.7844820  10.4339685
  19.3313103  37.2645531   5.2461224  19.9124870  37.6325798   5.9117203
  19.3961220  36.3174553   5.3687625  69.5869217  14.2495947  44.8000259
  69.6239548  14.8680744  45.5296440  70.4471207  14.3164082  44.3855095
  72.6028442  23.4829502  28.4429684  72.3860092  23.5807743  29.3701382
  71.8525772  23.0209274  28.0689793  72.8553009   8.6156168  22.2782421
  73.2123260   7.7278452  22.3032036  72.9227982   8.8751717  21.3593807
  29.2838688  54.5912132  19.3217487  29.9128094  54.9770355  18.7119884
  29.6868153  53.7657814  19.5910664   3.5771410  22.2511940  22.5382309
   4.3257709  22.8411789  22.6259975   3.5282683  21.7993050  23.3806324
  35.7223663  60.0990677  44.2859497  36.1655998  59.3282967  43.9314270
  36.4207039  60.6096306  44.6956863  12.7476015  52.2581406  17.7829781
  12.4833746  52.0414886  16.8888435  13.6916075  52.1005325  17.7986088
   9.1771269  39.7612801   1.5707133   8.5335169  40.4195251   1.3085828
   8.6607218  38.9709549   1.7286372  73.8240967  16.4323711  72.3956604
  73.0089111  16.1251087  72.7922592  74.5136795  16.0089493  72.9069519
  11.0117235  28.8935528  22.4222012  10.0999823  28.8364067  22.1363773
  11.4831905  29.2189198  21.6553326  17.8166428  45.8346939  65.9802017
  18.0988655  45.6103745  66.8669205  18.0614872  45.0751915  65.4515839
  48.9268761  48.5334816  52.9043045  48.2805595  48.5798073  52.1997757
  49.6282387  49.1219597  52.6250000  70.7442474  65.8301773  38.1471214
  71.3475494  66.5403748  38.3659325  71.2842178  65.0402908  38.1743050
  12.0331745  44.5734901  30.2094574  11.8637934  44.0044937  29.4585972
  11.6005774  44.1368599  30.9432468  58.1409454  17.8983479  76.0327301
  57.2007446  18.0772152  76.0487900  58.3633080  17.8689938  75.1021729
  75.0951157   6.4675245  21.6661797  75.8397903   7.0661335  21.6082363
  75.2165298   6.0142508  22.5004654   4.7183199  13.3827572  86.3502655
   3.8977473  13.4827890  85.8676834   4.5902724  13.8943167  87.1491013
  53.6577606  54.0614967  11.5668068  54.1329002  53.7281609  10.8056479
  54.3402138  54.4040031  12.1440210  10.1865911  54.5934296  77.0222702
   9.8912210  53.9564018  76.3717499  11.0064039  54.2306442  77.3577194
  79.8570786  35.0954437  56.5443687  80.3339462  34.3711929  56.1390457
  79.0023651  35.0903740  56.1134720  51.2050781  50.2665901  52.9386940
  52.0629768  49.9130135  52.7036934  51.0184593  50.9140549  52.2588425
  68.8456192  69.0919571  28.6958332  68.1158066  69.5087814  29.1539326
  68.4353485  68.4148407  28.1578522  78.4174652  10.5871515  36.8904266
  78.0881958  10.8646326  37.7453041  79.2279587  11.0828037  36.7735367
   9.5610409  48.4729309  62.2223854   8.9098244  48.6533470  62.9003220
   9.1137991  48.6754799  61.4006920  47.0107498   7.1244836  65.0659943
  46.9320183   6.3160553  64.5595627  46.6449738   7.8008242  64.4959030
  47.2617455  15.0866499   9.5237675  46.4392090  15.5654240   9.6259527
  46.9947586  14.2036114   9.2684383  56.0071640  29.7591496  23.7350998
  56.6883736  29.0937977  23.6376801  56.3134079  30.4948940  23.2048836
  56.6206970   1.2178950  20.3374004  56.9064102   1.6364285  19.5253468
  57.2112885   1.5645437  21.0061798   1.9600070  28.0563755  35.1431465
   2.5640228  28.2060947  35.8704567   2.1904955  28.7256012  34.4987526
  60.8844185   3.3857510  24.3914738  61.6246223   3.9489915  24.1654377
  60.1323433   3.7955534  23.9640675  85.0978317   3.8089614  84.0362244
  84.3862305   4.4483037  84.0693207  85.8765488   4.3275733  83.8340683
  34.3632011  48.1349144  58.3606186  33.6152649  48.5598793  58.7804222
  34.6100883  47.4339790  58.9639168  21.0382805  55.2699089  15.1609802
  20.3375759  55.0013847  14.5667238  21.0771999  56.2220421  15.0706444
  48.9956779  36.0468330  59.3282051  48.7851830  35.3294983  59.9259949
  48.5084381  35.8439445  58.5296631  27.9528275   0.4564326  84.8390121
  27.7647858   0.1359655  85.7211533  28.8308468   0.8322577  84.9028168
   8.3524981  17.3752003  54.0642281   7.4790888  17.4179115  53.6749153
   8.9326296  17.1750259  53.3296471  55.8558960  42.2790337  31.1771450
  55.0872803  41.9997330  31.6745892  56.0689507  41.5277290  30.6236286
  81.7394562  22.3769760  19.6291313  82.1682739  23.2173176  19.4673500
  81.0064468  22.3597412  19.0137997  52.1091003  13.2284002  63.2385559
  53.0179825  13.0527287  62.9950256  52.1517792  13.4725780  64.1631012
  75.1423264   1.3333315  88.0476227  75.0717239   0.8720610  88.8833694
  75.9338150   0.9774484  87.6437454  17.1523209  27.5831966  66.2441330
  17.5153732  28.3761177  65.8495407  17.9175148  27.0947685  66.5476913
  70.2613449  10.1833630  74.5037384  69.4848938  10.0202389  73.9682541
  70.4521027   9.3390961  74.9124680  41.7777634  30.3771744  66.9861984
  41.3380775  30.8260193  67.7083054  42.6764030  30.2544498  67.2921677
  80.5966415  31.9540691   1.2475373  79.9071274  31.6226730   1.8228459
  81.2229233  31.2329597   1.1842571   6.9047489  69.9356003  14.0466185
   6.8296599  69.6386642  14.9534931   6.0195708  70.2139740  13.8116703
   9.0768518  69.3337708  82.4064407   8.3959303  69.8153381  81.9366837
   9.3407774  69.9214554  83.1143875  71.8042145  58.4544067  36.5374832
  71.4939194  59.3561974  36.4554634  71.0234070  57.9528503  36.7720375
   1.5286236  17.7371864  78.3381119   1.4021360  17.5981903  79.2766800
   1.0402707  18.5378532  78.1466064  11.6654530  17.8388767  15.8478680
  12.0064383  17.7682686  16.7394829  12.4445362  17.8273392  15.2918749
   8.2807875  29.2648525  57.2878685   7.6274757  28.5656376  57.2652206
   8.7990456  29.0831051  58.0718384   1.5292213  69.6391449  38.5275002
   1.8163986  68.8106003  38.1437340   2.2952764  70.2097855  38.4661522
  22.8798141  31.4640503  84.2092667  22.0853977  31.8089142  84.6169510
  23.5933342  31.8063412  84.7477417  72.8739624   7.9627113  69.6881332
  73.5017242   8.0456944  70.4059448  72.0323257   8.2001896  70.0773392
  14.3955421  60.1673622  50.3751183  14.6565504  60.5076752  49.5193787
  13.4901171  60.4586716  50.4827156  60.5079041   9.4585495  85.3980713
  61.2371635   9.4865923  86.0174484  60.9232941   9.3367481  84.5443497
  68.4932098  19.2802277  30.5569649  68.9841766  19.7327957  31.2427921
  67.6766052  19.7738895  30.4815121  56.7059402  31.8292770   7.1465583
  56.8511162  32.4478264   6.4306297  57.4160461  32.0061226   7.7635732
  48.8564224   9.4381161  22.8447933  48.4724808   9.7144413  22.0126476
  49.2421341   8.5821915  22.6581135  82.9717026  43.0725861  16.7945652
  82.9909515  42.4143944  17.4892902  82.4795609  43.8027306  17.1699486
   2.0226221  40.4553719  44.9678764   1.0800580  40.6177177  45.0059471
   2.1276257  39.5707130  45.3179970   2.2308836  57.0618057  52.2385216
   2.4391851  57.6503067  51.5129089   2.4719198  56.1924515  51.9185905
  36.1556168  58.8887825  87.6821442  36.8224831  59.5715027  87.6085587
  36.6529007  58.0811501  87.8112564  57.1334724   2.9943533  55.1755409
  56.2532120   2.6876986  55.3931084  57.0075111   3.8978565  54.8856316
  35.1401634  47.3459969  38.5945206  35.3415413  47.7898674  37.7707138
  35.9579163  46.9129028  38.8393593  31.4666767  40.9083595  52.1699562
  32.1884613  41.4177170  52.5384865  30.8929195  40.7318611  52.9155312
  40.3155289  48.6308784  48.7259140  40.9141235  48.3096733  49.4002609
  39.4444695  48.5232773  49.1078949  50.2458076   7.1941543  64.3494186
  51.0046806   7.6028280  64.7657471  50.6206207   6.5630255  63.7350731
  46.6974754  48.0075645  18.4837914  47.4034767  47.8934135  17.8475819
  47.0584564  47.6729851  19.3047562  58.3200150  70.6399536  36.2240219
  57.4582901  70.3104019  36.4790878  58.8361511  70.6094894  37.0295677
  60.2126350  16.3352585  18.7025738  60.2211800  17.2500343  18.9842491
  59.7226639  15.8786421  19.3864326  35.0454788  31.3008976  76.3789368
  34.4683876  31.9190273  75.9304733  34.4530563  30.7407856  76.8804779
  65.5220718  25.2569942  35.2663155  65.8686905  25.4959202  34.4066620
  65.0790253  26.0476875  35.5741234  12.3249588  67.4244308  72.3595428
  12.0442324  67.1242371  73.2240143  13.0682392  66.8624573  72.1405640
  69.1216888  33.4715462   6.2965751  69.9691238  33.8656235   6.5034480
  69.0716019  33.4990807   5.3410830  75.5172043   6.7169652  28.4909420
  74.5824661   6.8810234  28.3660870  75.9239349   7.5802493  28.4164944
  27.4132614  38.4257507  53.1107330  26.8877640  38.7422981  53.8455009
  26.8986263  38.6480713  52.3348732  75.2906418  59.3432503  86.2532730
  75.7469940  59.7051735  87.0128708  75.1238174  60.0998611  85.6911774
  26.9902401  29.1008701  68.4312897  26.0942822  28.7683659  68.4854660
  27.4328060  28.7215462  69.1905518  74.3097458  66.5538483  72.5328674
  73.5737686  67.0102615  72.9405975  75.0863800  66.9612579  72.9163971
  17.3304348   3.4218128  60.6846123  16.7631588   2.7877667  60.2459602
  18.1910877   3.0031369  60.6994133  32.5286560   4.2536163  31.5226212
  32.7135925   4.8010879  30.7595310  31.6504116   4.5159836  31.7984467
  82.0256424  23.1579494  14.2247343  81.3068314  23.6974030  14.5541754
  82.5567932  22.9683895  14.9981527  19.1464195  44.0789299  73.4811783
  18.7892246  44.9304047  73.7334290  18.3775978  43.5188255  73.3742752
  46.5920677  41.6376686   5.4920955  46.4160385  40.7469177   5.7950964
  46.3622208  41.6244240   4.5629954  61.6584511  46.6652870  41.8870239
  62.2518158  46.9994698  41.2143669  61.1556702  45.9814110  41.4445839
  34.0499458  66.1872330  63.0446358  33.9829292  65.8303833  63.9303017
  34.8138809  66.7631454  63.0756302  38.1498604   5.3591952  88.6876144
  37.9071808   5.8768573  87.9199142  38.9583931   5.7630119  89.0029526
  21.9643726  60.7912369  85.7279968  22.4146481  60.1625137  85.1639175
  21.1643715  61.0112000  85.2506714  41.8814964  50.0607109  14.3314247
  42.1555099  50.9468994  14.0951595  41.3438225  50.1771011  15.1147470
  63.5022392  52.1566963  41.6594009  64.3923798  52.3528900  41.3671799
  63.1053200  53.0144653  41.8107834  37.7864609  41.5322990   4.0247669
  37.7146950  40.6561317   3.6460655  38.6005859  41.8832703   3.6638591
  81.4853363  58.9908714  76.4011841  82.3510742  59.2441673  76.7214432
  81.6048737  58.8678474  75.4594803  64.1412811   4.6740999  37.7883263
  64.9172440   4.1137009  37.7801323  63.7519302   4.5314665  38.6510506
  79.0506134  29.6190376  77.2953568  78.9311829  30.5687389  77.2894211
  79.1488800  29.3957787  78.2209549  53.3732147  44.2084122  23.2378216
  53.5968323  43.6438179  23.9777260  52.5622330  43.8374939  22.8900299
  10.1050539  42.5831871  66.9640045   9.4520035  41.9057274  66.7884979
  10.7543325  42.4757881  66.2689209  24.7156849  19.6890926   1.0573941
  24.2975597  20.4152393   0.5946711  25.6528320  19.8223858   0.9152062
   9.1086693  60.8121490   9.7958851   8.7932167  61.4503136   9.1559896
  10.0614281  60.9015160   9.7736044   9.8230381   7.9324155  53.7802505
  10.3671179   8.7199020  53.7716713  10.4217882   7.2303810  54.0349617
  52.9419060  43.2193146  76.6772919  52.6712265  42.4055328  77.1024017
  52.7427864  43.9019852  77.3180237   8.4407654  25.5807247  52.5123024
   8.6799507  26.1505241  53.2432976   7.6195002  25.1721668  52.7858620
  48.5044327  50.1248932  56.2855415  48.2063942  50.3445930  57.1682320
  48.0316849  49.3220520  56.0660172  54.4394188  58.2674561  58.0263786
  54.1147652  57.3709145  58.1103020  54.7628174  58.4878349  58.8999252
  21.5056057  58.4677086  34.1921692  21.0625420  59.0738449  33.5984306
  22.4306355  58.5333328  33.9550133  65.9755707  44.3582649  25.7914085
  65.7370605  44.7170715  24.9366550  65.3059235  43.6978340  25.9692516
   6.9737487  31.6476173  30.7009602   7.1305904  32.1270943  29.8874893
   7.2299366  30.7471771  30.5014477  12.8281460  40.4735184  47.4063530
  12.7181873  39.6047630  47.0198174  12.7985449  41.0729408  46.6606674
  62.6965256  12.5455055  65.5117416  63.4909058  12.1261625  65.1810684
  62.3047180  12.9573135  64.7415924  68.4175797  69.7627640  18.4301758
  69.1676636  70.2691650  18.1184616  68.4516907  68.9494858  17.9265385
   9.1985826  25.9289646  22.8054485   8.9742289  25.0194702  23.0022202
  10.1550999  25.9374866  22.7703266  39.7449226   6.3748970  32.5315781
  40.5303307   6.3304944  31.9862385  39.1602592   5.7121711  32.1638947
  32.9963264  39.3624382  74.8794861  32.0838280  39.3342705  75.1672058
  33.3118896  40.2190552  75.1673355  36.5526009  46.7819328  26.9951057
  36.7023430  47.6610336  26.6472702  37.4232597  46.3855057  27.0271225
  55.4254646   0.7873126   7.6963854  55.6267509  -0.1187990   7.9302163
  55.1513481   1.1918377   8.5194597  58.5539665   1.9223803  23.1829777
  59.1497993   2.2140355  23.8730164  59.1280403   1.6911455  22.4527702
  10.9185734  56.9397812  71.4910965  10.3175602  56.3228302  71.9086990
  11.5584021  56.3855896  71.0441971  74.9749298   4.4917998  80.4173660
  74.5500488   3.6808324  80.6967316  74.8017807   5.1098375  81.1274948
  61.0581856  17.5511322  69.5911331  60.1223717  17.6634064  69.7581177
  61.3990326  17.1564045  70.3937836   9.7271547   7.4173737  10.3239393
  10.1368799   7.3861408  11.1884518   8.8224106   7.6776414  10.4969435
  70.4724503  10.8812475   0.3787900  71.2704620  10.3526754   0.3740529
  69.7675476  10.2521315   0.2253117  69.3227921   1.3188019  17.3770180
  69.7963943   0.5676000  17.0197716  69.3835526   1.9869754  16.6943150
   7.5389214  48.1993217  35.5114861   7.1952629  47.7830696  34.7210045
   7.3120632  49.1240387  35.4132004  40.5102844   0.6258044  31.5291653
  40.7640762  -0.2165251  31.9063969  40.2999115   0.4260782  30.6169777
  48.4342957  31.9885120  23.3094692  48.5163155  31.7460251  24.2318058
  47.6305122  31.5574379  23.0190506  20.9284267   3.3409996  80.3893814
  20.0275536   3.6523581  80.4772339  21.0866470   3.3288159  79.4454269
  50.7195435  70.5248260  72.3577499  50.4982834  71.3895950  72.0121231
  49.8773918  70.0775223  72.4410095  22.0641766  37.4801559   6.8728175
  21.5874481  36.8081284   7.3599930  22.2212048  38.1741028   7.5131407
  77.5006104  39.4617958  15.9094954  77.5091629  38.5958977  15.5015984
  77.2090530  39.3009377  16.8069096  54.7316551  59.1229439  73.9268951
  54.6912880  60.0144615  74.2730179  53.8313713  58.9252281  73.6687775
   7.0962205  48.2170296   1.8475026   7.9613533  48.5870934   2.0230851
   6.4838490  48.8566513   2.2109838  54.4631882  69.6108551  81.0732956
  53.9469414  68.9811401  81.5764618  55.3626785  69.2902374  81.1392670
   4.6113591  53.0604973  44.3638191   4.1977730  52.7353630  45.1634865
   5.3730197  53.5521927  44.6709671  31.6966648  20.7690735   9.2084246
  31.1145973  20.4641762   9.9044609  31.4715099  21.6925087   9.0952644
  70.4894562   2.9178717  54.2542267  69.5837708   3.0451963  53.9718132
  71.0143814   3.3322613  53.5694199  70.0718231  49.5017967  51.0206871
  70.6772766  49.0829086  50.4089737  70.6313019  49.8294144  51.7248764
  77.6743393  68.1301193  44.5961800  77.4715805  67.1962204  44.5417480
  77.2366943  68.4240570  45.3951149  10.6238346  26.8394585   2.4094779
  11.2705498  26.7546120   1.7089118  10.9501419  27.5582161   2.9509048
  35.0071945  35.9539452   0.1664311  35.7096519  36.0832977   0.8036552
  34.2130775  35.8840027   0.6962594  53.7835770  64.2010422  58.2803459
  54.7183113  64.1546783  58.0794678  53.7376060  64.0999146  59.2310791
  71.7369308  14.8451509  61.0188751  72.1779556  14.1805878  60.4896431
  71.3438339  14.3544760  61.7406425  14.2608337  44.1728783  68.7414551
  14.6377382  44.8406677  68.1685410  13.6233873  44.6472473  69.2751923
   3.7126977  66.4126434  78.6020584   2.8900819  66.0831528  78.9639511
   3.7515423  67.3253632  78.8878403  10.4904261   2.7386999  37.6194916
  11.2406063   3.3031540  37.4328041   9.9247265   2.8308122  36.8528557
   9.5953979  64.4871750  58.1621361   8.8514833  65.0889511  58.1883774
  10.1321449  64.7369308  58.9143066  71.5675430  22.2654552  55.2743988
  70.6403427  22.4722385  55.3917465  71.9350052  23.0429611  54.8540497
  29.0190086  53.1880150  72.6436081  29.4969063  52.6220779  73.2498703
  29.6642551  53.4240189  71.9771347  44.6548767  26.2675400  75.5554581
  44.1475296  25.7042065  76.1398315  44.0295792  26.5417652  74.8846130
  68.8853455  24.7691574  53.7088890  68.3930893  25.1231174  54.4495811
  69.6678009  25.3180790  53.6570625  49.8527107  59.8078613  19.7032566
  49.1668892  59.3638191  19.2045536  50.4246407  60.1890335  19.0370483
  50.6483879   7.1502056  39.9835014  49.7401276   7.2433348  39.6960640
  50.8019485   6.2054243  39.9897652  33.0378952  68.6740875  33.4551926
  33.7140579  68.9044571  32.8180351  32.4320641  68.1142120  32.9696693
  39.1525421  50.5005608  34.0296364  39.4538765  50.6081657  33.1274986
  38.2547913  50.8325768  34.0234985  19.7576809   5.9562407  87.0260925
  19.7156391   6.2614799  86.1198349  19.8090534   5.0030212  86.9556274
  16.6756859  30.1508102  64.5775299  16.4930840  30.8222733  65.2348175
  17.3488083  30.5393543  64.0188065   8.1240816  61.0040474  14.0061550
   7.6306806  61.5880089  13.4301538   8.3901253  61.5592117  14.7391233
  83.7622528  54.8428192  66.2851410  84.5450745  54.8748283  66.8350449
  84.0006790  55.3358765  65.5001068  73.8445969  53.0748901  28.7120075
  73.8251266  53.5648918  29.5340481  73.0660706  53.3692055  28.2392387
  38.1387901  57.1557655  76.2906952  38.7742310  57.2490845  77.0004425
  37.4968071  56.5293045  76.6248245  64.8046265  61.1415977  31.0067463
  65.3862991  60.7417526  30.3602085  64.2441483  61.7256508  30.4958897
  53.5081711  62.9448318  41.7524986  54.3859863  62.5806694  41.8667870
  53.6014328  63.5749626  41.0380287  79.3422775  59.7480049  78.6734009
  80.1051636  59.3773117  78.2297440  78.7927246  58.9913063  78.8774185
  41.7899551  58.1289101  28.6520462  41.6230850  59.0470161  28.4388046
  42.7417259  58.0404778  28.6016178  39.1209488  39.6730576  86.2745972
  39.9425583  40.0922928  86.0187988  38.4399643  40.2377090  85.9090042
  63.0739517  64.8473358  25.6076393  63.6778564  64.2380676  26.0322857
  63.6230316  65.5874023  25.3487110  36.6917534   3.2707753   0.8784766
  37.0763588   3.8879569   0.2560638  35.7475586   3.4048347   0.7963067
  14.8342695  44.2969284  81.3420715  15.0201101  44.3347511  82.2802963
  13.9760885  44.7110100  81.2510071  19.0416393   2.3012025  13.0718689
  18.9433155   3.2149210  13.3396053  18.1756783   2.0516319  12.7492847
  11.2277975  64.7739334  60.4535103  10.9356565  64.3197174  61.2438087
  11.9483747  64.2381897  60.1218719   1.4448869  16.3047504  56.9741974
   0.7011992  16.6749859  57.4496841   1.3009200  16.5648556  56.0643349
  57.9523888  48.7792969  75.6236649  58.4816170  48.0548859  75.2899323
  57.9901428  49.4413643  74.9333954  54.4236832   3.9036415  59.5041695
  53.7367401   3.7595398  58.8533440  54.1193771   4.6565189  60.0109291
  57.6353340  61.1029205  15.4107809  57.1780396  60.9748268  16.2418671
  57.0562477  61.6722183  14.9040356  39.6424446  34.8954277  37.8586426
  39.8845329  34.1900063  38.4586487  38.9852905  34.5049057  37.2825584
  21.2673988  48.8531761  37.4013023  21.4398479  48.0252838  36.9528732
  20.3992271  49.1152000  37.0949440  49.2359123  45.0652237  52.4975319
  48.7328911  45.1078224  53.3107910  49.5981712  44.1792946  52.4860992
  38.3351059  53.4151001  24.2637291  38.7224998  52.6134911  24.6152649
  38.5826683  53.4152565  23.3390980  34.3719788  58.9845238  82.5148468
  34.6930466  59.8019104  82.8956680  34.5413475  58.3243752  83.1869736
  74.8249817  46.3580055  69.5056992  74.8667374  47.1518517  70.0389023
  74.4385300  45.7008018  70.0844650  56.2073517  34.2892036  15.1574345
  56.6019440  34.6882172  14.3819885  55.4746208  33.7763748  14.8163452
  60.6244736  44.9653320  87.7068481  60.0145454  44.3151360  88.0553665
  60.0949440  45.4953270  87.1110840  47.7518387  24.6157684  16.5302238
  46.8000221  24.6963005  16.5917835  48.0286827  25.4014244  16.0587044
  80.8529816  56.9391365  83.7082748  80.6418762  57.6133347  83.0624313
  81.7997437  56.8213348  83.6308060  41.0323296  37.0288658   4.4850569
  40.6136208  37.1475372   3.6325123  41.4217644  36.1555710   4.4411473
   9.5391760  24.3957939   3.2352657   9.9694567  25.2155571   2.9922030
   8.9632359  24.1993504   2.4963918  77.0406265  39.5844879  23.8240662
  77.2428589  39.7492599  22.9030972  77.3872757  38.7082787  23.9923573
  79.6304169  41.8456802  57.3729477  79.0889053  41.0572548  57.4102135
  80.5129395  41.5218048  57.1926994  12.7084532  57.9549026  48.0526466
  13.4099703  57.4299545  47.6672478  12.9700232  58.0705376  48.9661255
  38.5304108  39.2437820   9.4453354  39.0928879  38.5610504   9.0796490
  37.7034912  38.7988548   9.6310215  86.0163040  62.3648300  15.1709261
  86.9395752  62.2367058  14.9532557  85.6682663  62.8812180  14.4439831
  27.3725204  26.6729546   9.2512627  28.1883259  27.1717453   9.2076626
  27.5146751  25.9295940   8.6652279  73.3336029  18.1261368  16.2486305
  73.6562881  19.0273037  16.2473927  73.2937698  17.8847237  15.3232298
  40.8102798  68.5200806  36.0374832  40.3573952  68.7836456  35.2364464
  40.1665154  68.6566086  36.7325783  72.1388550  36.4634972  41.6561089
  72.9764862  36.2057457  41.2711754  72.2267380  37.4035797  41.8134460
  16.8270035  66.8246384  48.4103889  16.3092766  66.1558685  47.9621353
  17.7349892  66.6029663  48.2038574  28.3190823  59.3469086  50.7742615
  28.4781189  60.0330696  51.4224281  27.4015961  59.4600029  50.5259476
  71.3399353  39.7707024  73.8274689  71.7685928  39.6613846  74.6763153
  70.4277420  39.9647865  74.0430222  63.4544640  36.1686440  69.2939835
  63.5991020  35.2225494  69.2793198  63.1266060  36.3744164  68.4185486
  69.4108658  42.2372398   1.1142819  69.8888702  42.3302612   1.9383492
  69.1054993  41.3300552   1.1156098  82.7673187   5.8564992  46.2801056
  83.4231262   6.4657331  46.6192017  81.9291382   6.2823339  46.4599648
  71.0315399  61.0235786  35.9888153  71.9765778  61.1569786  35.9157257
  70.8332443  61.2123337  36.9060326  48.8954582   7.2827921  74.6040649
  48.0119705   7.6086545  74.4323349  48.8844604   7.0369248  75.5290833
  51.8349380  25.5528107  49.5253868  52.5039444  26.1986675  49.7523804
  51.9659462  24.8416939  50.1525879  21.9173660  66.0743179  45.6566238
  21.2837677  65.4645309  45.2785454  22.1035175  66.6941452  44.9513588
  25.3316803  63.1998940  20.3717117  24.4700222  62.8896561  20.6501560
  25.6850567  62.4837494  19.8439808  56.3786354  66.1648331   1.3855357
  56.6404686  65.9437790   0.4917748  55.4233246  66.2134094   1.3501687
  56.8217010  44.3420067  22.0620804  56.5603714  45.0281029  22.6762562
  56.1151428  43.6978607  22.1077347  38.8109894   8.6819830  66.9510269
  37.9277344   8.8797588  67.2624435  38.8668213   9.1141262  66.0987549
  52.7778816  62.5055885  80.8561630  52.9335747  62.5147476  79.9117584
  53.0872688  61.6459084  81.1415863  36.8385658   3.8496008  70.9694977
  37.6165123   4.3889828  71.1112747  37.1786537   2.9605484  70.8687057
  80.2463226  11.7008772  17.0699482  79.4676971  11.4140129  16.5927925
  80.9780807  11.4559336  16.5035877  10.9417000  68.3913651  58.3516045
  11.8375454  68.7211533  58.2813721  10.7445564  68.4310150  59.2874451
  47.0959396  62.6422462  79.2683258  46.9238739  62.8928909  80.1759567
  47.3202019  61.7128563  79.3149033  13.8415279   3.2456374  53.7237053
  13.5983620   3.3111098  54.6471863  13.0129356   3.3272927  53.2514801
   8.7482491  70.2215195   8.9660730   8.4615860  71.1153107   8.7784710
   8.3562927  69.6933365   8.2706413  32.7825813  44.5874825  81.8834152
  32.2715912  44.4294891  82.6772385  32.5304985  45.4687843  81.6077423
  82.0540619  10.0698967  69.3162308  81.7226791  10.1044750  70.2135696
  81.2876282  10.2471113  68.7708740  43.6724625   9.3760452  75.8633194
  44.0417824   9.9079504  76.5682373  44.2878761   8.6496944  75.7637405
  13.1570921  70.7636566  14.5163155  13.3842859  70.8608856  13.5915661
  13.6748838  70.0151596  14.8127451  51.4849739  33.1697617  10.2165518
  50.6795807  32.6726112  10.3594398  52.0171394  32.6071129   9.6540051
   1.4421237  13.0766563  67.8851547   1.6436975  13.9539890  68.2105560
   0.5810534  12.8769484  68.2524490  29.3811092  15.2416143   3.0395706
  28.5898056  14.7412767   2.8402398  30.0991688  14.6319466   2.8694880
  18.8635921  28.3358402  82.7162399  19.7658253  28.1634350  82.4470139
  18.8602200  28.1745815  83.6597519   7.9510221   0.3812170  38.4047165
   7.5962796   0.9577722  37.7279778   7.9338984   0.9096359  39.2026596
  63.7305641  64.1809692  82.5903931  63.2501793  64.9404755  82.2608337
  63.3797340  64.0386887  83.4695435  82.8479919  47.7252426   2.6251292
  83.6762772  48.1243019   2.8914528  82.2455750  47.9224243   3.3423781
   1.1811693  10.4269629  14.3949003   0.2842291  10.1586561  14.1955462
   1.1366650  10.7659073  15.2889738  12.2410698  13.0774117  77.5948868
  11.7168007  12.8161631  78.3519363  13.0887566  12.6549158  77.7332916
   6.0289068  44.5083961  47.2633896   6.8424640  44.2538223  47.6987610
   5.9093437  43.8524055  46.5766487  52.5693474  54.6420517  39.9310112
  52.6494141  54.8655014  39.0037079  52.2773438  55.4524918  40.3483238
  49.4601135  61.6942558  33.8128548  49.9992332  62.2835007  34.3404694
  48.6271248  61.6471901  34.2820473  63.8562508  27.6236095  84.9764633
  63.1674500  27.0683060  85.3417282  64.6699371  27.2492580  85.3141022
  55.2290192  23.2880402  49.4467812  55.3692551  22.7662029  48.6566887
  56.1022606  23.5972939  49.6876945   7.5820622  29.3367538  73.2781677
   7.9509163  29.5200882  74.1422119   6.6884880  29.6770897  73.3220825
  22.9025173  60.4504242  58.4857483  22.9460506  61.3675690  58.2152214
  23.5992355  60.3591042  59.1357346  78.4729538  71.4898071  46.5345154
  78.4437790  72.0547180  45.7623367  79.1176987  70.8172302  46.3150101
  35.6895638  53.6105385  72.1133652  36.6154938  53.7168236  72.3315125
  35.2560921  54.3479004  72.5430450  13.8574753  56.3592987  87.5327759
  13.2026682  55.6758003  87.3903275  13.4014883  57.1748657  87.3250198
  49.4978371   9.6625986  33.9799309  50.4065208   9.9634733  33.9819183
  48.9864883  10.4462957  33.7785110   9.4892473  63.0789108  15.5872478
   9.2684412  63.3609123  16.4749165  10.2294292  63.6320229  15.3373804
  50.4077492  43.3040199  16.4981251  50.7747345  44.1869736  16.4539871
  50.4900551  43.0561943  17.4190159  80.1096115  44.5552292  83.6081696
  80.3900833  45.1059113  84.3391418  80.9054565  44.4143066  83.0953293
  16.1326408  61.6013641   3.5536566  15.8142643  61.8863792   2.6971326
  17.0855980  61.5923042   3.4640839  38.2057915  23.2681656  83.1596222
  38.4956665  22.7744980  82.3924866  37.3604240  22.8815174  83.3878479
  66.2478943  30.0476017  46.9813385  65.9182816  30.8412113  46.5597115
  67.1568604  30.2526188  47.2003899  76.0042114  58.1936264  63.0773392
  76.7642288  57.7390594  62.7140465  75.5329361  58.5219879  62.3116302
  38.5765076  62.7970963  77.9547806  37.8303299  62.8514442  77.3577118
  39.2925148  63.2221107  77.4826355  83.6789703  49.1292953  76.9670258
  84.1868515  49.6609039  76.3540955  83.7152557  49.6140785  77.7915878
  42.5157700  13.9221506  62.3472710  43.0107765  14.4166412  63.0004807
  43.0740891  13.1726141  62.1406136  41.8989754  64.2073898  22.4826279
  41.1920471  63.8366318  21.9543991  41.6866226  63.9517288  23.3802795
  76.5397720  26.5764561  59.5263405  76.8783188  25.8141365  59.9959030
  76.7793961  26.4208870  58.6127701  66.3398590  20.1087818  63.2631035
  65.7660904  20.1304951  64.0289688  67.2020950  20.3481712  63.6029358
  69.7107239  61.3874779  89.2453995  68.9753418  61.7109375  88.7249908
  70.3674316  62.0816154  89.1893921  36.7739296  39.5326729  62.5174141
  37.0282478  38.7053299  62.9261398  36.1706123  39.2792130  61.8188477
  36.8996582   4.9400368  61.1877251  36.7555885   5.8656049  60.9907494
  37.2968636   4.5849314  60.3925133  18.7071495  29.8545723  29.2965050
  18.9391022  30.5624352  28.6953754  19.0045490  30.1608028  30.1532478
  60.9913597  59.8838158  61.5974693  60.3064499  60.2858963  62.1317520
  60.5449486  59.1813087  61.1247826  42.4010162  70.4330673  17.4885941
  42.6745796  69.5372238  17.6856899  43.0835457  70.9822693  17.8742962
  83.5958481   1.0330269  61.9146805  83.0244064   1.7031255  62.2897110
  84.4753265   1.2816751  62.1991692  20.1054153   3.6897025  71.4995956
  19.6104584   4.5070877  71.5555496  20.7477627   3.8455811  70.8072586
  52.3808441  60.9229927  53.6160889  52.8440590  60.8651276  52.7804375
  52.6095886  60.1137428  54.0732727  69.6491470  48.1004601  84.6542969
  69.8622589  47.2521057  84.2655640  69.7435837  48.7242699  83.9344559
  69.6525955   9.2337618  50.1816788  68.9778061   9.8083153  50.5433197
  69.9874802   9.7073307  49.4202232  40.3299561  42.3393288  40.2719765
  39.8229904  42.7773895  40.9555855  41.0337334  42.9540787  40.0645943
  49.9439888  55.8033791  13.5278206  50.1088905  56.7119751  13.2758360
  50.6577415  55.3095665  13.1241598  48.7640991  69.1732254  49.0467033
  49.3979645  69.8831177  48.9442444  48.7207947  68.7641907  48.1823807
  53.3448944  59.8992920  81.5636368  53.8890038  59.3863335  82.1611710
  52.5465088  59.3811150  81.4621277  36.8780746  65.8131790   9.6770296
  36.0038376  66.1708069   9.8320990  37.4635353  66.3911362  10.1663399
  23.9450550  38.8224792  63.8392296  24.6329899  38.1776314  63.6744499
  24.3022766  39.3831062  64.5279388  34.4385300  24.5317402   2.5547988
  34.1016312  23.6366730   2.5946267  34.8450890  24.6728954   3.4097929
  52.9558449   1.1850181   1.5401692  52.1165085   1.6044024   1.7295363
  53.1100655   0.6089325   2.2888842  32.0337448  60.9124489  47.7024879
  32.3707581  60.5694046  46.8748589  31.1878700  60.4787292  47.8148270
  62.9886589  13.8632154  17.8406982  62.8991737  13.2044458  18.5293541
  63.8896294  13.7664366  17.5322819  14.1847963  51.1883125  80.3232269
  13.9781494  51.9894524  80.8045883  14.9576540  51.4128418  79.8050461
  58.7416649   0.2414043  68.0072327  59.1415253   0.1446701  68.8715134
  58.3944588   1.1333996  68.0024414  60.1371841  12.6040754  48.0054779
  59.4939041  13.2669001  47.7543068  60.5499344  12.3464060  47.1811790
  58.9111290  13.6463728  30.1770954  58.7918777  13.5798101  29.2296886
  58.4240379  12.9030209  30.5326214  60.1812363  54.7501488  41.2395096
  59.4055176  55.0615044  40.7730865  60.6284943  54.1847839  40.6097832
  13.6152191  10.9831038  58.4539909  13.5126991  10.0372372  58.5591431
  14.5454731  11.1424036  58.6136246  29.7854824  20.6435509   2.1777325
  30.5841351  20.8846169   1.7084007  29.9631920  19.7668133   2.5182965
   9.3938646  35.5343552   6.8817153   9.8160973  34.8600769   6.3494554
   9.8364258  36.3463974   6.6348109  52.9763260  13.2441587  76.3169250
  52.7130356  12.7129803  77.0684280  52.8052521  14.1457386  76.5891800
  78.1190414   6.4749618  70.4668121  78.2775574   5.9012198  71.2164307
  78.6104431   7.2716665  70.6668472  16.0540810  23.3238239  68.9956894
  16.9183445  23.1666431  69.3759155  16.1527958  24.1402435  68.5058441
  10.3407679  40.6480560  71.9143982   9.9320555  41.4184151  71.5197754
  11.0988569  40.9939575  72.3854446  62.1644516  30.4452991  70.9012299
  62.8942184  29.8612423  71.1074982  61.4911499  30.2237377  71.5445099
  28.2481422  29.9986153  63.2096710  28.5352249  29.1008377  63.3764420
  28.9537983  30.3830090  62.6895485  51.5150261  24.8778152   4.7964859
  51.3165855  25.5986862   5.3941469  50.6594887  24.5829353   4.4844971
  20.1436787  56.3528214   3.8421974  19.6232357  57.1488647   3.9503069
  21.0430641  56.6659279   3.7457466  77.5720291  58.4432030  30.2392426
  77.1815109  57.6951256  29.7874546  77.9518280  58.0707932  31.0350437
  73.6682739  39.4527130  59.6439667  73.7880325  39.6610641  60.5705109
  72.8454742  39.8804283  59.4067039  37.2209015  21.9682426  75.9189835
  37.5446625  21.2118645  75.4297943  37.9588432  22.2316151  76.4688110
   4.8588634  57.9642754  13.7020092   4.6964111  58.1867447  12.7853050
   4.5250077  57.0719872  13.7947197  86.7321091  30.7919044  21.4640713
  86.3040314  30.9360008  22.3079987  86.0331345  30.4751606  20.8919373
  50.6572838  41.6692314  68.4298019  50.9948349  42.5226746  68.7016983
  50.7063103  41.6857147  67.4739990   6.6290312  12.8214111  76.1951370
   5.9957466  13.5221624  76.0398026   7.2508059  12.8956747  75.4711838
   3.6116023   4.7792258  17.9214630   4.4049325   5.0429029  17.4552727
   3.8666816   3.9915445  18.4018002  63.5155602  21.2576141  41.3165169
  62.9059944  21.2299137  42.0540085  63.3402290  20.4518585  40.8304672
  12.9003305  52.9397087  51.4940872  13.4206066  52.6945152  50.7289543
  13.0137720  53.8873482  51.5671806  63.1643600  22.0006466  24.8710556
  63.2532692  21.9116287  25.8199501  63.2178001  21.1039906  24.5403233
  80.0556641  54.8209801  85.1341400  79.4215317  54.9888268  85.8312302
  80.0200043  55.6037331  84.5843582  81.9140396   6.9424706  33.0528755
  82.0352936   6.0146155  33.2544098  81.9558029   7.3797374  33.9033394
  30.5724049  71.0098114  57.3648872  30.8149681  70.1602859  57.7332649
  31.3908195  71.3613892  57.0144272  67.0230484  61.8496017  64.1993637
  67.8283691  61.6633110  64.6820526  66.6428986  62.6038475  64.6497421
  74.0762558   4.7064309  16.4165936  74.0028534   5.1846700  17.2425060
  75.0027618   4.4736934  16.3561153   2.2291985  66.7493744  60.5117493
   1.7287419  66.9052429  61.3126755   2.6151423  65.8822098  60.6354141
  40.1985664  43.5921288  34.4010391  39.8006592  43.6497192  35.2697067
  39.5286217  43.1771049  33.8577538  68.4264145  50.8421745  19.9253063
  68.0116806  50.8283043  20.7878838  69.2593536  51.2919464  20.0672340
  14.4518414  10.2166071   2.0535798  14.4792891   9.7856274   1.1993345
  14.6363583  11.1364803   1.8637964  77.5230026  30.6196404  87.4813309
  77.5605011  30.0271015  88.2321472  78.2501678  30.3448524  86.9228058
  59.0947495  63.0643311  60.5560226  58.8105049  63.5834122  61.3083458
  59.6950531  62.4165077  60.9250717  78.9902191  16.5486298  65.1492996
  79.4099503  15.8788786  65.6891937  78.6889725  16.0764236  64.3730850
  44.7444229   4.4605293  77.3133850  44.3070564   3.6728079  76.9902115
  45.6619530   4.2040834  77.4061356  71.2288971  41.8489037  18.8348484
  71.7982101  41.7331390  19.5955811  71.6709137  41.3747711  18.1305389
  80.5619659  42.0259285  62.4700317  80.1846924  42.5538025  63.1737709
  81.1454468  41.4127464  62.9170074  62.2108994  51.0862541  37.3189926
  62.9218254  51.5890427  36.9214745  61.5695381  51.7459183  37.5830650
  67.1379242  50.6849480  38.7449417  67.0221405  50.5294533  37.8075790
  67.2627411  49.8126640  39.1188049  14.2597752  61.3647308  29.2219296
  13.6339664  60.8056412  29.6823788  14.8814411  60.7534981  28.8267651
  45.6129875  65.6382599   1.0136540  45.4027328  64.8754044   0.4750684
  44.7614822  65.9966049   1.2641760  76.5738449  47.4586296  77.7027359
  76.2339935  47.1242638  78.5327606  75.8112793  47.4845886  77.1247635
  34.6804619   5.8187156  16.0839272  34.5187187   4.9691257  15.6737213
  34.2416382   5.7622781  16.9327374  51.5325127  45.3111038  60.0509758
  51.1952209  44.4829140  59.7095566  52.4489975  45.3283157  59.7753181
   3.7535868   0.5403541   1.8874241   4.3749661   1.1754471   1.5313674
   4.2909050  -0.2180123   2.1163371  75.3771667  46.4330750  62.8292503
  74.7329788  45.8642387  62.4077301  75.9240494  46.7495804  62.1102409
  23.2441788  56.9229584  30.8732262  23.4737129  57.8266335  31.0898380
  22.9493866  56.9622269  29.9633980  34.9132347  44.4495201   0.2330304
  35.6216431  44.6255951   0.8522112  34.2538071  43.9857674   0.7490960
   0.5420623  55.1001282   5.2606955   0.0247170  55.5121307   4.5687132
   0.5787062  55.7571716   5.9558096  56.9074783  69.0123596  64.7941895
  56.9098892  69.7740021  64.2144241  56.0355415  69.0147171  65.1890945
  85.0448914  59.3255615  88.1840286  85.8892517  58.9076996  88.3533707
  84.7929459  59.0129662  87.3150940  57.1295204  43.2219849  77.8997650
  56.8283272  42.4152260  78.3176804  56.4221153  43.4597626  77.3003693
  56.4128761  15.3804569  36.6191635  57.3043289  15.6796846  36.4402618
  56.2414970  14.7222004  35.9456978  40.3496361  42.8515663  72.8663864
  39.6096687  42.4552727  72.4063492  40.7826118  43.3903236  72.2041931
  60.7518539  62.2256966  15.2233829  60.6397095  61.3872528  15.6713390
  61.6727448  62.4486237  15.3593845  27.8892365  28.0361290  11.7856350
  27.6681023  28.9597569  11.9049721  27.4846783  27.7988625  10.9512072
  78.1679230  45.7097588  33.2457275  78.8613205  46.0862236  33.7876740
  77.5429153  46.4247398  33.1257019  62.7619438   9.3304739  66.7363815
  63.1637573   8.6350784  67.2571564  63.4346848  10.0093412  66.6835861
  31.4557514  41.3296547  10.4540977  31.0846806  40.6074257  10.9609728
  32.4025497  41.2312241  10.5546732  65.5472641  16.7349472  86.8460693
  64.6523209  16.8885345  87.1489258  65.8093872  17.5629883  86.4437408
  42.2699356  54.0652580  29.6220875  42.9303436  54.7395554  29.4626713
  42.0078011  54.1973877  30.5331631  66.3131485  41.5413170  61.2115021
  65.9392471  42.4221230  61.1867332  67.0358505  41.6053734  61.8358650
  67.2603455   6.6142702  29.9268856  67.6475754   5.8564014  29.4887962
  66.9284515   7.1595197  29.2135963   5.6034746  67.2115555  21.6950474
   5.5654421  67.9969635  22.2408772   5.3891253  66.4945297  22.2918339
  70.1847229  40.0699730  21.7362976  70.1971970  40.3867188  22.6394863
  70.5968781  40.7707291  21.2310219  29.5487480  50.3100395  39.1140404
  30.2357826  50.9053497  38.8143387  28.8052940  50.8807716  39.3083878
  19.5831451  47.4405518  76.4015503  20.4518471  47.5800667  76.0245590
  19.4822769  48.1475563  77.0388947  84.8874283  17.1783199  36.9851189
  85.8425903  17.1881008  36.9235077  84.5893784  17.1248817  36.0770721
  60.0841522  48.8866882  25.8875084  60.7513390  49.5228119  25.6297531
  59.8119965  49.1659393  26.7616844  76.5530014   6.1509571  84.4901352
  77.0874176   5.4884558  84.0522614  76.9482956   6.2429142  85.3570328
  24.2521458   1.9082681   3.8769717  23.6742611   1.2548773   4.2711306
  24.8717804   1.3970892   3.3564126  75.3359375  30.6903915  13.7417336
  76.1942291  30.3893948  13.4434500  75.5146866  31.1472340  14.5636683
  69.3972855   6.9791846  55.6552391  69.3383865   6.5001507  54.8286285
  69.7645950   7.8294535  55.4136772  75.6028519  70.4247818  41.4271507
  75.1500168  69.8412933  42.0360107  76.4564667  70.5779495  41.8322716
   4.2019873  45.3916206  16.9604816   3.8254085  46.1681938  17.3744335
   5.1461945  45.4881477  17.0845280  28.9957390  33.7742920  73.0762711
  28.9888115  34.1290512  72.1872635  29.6132946  34.3303909  73.5512543
  73.1003723  31.3726578  38.6076698  73.8854294  31.8823357  38.8080559
  72.7333374  31.1516533  39.4636345  45.0188789  15.1220036  82.1981659
  45.8324623  14.8625307  81.7657394  44.4932251  15.5168276  81.5024414
  16.4184322  43.4568825  73.3409119  16.3427162  44.1814537  72.7200317
  15.5197191  43.2899666  73.6249695  65.4634705   4.2690196  18.7604122
  65.6794662   3.6453533  19.4536800  64.5126419   4.3658938  18.8131065
  74.3243103  12.7840576  84.9773026  74.2778244  12.6711788  84.0279236
  73.6448364  13.4284887  85.1754379  51.6581726   6.5659122  51.0304604
  51.4112129   6.2376108  51.8950195  51.5161095   7.5110192  51.0835915
  75.6759567  27.2699776  17.5224133  75.0212631  26.5726147  17.4864655
  75.9320068  27.4053822  16.6100864  61.5471802  70.9668198  27.2163429
  62.1671906  70.5459976  26.6207504  61.7152290  71.9036102  27.1143150
  60.1614571  64.7536087  30.8564148  60.0642586  64.8000717  31.8075333
  59.3046341  65.0099640  30.5152893  81.0468597  48.4312325   4.6796632
  80.1627960  48.0843201   4.5599742  81.4876251  47.7803955   5.2258887
  71.7434540  71.0211639  50.6342201  70.8634949  71.2279053  50.3193207
  71.6108932  70.3203354  51.2725754  73.0702744  38.8333740  41.9371109
  73.3445053  39.6922531  42.2586021  73.4514847  38.7725945  41.0612030
  43.8050842  44.2062645   3.2706318  43.4073906  44.7736359   2.6102047
  43.4990158  44.5598297   4.1058240  51.5203781  61.1118202  45.2020187
  52.0012169  61.8682594  44.8661270  50.6823082  61.1364059  44.7402115
  29.2496700  70.4793015  71.8813095  29.9900398  70.4177170  71.2777405
  28.5000553  70.1691208  71.3732758  16.7260437  44.7395477  24.5377903
  16.5252762  44.5679817  23.6177406  16.7112141  43.8763428  24.9511757
  20.0422268  15.6682682  70.8232193  19.3735504  16.0745850  70.2718506
  20.5586376  15.1344786  70.2193832  58.2960281  27.2510300  78.1603851
  58.6420059  28.1086826  77.9134750  57.3469543  27.3421726  78.0756226
  70.0711517  61.4440308  42.8492546  69.9619675  60.9055176  42.0654716
  70.5445862  60.8815956  43.4622421  14.8322668  40.1007156  85.7194824
  15.4543924  39.4974823  85.3129044  14.8901443  39.9095154  86.6556015
  21.0693455  64.8880997   9.3076010  20.2821083  65.3082504   8.9612408
  21.2712345  65.3779221  10.1048145  70.4587479  11.2634506  48.1161079
  71.1444244  11.8582315  47.8122749  69.7574310  11.3571720  47.4714317
  40.1726036  50.0412674  16.4453545  40.1084251  49.7643356  17.3593674
  39.3347054  50.4673653  16.2647934  79.3403778  33.8579941  17.6801033
  80.2807159  33.7341499  17.8092098  79.1865387  34.7755814  17.9050426
   7.5100298  47.6721268  83.2452011   7.9157128  48.4226456  82.8111801
   7.2171364  48.0135765  84.0901031  34.0976524  55.1555634  45.1107635
  34.1188889  54.9735794  44.1712646  35.0068016  55.3512726  45.3374290
  23.5455418   2.8057117  42.6904755  22.8091145   2.2551296  42.4244537
  24.0941620   2.8661602  41.9084320  55.7012825  34.2601433  61.4486732
  54.9348831  34.7395897  61.7633057  56.3086052  34.9417000  61.1607857
   9.9042625  30.4601288  55.6630859   9.1016340  30.0560570  55.9928551
  10.1449184  29.9296207  54.9035606  60.8483810  16.9926682  51.3158302
  61.2384682  16.5134716  50.5847778  61.1098785  16.4985847  52.0928345
  53.1792107  62.7010498  27.9945545  52.9661751  61.9632988  27.4230900
  53.4792328  63.3870773  27.3982449  20.2629814  35.5740471  21.0721321
  20.9766579  34.9935799  21.3366261  20.6605358  36.4442787  21.0424576
  42.2935181  53.9550972  67.9976883  43.1765747  53.7629433  68.3131561
  42.3505058  54.8468895  67.6546249  78.8954926  62.4366913  78.4974136
  78.0534286  62.5490417  78.0563583  78.9455185  61.4989548  78.6828384
   4.0395460  65.1662827  54.2157784   3.7127190  65.8845367  54.7575645
   4.5644121  65.5955582  53.5401497  48.8315506  16.7369957  77.3315125
  48.1105995  17.2753239  77.0049133  48.4937859  15.8418045  77.3035355
  54.5725174  22.3628273   8.5148153  55.4299660  22.1418839   8.1512270
  54.2139359  23.0093651   7.9068351  16.4034424   3.3762925   5.1105909
  16.7012901   4.2326679   4.8037691  16.3795204   3.4584734   6.0639563
  56.0785103  18.1668262  31.5294266  56.6589661  17.6742439  30.9491978
  56.5933876  18.3018875  32.3249702  50.4178581  68.5153275  35.7444572
  50.3051453  69.4657593  35.7299385  50.1767731  68.2591248  36.6346626
  51.3739281  63.5228424  19.3265629  50.9093742  62.7317467  19.5996685
  51.2570152  64.1327591  20.0549603  73.2950211  62.5638046  73.2658997
  73.3239212  62.7818756  72.3343201  72.3643875  62.5871696  73.4886017
  64.3500595  27.9531078  82.2479553  63.9145203  27.3181992  81.6792450
  64.0469208  27.7331142  83.1288300  40.9890747  64.3214188   3.7718108
  40.5428658  64.6577988   4.5489717  41.5853882  63.6526909   4.1086330
  83.6955261  10.4981432  67.3006516  84.1543732  11.3357124  67.2360840
  83.1702194  10.5736141  68.0972595  37.3503952  38.0253868   5.4650564
  36.4114761  37.9215698   5.6196089  37.4834595  37.7031593   4.5735993
   3.2133868  71.1071243  17.4336605   2.3096497  71.3049164  17.6793613
   3.4076102  70.2823486  17.8789215  20.0278339  10.1939888  81.4138870
  20.6902771   9.5036163  81.3858337  19.2707844   9.8178949  80.9648209
  19.5961723  68.7775116  16.8019142  19.6042061  68.9539871  15.8611574
  20.5187759  68.7932510  17.0564423  82.5817108   8.7034473  74.1783447
  83.5321960   8.7700367  74.2698517  82.3659286   7.8438053  74.5398483
  14.9372873  15.0281219  82.4885864  14.6294079  14.2023754  82.8621979
  15.1144915  14.8242111  81.5702972  30.1116867   4.0817552  10.0998945
  29.8847332   3.1870084  10.3531771  31.0362511   4.0345979   9.8566027
  16.9575500  44.2893219  51.8824196  17.2564259  44.7802734  52.6478424
  16.1277771  43.8991547  52.1571617  25.1012745   2.6981544  69.7005692
  24.9158726   3.6079798  69.4680328  25.7953987   2.4333508  69.0970001
  48.2200089  20.4897900  87.7402039  49.1245041  20.3136368  87.4811859
  47.7759323  19.6468773  87.6478424  46.7500687  70.5602951  65.9886780
  46.5954514  71.4955063  65.8556442  46.4281273  70.1479111  65.1870956
  47.7242737  56.1083527  88.7577286  48.2594795  56.8745537  88.5510330
  48.1612015  55.7064972  89.5086212   1.3622775  14.8912773  83.0852051
   1.7092910  15.6751585  82.6593628   0.5228427  15.1694336  83.4515533
  85.1821747   7.5015554  58.7638779  84.8615417   8.1985893  58.1915398
  85.5718231   6.8622069  58.1675186  60.6420403  24.3758125   6.2324820
  59.6887321  24.4564819   6.2629519  60.9574738  25.0233631   6.8628883
  15.6159096  56.4383354  75.7509537  16.5621262  56.3134575  75.8238373
  15.2662649  55.5552940  75.6316986  81.6682205  35.3358612  88.1832809
  81.2627792  34.4804726  88.0413132  82.5966644  35.1423187  88.3127823
  34.0958405  47.6574707   9.0167246  33.5815163  48.2781296   8.5005035
  34.5538979  48.2009277   9.6578722  59.7731209  58.3156586  28.0416145
  59.6766777  58.7238579  28.9020233  60.5761337  57.7992325  28.1101723
  64.0185547  23.6371307  66.3802948  63.6025085  23.4998932  67.2313538
  64.8747253  24.0104542  66.5896606  14.8468428  39.7887573  66.4313126
  15.4406681  40.0259361  65.7190247  14.2295046  40.5185547  66.4815216
  64.7017822  28.1816216   1.9234453  64.5519104  27.7071133   2.7411320
  63.9938507  27.8945122   1.3467005  25.4888344  40.5529938   8.7205353
  26.0383606  39.7817268   8.5812445  25.9938374  41.2769318   8.3502455
  65.2290192  52.0790253  81.7655411  65.9549026  51.7305908  82.2831573
  65.2422867  51.5651360  80.9580917  73.0044250  41.7372475  66.9222260
  73.3376846  42.6019249  66.6824112  72.5964813  41.8667870  67.7783966
  37.2657547  65.1399765  62.7569695  36.5008469  64.5645523  62.7633209
  37.9970589  64.5638199  62.5345497  32.8026886  54.1810341  69.1768112
  32.7150726  55.0943069  68.9038849  32.4708290  53.6762695  68.4343109
   5.2504301  46.4728012  42.2002945   6.0483813  45.9653206  42.3485146
   5.3939576  47.2897682  42.6779976  51.3504257  20.0756283  24.8616581
  51.7212067  20.9223309  24.6129684  51.9972343  19.6963787  25.4566689
  67.0351028  63.1881332  79.0452499  67.4178925  64.0422287  78.8447037
  66.3230667  63.3819771  79.6548920  53.2331123  52.1937561  22.7885284
  52.8818512  53.0123596  22.4381962  53.3812752  52.3745155  23.7167549
  55.0861244  13.1045504  79.2849655  54.3357544  13.3237162  79.8373642
  55.1207542  12.1480465  79.2964783  71.4467545  19.1809025  57.6857033
  71.1909637  18.8200531  56.8368263  71.3967056  18.4376640  58.2868042
  75.3110657   6.6653161  24.5230827  75.2439575   7.5331464  24.9213276
  75.6452789   6.1054139  25.2238255  71.2759628   6.3162522   2.0555074
  71.1004715   6.8488970   2.8312156  72.0630951   5.8195863   2.2790730
  54.4000626  49.6516266  22.5736523  53.9942856  48.8289070  22.8469753
  53.7226715  50.3123398  22.7179947  29.3492603   2.9611719  73.4379959
  29.6498947   2.1192071  73.7799683  28.6060486   2.7401309  72.8767395
  25.5823956  70.7622910  18.1161251  24.8278160  70.3433762  17.7021828
  26.1241570  70.0338440  18.4195900  31.1546345  59.9270630  27.1794167
  31.3753128  59.0000343  27.0891399  31.7794647  60.2603989  27.8233929
  62.8462105  58.4702568  38.7020988  61.9119911  58.4962006  38.9089622
  63.2032547  59.2606125  39.1071777  61.7594223  21.6091862  10.5240135
  62.3133240  22.1140747  11.1194210  61.8545609  22.0477772   9.6785450
   5.9903550  57.5121078  79.2559967   6.9145770  57.3700447  79.4606018
   5.5209126  56.9242706  79.8478622  50.3526726  53.4757538  28.5673141
  50.7328224  52.5974007  28.5819054  50.7865295  53.9123611  27.8342552
  19.7296219  54.2672081  44.2429123  19.6856537  53.8347054  45.0956955
  20.3396168  53.7327652  43.7344742   3.6041665   2.8137624  87.8755493
   4.1715446   2.4363790  88.5477829   3.9686432   2.4970295  87.0490646
  57.2843819  29.8585358  35.8667603  56.4178619  29.4678783  35.7537880
  57.7993584  29.5141315  35.1370888  24.7765064   4.4818516  59.9355850
  25.0998116   4.9724507  60.6912422  25.0287228   3.5756128  60.1126442
  12.4054689  21.0044746  56.5150604  12.1978769  20.1589012  56.9127312
  12.2972879  20.8600655  55.5750198  35.7215080  47.7303734  61.9480362
  35.2789078  48.0111732  62.7489662  35.3959465  46.8437386  61.7927322
  34.9849815  59.5723991   0.9626257  34.0673752  59.4435310   0.7225762
  35.4783707  59.1884995   0.2377668  73.7592163  54.4581528  24.7918777
  73.1480713  53.7687378  24.5321922  74.4838104  53.9914970  25.2083244
  33.3406677  61.4754028  61.7146339  32.4945183  61.9137573  61.6246033
  33.5373039  61.1514397  60.8356514  51.6499367  28.2600765  70.4520416
  51.6003532  28.1126003  71.3965073  51.8552017  29.1909885  70.3654327
  60.5726280  59.1196022  80.7215500  60.1255760  59.9467964  80.9007874
  60.1201324  58.7635841  79.9568787  86.6063156  55.5048332  32.5141449
  86.3316040  56.0848160  33.2243462  86.9246979  54.7181778  32.9569016
  51.9126396  34.5484505  30.5794792  51.2022247  34.8632393  30.0205059
  52.4424171  33.9956703  30.0050182  14.2208796  62.5561180  53.7675171
  13.4239616  62.9100952  54.1623001  14.1379957  61.6079941  53.8696022
  56.8877525  56.9915810  31.1651535  57.4632874  56.2428322  31.0090504
  56.0969810  56.6103821  31.5467281  78.0427551   4.6371450   8.3440895
  77.1558914   4.5142412   8.6826143  78.3327866   3.7563226   8.1068850
  55.4966545   5.3530045  88.9155426  55.9937820   6.1634874  88.8050156
  55.1201935   5.1832838  88.0519943  11.8848524  13.6318350  15.6017380
  11.2020664  13.3750191  16.2214813  12.6948166  13.2945499  15.9843969
  84.2871857   8.1377735  66.0131989  84.6403046   8.6175613  65.2639694
  84.2390366   8.7887039  66.7133408  48.8946877  17.7798386  62.3938866
  49.0651245  18.7076626  62.2316360  47.9539642  17.6800213  62.2479019
  78.0746384  17.4768715  61.3308830  78.4218597  16.5862961  61.3813286
  78.6696167  17.9968758  61.8710899  47.7005577  52.2463570  58.3640366
  48.3904991  52.4926796  57.7479744  47.0713806  52.9663467  58.3194237
  85.8619766  30.5431480  75.2157898  86.7560654  30.8842430  75.2380142
  85.6609192  30.3385315  76.1289902  13.1687317  37.5271072  69.3190231
  13.3371086  37.0631790  68.4988632  13.0073853  38.4324265  69.0533295
  78.9682159  66.9240570  41.7348289  79.3722839  67.7064514  41.3595810
  78.0277557  67.0978775  41.6955223  27.4943142  40.4100838  61.6221352
  27.4974518  39.4557190  61.5485535  27.0367374  40.7093773  60.8364639
  69.9215775  47.0063171   1.3376598  69.9422913  47.8491135   1.7909827
  69.1770554  47.0741119   0.7398978  65.6218491  38.1423454  25.9102859
  65.7785416  38.0129128  24.9749088  66.2047653  38.8615723  26.1535130
  65.8564606  71.5236588  46.3238983  65.8945007  70.6077194  46.5992889
  66.4545898  71.5746384  45.5783272  39.6567345  44.6522408  41.8360710
  39.7209778  45.4008865  41.2430840  40.5452232  44.5365334  42.1728706
  60.6125488  57.0838013  32.5652466  61.4576874  57.5318069  32.6006927
  60.1622162  57.3583946  33.3640137  21.9608135  16.5485783  11.2790394
  21.0390949  16.6371174  11.0364914  22.3696480  17.3551083  10.9650373
  67.9252243  49.2116585  69.8496704  67.8046265  48.3755226  69.3995972
  67.9826126  48.9787712  70.7763290  69.6175156   5.4446006  43.0579948
  68.7569122   5.5372214  43.4666672  69.9461060   4.6049390  43.3792839
  10.6828318  51.3295174  57.6048622  11.4954586  51.6900978  57.9596176
  10.9000120  51.0908737  56.7036896  85.9727631  51.1967010  61.2583199
  86.6289139  50.8721352  60.6415939  85.7756500  52.0826111  60.9541092
  68.5499268   2.0140598   8.5544710  68.4286194   2.6718390   7.8697495
  67.6671371   1.8457297   8.8839865   3.9771094  41.5613441  86.7302933
   4.7602854  41.9871864  87.0789032   4.2004080  41.3553810  85.8225784
  55.0694237   1.0793275  67.1289444  54.5610085   1.6947811  66.6007690
  54.7114143   0.2199808  66.9062653  33.4474335  23.9780807   9.6081161
  32.5135765  24.1041489   9.7762012  33.7057304  23.2762718  10.2055922
  31.7858105  64.4020615  59.5381088  31.4300003  63.8280449  60.2164383
  31.6920700  63.9016724  58.7275200  36.3008461  63.6242599  86.4901199
  35.9206429  62.7510109  86.5855942  36.8332253  63.7410393  87.2769928
  72.9570541  12.8178692  63.6794891  72.7964783  13.7354212  63.8998184
  73.6211014  12.8495884  62.9908218  59.9651489  -0.2762456  38.3650742
  60.8365593  -0.3541428  37.9767303  59.8274765   0.6664917  38.4574013
  42.8243484  26.7199039  84.2468948  42.7738228  26.1447334  83.4834442
  42.2754822  27.4700699  84.0183487  30.6409035  56.4950523  24.1017132
  29.7733173  56.8466949  24.3013992  30.5096111  55.9659462  23.3149223
  80.8823471  45.6561165  35.0651970  81.1096497  44.7776108  35.3698196
  80.3605423  46.0285416  35.7760086  26.8241501  57.7981873  21.7337456
  27.6565590  57.5021477  21.3653851  26.5307865  58.4881668  21.1386833
   1.0292705  44.2873383  32.8503456   1.1171927  45.1789055  33.1874046
   0.2903796  43.9197388  33.3352585  73.1884842  36.5157585  44.4236717
  72.9097824  36.2530060  43.5464516  73.7594452  37.2700310  44.2776909
  80.0457993  50.2728615  79.9795074  80.1187057  50.9058113  80.6938553
  80.7345200  50.5253334  79.3645706  70.9925308  40.3655930  32.2643166
  70.5866241  40.2105904  33.1172218  70.8424683  41.2953148  32.0930672
  74.0149994  36.3126411  74.1379166  74.5173798  35.6890526  73.6135254
  73.2278137  36.4814835  73.6201706  73.8833694  52.7845879  36.7942734
  72.9773865  52.8137589  37.1017876  74.0317612  51.8651772  36.5731468
  59.1993637   3.0259855  26.7488098  59.8970261   2.8855994  26.1086617
  59.0826416   3.9757724  26.7714462  74.4369431  53.1863976  17.6817970
  73.7165756  52.8434143  17.1529617  74.0132751  53.5358887  18.4657574
   8.9002018  63.6432915  85.9203415   9.0667696  63.0597649  85.1800842
   9.4721003  64.3951874  85.7660294   4.5835896  22.0981674  14.7489386
   4.3280344  22.2095890  13.8332367   3.7784107  22.2529831  15.2428522
  59.0357819  17.6879826  81.3750992  59.6196632  18.4416580  81.4604874
  59.5290337  16.9590378  81.7513657  41.3550644  34.6550293  69.9487152
  41.4674034  34.9808121  70.8417282  41.7095680  35.3498421  69.3939209
  80.2893600  69.2873077  40.6620941  81.2237396  69.1042099  40.5638657
  80.2529297  70.2000732  40.9480362  26.5305691  55.7323570  23.6061897
  26.5339870  56.0553169  22.7051258  26.9695396  56.4189072  24.1083660
  63.2600555   3.1867414  62.1020164  63.3807106   3.8928537  61.4671326
  62.6024094   3.5222285  62.7112656  83.7087936  25.4762707  81.7188187
  84.1657028  24.8206673  81.1918945  83.3024902  26.0586643  81.0769730
  64.4079361  60.2359810  16.1145153  64.8139343  59.6121902  15.5126114
  63.8599358  59.6966820  16.6846790  67.6993713  44.0284615  76.1873627
  67.1441269  44.7767372  75.9682465  68.5895081  44.3803558  76.1797180
  70.6410751  54.3018608   4.9999089  71.4865036  54.2658806   4.5524845
  70.3630447  55.2137184   4.9136295   9.7521601  40.6838112   7.2704439
  10.0085344  41.0914497   8.0976887   8.8307714  40.4545860   7.3918114
  30.6922150  51.2945595  46.8400650  30.2505035  51.7295418  47.5693893
  31.6228523  51.4605789  46.9903374  77.8302917  40.9679451  79.6896057
  77.1218491  40.5286713  80.1601105  77.7424011  41.8900566  79.9308929
  63.8646736  60.2584343  47.9799500  64.5847321  59.8190765  48.4323997
  63.4859505  59.5817184  47.4188271  26.8291187  10.7513609  12.3713140
  26.7687778  11.5493689  12.8964567  26.2398148  10.1341639  12.8049269
  33.1300201  41.6439438  30.9285469  33.1034851  42.5724678  30.6975307
  33.3076706  41.6361160  31.8690853  80.6333771  14.9931574  58.1231880
  80.8432312  15.0263100  59.0565109  80.2634583  14.1201649  57.9917297
  22.6165409  66.7633591  72.3751526  22.4762039  66.6659927  71.4333115
  22.6543598  67.7095184  72.5151138  43.9137650  61.5288353  52.2258339
  44.1456833  62.2158203  52.8507347  44.7428894  61.0915794  52.0319443
  10.9893560  52.9574699  32.5755882  10.9775743  53.1032753  31.6296291
  11.2316141  52.0365715  32.6729851   2.6044259  46.0886421  43.3287010
   2.4708633  45.2117195  43.6884232   3.5239418  46.1010590  43.0630531
  59.5891609   8.7928238   5.8925724  59.1900673   9.0974207   6.7075429
  58.8708611   8.7917757   5.2598987  43.3296127  66.5779648  34.3635902
  44.2411156  66.7989731  34.1724167  43.1597977  65.7919235  33.8444176
  79.9120941  58.4066124  58.9130173  80.6986313  58.8191452  58.5560722
  79.1909561  58.8020935  58.4233322  23.2353840  15.2892551  25.2921677
  23.5437222  14.8261147  26.0710506  23.1449432  14.6063576  24.6275597
  18.7307358  29.2188625  61.5725861  18.5839119  28.2748413  61.5134277
  19.5572624  29.3033810  62.0479202  54.5634689  30.3731937  84.2803879
  55.0022812  30.3638039  83.4297485  54.2566299  31.2742043  84.3816757
   7.4513645  62.0763283  35.8125496   6.6017232  62.4404678  35.5640717
   7.3535357  61.8495178  36.7373314  67.3741379  43.1603813  54.7658005
  67.1252289  42.2362633  54.7825890  66.9357376  43.5124779  53.9911613
  84.9329834  58.5401077  14.9121847  85.1383591  57.7196121  14.4640341
  84.7944717  58.2864380  15.8247070  29.5962334  67.0834885  63.8292770
  29.9684544  67.6191254  64.5298309  28.7596760  66.7779770  64.1800919
  55.5733681  64.6325912  55.6739120  55.1162834  63.8251801  55.4385567
  55.8972626  64.4746857  56.5606956  71.6596527  29.5384750  86.1878052
  71.3781891  28.6436577  86.3783646  72.4170227  29.4338131  85.6119003
  56.2949219  48.3667297  52.5255241  56.9996986  48.1894836  51.9025459
  56.4976387  47.8138657  53.2801628  32.4389992  64.0525665  37.5304756
  32.8524857  63.6484947  38.2933540  33.0659599  64.7155380  37.2412910
   1.6434776   0.6018288  62.7314262   1.6642787   1.3515828  63.3261261
   2.1665225   0.8783737  61.9789772  34.4757614  54.9966469  23.6871624
  33.5808754  54.8113518  23.9719105  34.6863937  54.2859573  23.0815334
   6.2923756  16.4235916  49.3697586   6.0649362  15.5070543  49.5261688
   6.7689300  16.4138184  48.5396805  57.2728004   6.4147592  63.9883728
  56.6664429   7.0971212  63.7003670  57.4516754   6.6246109  64.9049988
  64.4258728  51.5083351  63.4032669  64.0287933  50.6630058  63.6129799
  64.7448654  51.8381119  64.2433395  13.1687927  51.2459717  88.0073242
  13.6776705  50.5841980  87.5390015  12.2571268  50.9887543  87.8697205
  44.1440430  70.5626907  28.6320667  44.5788498  70.7898178  29.4540081
  44.2386818  71.3439560  28.0871849  79.1991653  52.6701317  45.7417679
  79.1519165  51.7143326  45.7628975  79.1217728  52.8933182  44.8141747
  35.5511436  13.1924820  81.8771515  34.8561745  13.0113335  82.5099564
  35.0891953  13.3628597  81.0562973  85.4434280  50.5120926  46.2932739
  84.4942932  50.4435349  46.1899719  85.5698624  51.2924347  46.8330078
  54.5663872   1.9892719  61.6460266  55.0461082   2.5641584  62.2423515
  54.4845085   2.4965241  60.8384209  70.5315475  15.7360620  20.5127945
  71.1062698  15.4389362  19.8073578  69.6541519  15.4752226  20.2328320
  62.5460205  65.5167847  55.6781044  62.1324692  64.6973724  55.9497147
  62.2128754  66.1689987  56.2944260  69.5979919  22.1766720  19.1737156
  70.1910172  21.4413204  19.3280315  70.0728683  22.7439442  18.5663242
  60.6198730  49.6749344  52.9258842  61.3043747  49.1041374  53.2749977
  60.6500206  50.4531326  53.4824181  42.1431999   9.6880369  61.5923424
  42.8640060   9.8599653  60.9864464  42.4930382   9.0389948  62.2027435
  73.0407257  65.1860809  31.3785954  72.8849792  65.2832489  30.4391632
  73.7710114  65.7768784  31.5626736  71.0432739  46.4499779   4.3604198
  70.1874619  46.0232964   4.3183727  71.1683578  46.8224182   3.4875667
  65.4489136  24.6127071  56.5214920  65.6711044  24.2032280  57.3576660
  64.4931717  24.6651802  56.5269699  40.7618294  33.3227577  82.6138153
  40.6070404  34.0351295  83.2341385  40.1147308  32.6571388  82.8471527
  76.3680191  56.8456306  44.0317535  75.9813232  55.9702759  44.0529480
  77.1380997  56.7537613  43.4707108  22.7302113  46.6339035  36.3083992
  22.8602028  46.1495514  35.4930840  23.2776966  47.4133568  36.2138329
  10.3309317  58.3795929   8.3567343  10.7265711  59.0709953   8.8874559
  11.0342073  57.7427101   8.2301855  72.3927536  19.2318249  38.5496521
  72.1232834  18.3796558  38.2069855  72.6386490  19.7351952  37.7735176
  59.1647186  70.8903198  82.3146057  59.8485184  70.4185410  81.8391342
  59.6421089  71.4782562  82.8999786  65.0968628  66.8518829  16.8573227
  64.3238144  67.3267899  17.1624451  64.7531052  66.2062836  16.2398567
  82.2989044  66.9170532  20.4989223  81.6744995  66.7255707  19.7991505
  83.1575394  66.8133850  20.0887527  72.8114395  22.7283192  25.7336388
  72.1670303  23.3320675  25.3642368  72.9555054  23.0474358  26.6245041
  15.5215807  48.9576073  45.1334648  14.8550739  48.4528236  44.6674271
  15.7035999  48.4445572  45.9207916  36.0108795  68.9065475  44.8421249
  36.8639107  69.3373566  44.8966980  35.7012253  68.8728638  45.7472267
  83.7547913  54.7029533  82.0896454  83.2080002  55.1018791  81.4128113
  84.1390991  55.4455414  82.5555878  33.1487312  26.4671650  76.9435883
  32.3846970  26.0275955  76.5704117  32.9321747  26.5793190  77.8692017
  66.1466980  42.8169518  45.8410072  66.8651047  42.4822197  45.3042831
  66.4530945  42.7146873  46.7420540  12.2828922  15.1255064  69.0625534
  11.7120819  14.4114504  69.3463287  11.9540272  15.3651390  68.1961441
  33.1732674  50.3943367  33.4321671  33.5882530  49.5563812  33.2275925
  33.4004211  50.5569115  34.3477020  51.1442986  14.3409948   7.5251751
  50.5590019  14.8770275   8.0602732  50.5967560  13.6158209   7.2242594
  49.2403755  56.3518448  21.9873180  49.8660355  57.0452042  22.1971607
  48.3913651  56.7934341  21.9670601  24.2883873  64.6758957  45.8049088
  24.0615730  65.4282532  46.3514900  23.6260223  64.6735077  45.1138954
  78.4850693  26.1793404  47.1939774  78.5413971  25.2651672  47.4720917
  77.7203369  26.2080879  46.6190109  76.4036331   8.9379416   0.6507893
  77.1298904   8.9093399   0.0279236  75.9363937   8.1141548   0.5118907
  42.6772499  18.4760151   4.7886295  42.2983932  19.1794701   5.3157439
  41.9504471  18.1615868   4.2509289  47.5393486  65.4496384  35.9361954
  47.5128708  64.9731445  35.1064453  46.6813202  65.8692627  35.9989014
  27.3664436   8.4792738   5.2206640  26.9449005   7.6434135   5.4203372
  26.6527405   9.0415449   4.9194813   8.1892548  47.7801056  13.4108124
   7.3805423  47.2962456  13.5784292   8.8280230  47.3938675  14.0100021
  15.2218542  17.6078644  23.7594719  15.7827845  17.2672825  23.0626259
  15.7728205  18.2377701  24.2241077  47.0584602  63.5633926  59.2156906
  47.9246178  63.4462776  58.8254547  46.6401443  64.2324905  58.6738892
  81.1540298  52.3653755  13.8327913  81.7367630  51.6125259  13.7334185
  81.3757172  52.7282982  14.6903305  24.8988991  26.2389641  77.3771820
  25.3938370  27.0006580  77.6789932  23.9901810  26.5386372  77.3514709
  21.8936977  49.0744324  55.8557968  22.5637760  49.0415421  56.5385437
  21.1446724  48.6129303  56.2328987  78.0704727  61.2032013  23.5068836
  78.2224121  62.1325989  23.6782551  77.8391190  60.8369560  24.3604469
  55.6006966  68.9677658  43.1884537  55.2783508  68.0670395  43.2201424
  54.9158707  69.4823990  43.6155319  43.5535583  11.8643923  81.1092987
  43.9874077  11.8382111  81.9621277  42.6265411  11.9837704  81.3157272
  56.3074646  32.4206924  65.7113571  55.4706535  32.1747665  66.1056824
  56.7485504  32.9355354  66.3870850  76.4048004  62.3895149  62.2240601
  75.7914505  62.1100540  62.9037209  77.2656708  62.1430511  62.5622787
  74.9749451  63.1139832  22.7659111  74.1089935  63.3818855  22.4583664
  75.5533905  63.2712669  22.0196552  20.9653931  69.9995880  25.9770164
  20.5103874  70.6780777  26.4758625  20.7290783  69.1816254  26.4144192
  45.1502266  55.8219795  18.8806076  45.3985596  55.0151672  18.4293671
  45.6108894  55.7792587  19.7185802  83.6390152  63.2817383  63.6019630
  84.5869446  63.3773193  63.5096359  83.4523239  63.5909157  64.4884109
  29.4310532  20.0598679  68.7924271  29.4775734  21.0151653  68.7540207
  28.5949230  19.8778419  69.2213593   4.8685217  58.5108185  84.6233902
   4.4147048  59.1734428  84.1026154   5.7710004  58.8252449  84.6772461
  49.2298088  27.4236069  23.2329826  49.8980827  27.8455086  22.6929455
  48.4707947  27.3430977  22.6553631  52.8117142  63.8897781  10.3332567
  51.9184570  63.7401619  10.0235167  52.7227097  64.5685959  11.0022202
  58.4012375  39.2369843  27.6963158  59.2093658  39.4925690  27.2515221
  58.6175842  38.4119415  28.1307430   2.5533586  47.2658195  14.3511133
   1.6976359  47.6942329  14.3303099   2.3567164  46.3334770  14.2599955
  14.1516171  42.6145210  38.5103073  14.0119286  41.7329979  38.1644211
  14.8069735  42.9991379  37.9282341  76.3986053   1.8395572  37.0562172
  76.1119308   1.4051175  37.8595276  77.1383133   2.3826249  37.3284950
  52.3867531  32.4977570  37.0383682  51.6580620  32.7551498  37.6031609
  52.2069969  31.5840378  36.8169327  48.0300560  71.0042648  81.2903900
  48.8593102  71.4728088  81.1953583  47.9576988  70.8334808  82.2294464
  15.6239729  42.6683540  57.7557335  16.2259045  42.0453682  57.3485527
  16.1858387  43.2308121  58.2888222   5.5070324  42.6768570  82.6580200
   4.6520991  42.4856033  83.0436935   5.6968875  43.5748329  82.9297409
  41.7675667   8.6668510  84.8373489  41.9557114   9.4837246  85.2994614
  42.5029793   8.5578976  84.2344131   3.1659141  41.5655174  83.4663849
   2.2989650  41.7702255  83.8167038   3.2460806  40.6167641  83.5647354
  85.0330811  47.4561043  28.9728279  85.1525726  46.9172211  28.1908073
  84.4085312  46.9664383  29.5079861  64.2014847   4.6730843   1.5425844
  64.6043777   5.4722033   1.2030011  64.7363586   4.4388294   2.3010471
   8.1237211   7.3092446   1.9627273   7.7734818   8.0419559   1.4560727
   7.4386787   7.1102204   2.6009574  53.3067284  10.9433966  73.9936752
  52.5813560  10.6178837  73.4606628  53.5650330  10.1938381  74.5300293
  35.6429062  49.7824554  53.9440346  35.5374756  48.8551903  54.1568718
  36.5835457  49.9409676  54.0234146  86.5855560  43.3747749  56.7571678
  87.3984451  42.8867683  56.8886871  85.9296494  42.8859444  57.2542152
   8.2511911  17.6710796  51.0139503   7.7674932  18.4163990  51.3699951
   7.5767980  17.1056290  50.6375313  40.6324158   5.6359620  74.1815872
  41.0480156   6.4977078  74.2116470  39.8945084   5.7467117  73.5820389
  49.6906700  32.2050133  13.6907701  49.1358452  31.5956669  14.1776962
  49.1106262  32.9342003  13.4715223  37.1987686  67.6862488  41.4824295
  36.3205910  68.0447006  41.3537788  37.0854645  66.7393875  41.3997231
  26.8476429   2.8802824  78.0848923  27.3876896   2.2066360  78.4981537
  25.9651852   2.5095208  78.0789490  62.4519882  34.6723099  63.7269249
  63.0563354  34.4728851  63.0119209  61.8880692  33.9011192  63.7860146
  51.4580498  42.3237000  35.8103867  50.6390228  41.9484901  36.1338768
  51.5078621  43.1844482  36.2261581   1.6596898  40.5302086  22.2036381
   2.3733819  40.9881058  21.7595596   0.9627299  41.1826859  22.2725754
  46.5181503  38.8760376  33.6895027  46.4793282  38.6966400  34.6289406
  46.4018555  38.0200500  33.2771950  10.3275518  55.7722511  52.1104469
  10.2354746  55.4588280  51.2107162   9.4557009  55.6667900  52.4912186
  69.5179672  22.3363667  74.1633453  69.5589371  21.3823643  74.2299118
  69.0709229  22.4995327  73.3328247  19.3946857  49.3160439  27.5143509
  19.6521339  48.8825340  26.7007046  19.9844780  50.0668488  27.5827103
   1.7293574  66.2628632  50.0192642   1.7166704  65.8955002  50.9030685
   1.3326468  65.5848389  49.4723320  74.8934021  27.2463093  32.2759018
  75.3650818  27.6634808  32.9968109  74.6448517  26.3873901  32.6175385
   7.9155054  21.7610207  70.0763321   7.5183325  22.4284363  70.6358261
   8.5982533  21.3680096  70.6200485  18.6878071  51.6340179  15.6759272
  18.0467052  51.3942451  16.3450527  19.1338215  52.4008713  16.0354233
  83.6023026  27.5323086  64.3904877  83.2456360  27.6632671  63.5119324
  84.5314560  27.7462902  64.3061295  86.6109772  22.7337914  86.0740204
  86.9205780  22.9340172  86.9573593  86.3725739  23.5843220  85.7052460
   2.1750050  18.5402374  22.0475140   2.4185202  18.9536400  21.2192440
   1.5841779  19.1678028  22.4638290  77.4924164  58.5944061  87.9636078
  77.5001831  57.9781380  87.2312241  77.8988037  58.1141815  88.6850433
  59.9779243  22.9476624  77.9054489  59.3348198  22.2440205  77.8186493
  59.5563812  23.7081375  77.5051880  43.7565231  50.4526443  68.0126419
  43.9483948  49.5356522  67.8163147  44.5812035  50.9102325  67.8490829
  75.5695419  50.2312126  67.7502823  75.9792252  50.4652443  68.5831146
  76.0157318  49.4282799  67.4811401  77.1484070   1.7810507  77.2693634
  77.8610764   1.1616367  77.4264221  77.5695572   2.6404245  77.2878952
  40.8292007  44.9724770  71.0696640  41.5246048  45.6242332  70.9810181
  40.4903984  44.8613930  70.1813507  35.7666550  59.8816185  52.1052284
  36.0484924  59.7994995  51.1941528  36.5413742  60.2012138  52.5677185
  64.6502457   6.6017814  35.9148865  63.8161888   6.4071875  35.4874458
  64.6468887   6.0603852  36.7042618  10.7265110  42.4233971  48.1995811
  10.4748764  41.5011139  48.2475891  11.6738462  42.4206390  48.3366203
  77.7523956   9.5326843  61.6232681  78.5199051   8.9627666  61.6717911
  77.0322647   8.9929190  61.9493141  43.0732994  23.9079132  74.2898254
  42.5281982  24.5174522  73.7922745  42.7961807  24.0256462  75.1984406
   1.4363483  28.0496845  30.0422935   2.2645516  28.3028030  29.6345654
   0.8544646  28.7930717  29.8841171  61.5920486  42.9867287  64.8189240
  62.5428543  42.9643898  64.9270782  61.2530060  42.5214539  65.5836411
  43.6694832  35.1028366  67.1597290  43.9258041  34.4289093  67.7892914
  44.4592247  35.6298790  67.0382156  61.3779602  17.1712036  48.0995750
  61.4433327  17.9157162  47.5015259  60.4573593  17.1542530  48.3611870
  70.3105621  21.4061108  66.7164688  70.5927658  22.2379055  67.0968781
  71.1007233  21.0470028  66.3128433  54.6964912   8.3299599  75.3006439
  55.3773918   7.6712494  75.1638718  53.9533806   8.0169573  74.7848511
  75.2316055  66.7978363  31.9687042  74.5539627  67.4722061  32.0162086
  76.0376740  67.2503510  32.2171326  26.2745800  47.9039078  73.6791840
  25.5913734  48.4815598  74.0194473  26.7287960  47.5848808  74.4590225
  61.6942024  46.2734718  51.2073097  62.4212761  45.7686157  50.8430061
  61.5566139  45.9009666  52.0782509  72.4885788  38.2201614  84.4017792
  73.1205139  38.7580147  83.9247055  72.4181747  38.6379700  85.2601013
  69.2804871   8.9727802   7.0660987  70.1798782   8.8756390   7.3789744
  69.2150955   9.8918266   6.8066545  75.8128662  51.0734406  61.2311516
  76.1712112  51.7665901  60.6767502  75.4828110  51.5315399  62.0040970
  83.1740723  39.8187103  71.8886719  83.4672470  40.7097473  71.6980667
  82.3157425  39.7542458  71.4699249  23.6712914  62.7550316  13.2790794
  23.7185040  63.2255325  14.1113243  24.1720543  63.2966042  12.6690254
  60.8054352  14.7717552  58.4316673  61.6289062  15.1376877  58.7545052
  60.5777054  14.0951605  59.0693130  55.2880707  70.7033463  34.8423653
  55.8423233  71.0322189  34.1346436  54.4190636  70.6241302  34.4489365
  48.1118927  30.5071545  15.4868488  48.8976555  30.1314030  15.8838615
  47.5414391  30.7082348  16.2287273  35.1171684  48.1807480  35.9127045
  34.8097916  49.0851135  35.9749413  34.7740288  47.8682289  35.0755539
  73.8903351  22.3731060  87.7639084  73.8186722  22.5176849  88.7074051
  74.5753403  22.9784966  87.4801788  69.8992233  70.6054916  12.9331284
  70.0934296  70.2457733  12.0676088  69.6304321  71.5081940  12.7625303
  37.1690750  26.9422684  88.1395416  37.5087051  26.0517712  88.2284088
  36.8958931  27.1838512  89.0245514  14.3796587  36.2508011   7.2668805
  15.2478609  36.5874634   7.0452614  14.1581917  36.6836967   8.0913706
  29.5821190  10.2781458  77.8800964  30.1916752   9.5401545  77.8865585
  30.0443859  10.9664288  77.4017563  38.8503761   8.9437256  35.4041977
  37.9790382   9.3390684  35.4307518  39.4191856   9.6395998  35.0748787
   6.1233349  28.3713760  68.6970291   6.6362448  27.9564533  69.3905716
   5.5549626  27.6742058  68.3697128  19.6911106  49.7768822  70.6962357
  20.4733677  49.8119125  70.1457062  19.1462841  49.0995789  70.2954178
  12.7443047  58.8311424   1.9598231  12.9696903  59.7606850   1.9225737
  11.8045464  58.8196449   2.1413543  57.8553658  12.6860542  74.7795563
  57.1062622  12.6140347  75.3710709  57.4944839  13.0734816  73.9821243
  41.1722336  11.0965738  75.4856873  41.8241768  10.4561806  75.2009048
  40.4609032  10.5689440  75.8488007  27.1209202  21.5921230  72.7079620
  26.8539143  20.6730690  72.7246246  26.7164459  21.9447098  71.9152985
  70.1846771  23.9632759  36.3996277  71.1334000  24.0126820  36.5167427
  70.0519867  23.1983700  35.8396797  33.2551804  53.4714470  27.2804375
  33.2187614  54.3638802  26.9362450  32.7154541  52.9600372  26.6776199
  44.4877129  14.3419571  58.8700066  44.9938507  13.9768028  59.5957603
  43.6940460  13.8077698  58.8388481  44.3504524  40.2149773  57.9681740
  44.6259117  39.5025024  57.3913422  44.6999245  39.9766769  58.8268433
  71.3149643  31.5623093  59.8089180  70.8021240  31.7110214  59.0144958
  72.1490555  32.0009346  59.6411705  10.8634548  65.0504532  52.9888077
  11.0455780  64.6386414  53.8334808  11.7029762  65.4215622  52.7173080
  43.3526459  66.8303680   5.3665423  42.8772354  67.4841919   4.8539729
  42.6939735  66.1703873   5.5828781  21.7461224  45.9766159  38.7954636
  20.7933311  45.8910980  38.8287163  21.9458294  46.0702591  37.8640251
  76.4343414  17.4624386  15.9829569  76.0139999  17.8803806  15.2313824
  75.7661285  17.4741116  16.6682167   3.3798862  41.4331512  80.5462341
   4.1332316  40.8479042  80.6249008   3.4055033  41.9647942  81.3418045
  53.1309090  23.1895046  63.0959167  52.2400551  23.0441132  62.7773666
  53.3418159  24.0811214  62.8188438  67.9111710  29.3822231  23.2610989
  68.1890945  29.1447277  22.3764591  68.1341705  28.6197109  23.7950249
  14.5561075  50.2924271  11.6723728  14.5569782  50.4197617  10.7236805
  15.1945181  50.9260979  11.9996700  58.3886375  58.4612007   8.6849852
  58.0702133  59.3598557   8.5997868  57.7330208  58.0254021   9.2294874
  30.8100014  55.6938972  51.2734795  30.1845760  55.2854080  51.8719864
  31.5729790  55.1162300  51.2934532  25.4336452  36.7754326  60.2933121
  25.3400650  35.8254051  60.2231331  26.3465862  36.9440422  60.0601997
  78.6481094  47.2360344  45.7476006  79.0663605  46.4880562  45.3211823
  78.1136932  46.8485413  46.4407654  65.5694733  57.3875427   1.4279294
  64.7734528  57.4461823   0.8995945  66.1131439  58.1141090   1.1233745
  18.2529087  41.9694481  77.5646362  17.3543129  41.9038010  77.2414474
  18.5131359  42.8692970  77.3676834   4.9911113  68.4810257  54.9471054
   5.4197068  67.9345322  54.2884064   4.8072786  69.3034668  54.4931946
  51.9208450  28.7908001  85.2687454  52.1293488  27.9123478  85.5866776
  52.0576210  28.7418289  84.3226318  65.2368393   7.1772518  52.4123955
  64.7828140   6.9573765  51.5989189  65.0127411   8.0941525  52.5714684
  21.4468555  48.0948257  40.8534164  20.7736931  48.6430321  40.4502335
  21.7473068  47.5249100  40.1454926  79.2012711  54.2074966  56.7912483
  78.3270874  53.8438377  56.6505852  79.2988129  54.2353058  57.7430573
  77.7608185  36.6767235  37.2760735  77.1194992  36.6227570  36.5675316
  78.3602829  37.3716431  37.0041237  86.2116623  56.5523186  53.1625519
  87.0803070  56.9149475  52.9888000  85.7265701  57.2739029  53.5628471
  40.3189392  68.0825348  57.9243279  40.6519356  67.3457260  57.4120216
  39.3697166  68.0467606  57.8062897  74.3882446  57.3987732  34.1515961
  75.1933212  56.8812752  34.1351509  74.3180847  57.7607079  33.2682419
  19.5923309  13.1878500  72.0329056  20.1929245  13.2874126  72.7715607
  19.5742626  14.0516033  71.6207962  60.6888618  70.8772202  45.2260246
  60.9599495  70.2339554  45.8809738  61.5095177  71.2042160  44.8574715
  65.3557358   6.5345745  16.7081261  66.0487823   7.1869855  16.8095245
  65.0004959   6.4234715  17.5899944  47.5565872  42.3633423  25.7538414
  46.8846169  42.9342384  25.3813305  48.3634567  42.8753242  25.6984234
  17.2473793  60.9936981  70.7607193  16.6244698  60.2929077  70.5680771
  17.6201897  61.2234459  69.9095688  70.5827866  14.3052769  68.4242249
  71.1332855  14.9108944  68.9206238  71.0867004  13.4919529  68.3958206
  13.3831854  28.0657291  71.5309753  14.1771154  28.5558796  71.7446518
  13.1794291  28.3203545  70.6310425   9.7003727  68.4581604  71.9588318
  10.4065399  69.0703888  71.7521057   9.9832277  68.0303421  72.7670364
  38.1986198  59.5463676  34.9204788  37.5011749  60.1819916  35.0810699
  38.4085846  59.1972313  35.7866478  26.3648052  11.8610411   9.6173449
  26.3327599  11.0813818  10.1717243  25.4562435  12.0038261   9.3520899
   7.4088526  45.0494690  68.3960648   7.1153913  44.6907578  67.5585403
   8.3638248  44.9965706  68.3578415  74.5054932  24.6355629  41.2014465
  75.2899094  24.6502819  40.6530838  74.2728043  25.5575123  41.3114204
  60.6379128   3.0017853  44.4747314  60.7886772   3.1367269  45.4103050
  61.3734741   3.4409990  44.0477982  60.9080315  68.2460938  80.6659241
  60.9068489  67.5102234  80.0537720  60.2447548  68.0171280  81.3169708
   0.3792596  65.4773331  20.3972225   0.5758054  64.8767548  21.1161823
   1.2271081  65.8534546  20.1607571  15.3379498  47.8571815  52.2293549
  14.9985418  48.7085762  52.5053291  15.6156235  47.4350739  53.0423431
  28.1193676   2.6860237  16.3802910  28.1030540   2.0225892  17.0700874
  27.8956566   3.5021737  16.8275986   0.4922229  12.3177910  39.3322144
   0.4081331  11.8614807  38.4949913  -0.2671182  12.0301743  39.8390770
  68.1360931  63.4630241  84.9820175  68.6031113  63.8490105  84.2409821
  67.4292831  64.0811691  85.1679230   0.5415460  60.0146713  45.3900909
  -0.3769819  59.7600632  45.3022652   0.5765999  60.9072800  45.0462074
  63.1007805  45.9885941   4.7482638  63.3736687  45.1784363   5.1788545
  63.3818893  45.8831940   3.8393631  24.0204563   9.5435085  85.0372849
  23.6063309   9.6123981  85.8975143  23.4725857   8.9229259  84.5567169
  66.6643753  27.7669373   0.0068331  66.9949570  28.6440697  -0.1870372
  65.9971848  27.9055977   0.6790406  62.4308586  19.2033997  30.8017540
  61.6252556  18.7017879  30.6767864  62.3544426  19.5629959  31.6855431
  20.7957649  32.5040627  85.5787354  20.7061100  33.2702980  86.1453705
  20.7265053  31.7570934  86.1732788   4.4615903  53.5222816  69.2378235
   5.3054533  53.8096199  68.8891602   4.4898286  52.5674477  69.1768265
  61.4366951  58.8082581  86.5686646  62.1103516  59.4109154  86.8836594
  61.8061523  58.4325371  85.7695618  60.2503357  47.1538162  47.6617088
  59.9667053  46.2406998  47.7064285  60.2003212  47.4646950  48.5656357
  10.0326691   2.4056234  64.1019440  10.5721083   1.6690613  64.3895416
  10.4535580   3.1749487  64.4856415  16.1386929  65.6307373  64.4031219
  15.2146158  65.4599915  64.2210312  16.1420574  66.0250702  65.2753143
  34.7361526  61.8603745  11.7526512  33.8416672  62.1887207  11.8438034
  34.6539955  61.0970306  11.1809940  49.0261803  68.6062775   8.5679588
  49.0908394  68.6856155   9.5196714  48.7980843  67.6886520   8.4190578
  67.5502090  29.9315929  19.2062969  67.6258850  28.9791431  19.1484699
  66.8729935  30.0783939  19.8666515   6.0015140   3.0381434  21.0284615
   6.6499572   3.5727296  20.5702362   5.3686776   2.7970531  20.3519821
  52.4364815  11.2864504  78.3782272  53.2242012  10.8594179  78.7149353
  51.8850365  11.4146738  79.1500473  17.0297337   0.9541983  11.2247620
  16.0878029   1.0620793  11.0930042  17.4170742   1.1772497  10.3783293
  55.6979370  11.7617817  41.0986977  54.7622147  11.9580507  41.0525436
  55.7826385  10.9010582  40.6885605  20.6997852  58.7391090  17.4827957
  20.3135738  59.4244690  18.0280952  19.9882259  58.4633636  16.9049721
  26.4895058  66.2626877  71.3067856  27.3652573  66.6355743  71.2055817
  26.6212120  65.4861908  71.8507919  20.9106998  38.1926575  66.0200729
  20.9463654  37.3469620  65.5731277  19.9998093  38.4727592  65.9303284
  62.9295959  70.6227570  49.8570938  62.7175446  69.6895599  49.8369560
  62.2389412  71.0365372  49.3393936  48.7922134  45.0388336   0.4752310
  48.0224762  44.8604507  -0.0650586  48.8771667  44.2660751   1.0336739
  81.6010971  45.2271843  66.7341537  81.7645798  46.0443077  67.2051315
  81.9556656  44.5461960  67.3057938  80.8617020  66.3742218   4.8983903
  80.0583801  66.8424301   4.6710167  81.1429672  65.9688263   4.0781646
  22.7198620  36.5806923  73.2573471  23.3238926  36.4801559  73.9930573
  22.2664986  35.7394218  73.2029877  58.5884972  47.0139198  64.6134720
  57.7662735  46.9713745  64.1252365  59.0922050  47.6996765  64.1750031
  21.7133827  39.7052765  12.7363977  22.0912285  39.1448059  13.4141407
  22.3217373  40.4410629  12.6674376  10.9848633  46.2847786  73.4486465
  10.7574587  45.9891739  74.3302002  11.9293232  46.1428986  73.3846359
   7.0684180  52.7320709   5.2310591   6.6637273  52.7980537   6.0959888
   7.9082975  52.3019524   5.3917789  10.1690140  70.2150192  31.7680454
  10.2375488  69.2744980  31.6038914  10.4988441  70.6225891  30.9672127
  16.9272137   1.8969857  82.6827393  17.8549786   2.1136968  82.7750626
  16.4709492   2.7221148  82.8477173  14.9879255  18.9513893  74.1325150
  14.9490681  18.4950714  73.2919769  14.0724239  19.0504818  74.3937988
  46.7137794   6.5474968  53.9283142  46.5793915   5.7660642  53.3920937
  46.5489807   6.2542753  54.8244705   7.4501843  30.8277245  44.1772766
   8.1786518  30.2102776  44.1114960   6.8127151  30.3870792  44.7391434
  69.1132050   6.4585109  79.1431732  68.9592667   5.7490921  79.7670822
  68.3394165   7.0167704  79.2195740  59.4008446  25.9053211  35.9900055
  58.6094170  25.6298580  35.5274124  59.1015892  26.1095028  36.8759995
  53.5272484  46.2126999   9.6822805  52.8750763  46.8596687   9.4133263
  53.7837791  45.7786789   8.8686161  30.2704144  13.2027292  63.6496773
  29.9535084  12.3591003  63.9723129  29.6970081  13.8480368  64.0632172
  75.0959015  59.2601700  24.6577988  75.1276016  59.3636589  23.7067375
  74.3350983  59.7736473  24.9293690  31.0546036  43.4569550  63.8786354
  30.2495193  42.9953728  64.1131821  31.7229500  42.7724037  63.8480988
   9.4888706  26.8044033  67.0814819   9.8466463  26.9846821  67.9508057
  10.2327728  26.4689560  66.5811691  32.7407417  46.2346649  62.3238068
  32.0869064  46.3581924  63.0119019  33.5538597  46.0544662  62.7956085
  22.4228249   9.5201178  87.4918213  22.4255638   8.8436050  88.1689911
  21.5829983   9.4094400  87.0460892  67.8497772  68.1397324  31.7163715
  68.5614777  67.5277939  31.9040871  68.2792892  68.9922333  31.6457176
   2.4507143  64.3963623  31.4480553   2.1699462  64.8384933  30.6468544
   2.2888410  65.0343857  32.1430092  75.6757660  34.9958115  56.9920692
  76.1400986  34.2208366  56.6757774  76.0216064  35.1393242  57.8729935
  37.1799240  46.8396149  53.5681572  37.8459854  46.3848686  54.0837173
  37.6740952  47.4598236  53.0320930   1.4615901  31.6801510  84.2947617
   2.0722969  31.5015316  85.0098572   1.8690914  31.2805405  83.5263290
  27.2728062  59.5366478  67.2622757  27.1142159  59.7864647  66.3519592
  28.1016846  59.0584984  67.2385025  70.1890259  39.1973000  28.4030952
  70.5012436  38.8050499  29.2185059  70.5008392  38.6059151  27.7180634
  52.8206177  30.3350697  72.9078903  52.5824928  29.4087620  72.9463654
  53.3242264  30.4863281  73.7077255  24.5761871  60.2918892  36.3121033
  25.5188217  60.1357536  36.2547035  24.2214451  59.9144783  35.5071487
  71.3734360  52.6029053  61.8922920  70.5277939  52.9600449  61.6210709
  71.1592712  51.9839859  62.5903625  14.8616037  31.8325825  75.9064560
  14.9228621  31.6662998  76.8471069  14.2611504  31.1609192  75.5830994
  68.0941772  33.7987747  25.0695057  67.9166412  32.8769035  25.2562199
  68.5917358  33.7860489  24.2518845  10.2677612  38.5799675  57.6807518
   9.4378567  38.4652824  58.1437187  10.0299883  38.5577354  56.7538223
  12.8551350  22.4458885  23.8405476  13.4912138  22.6259136  23.1482849
  12.2539330  23.1902161  23.8128796  77.9740295  22.7830372  41.4845772
  77.8809967  22.0415764  42.0827484  78.8507156  22.6829510  41.1135941
  79.4696350  38.0261574  44.0359535  78.8482361  37.8442307  43.3309708
  80.3246460  37.8117180  43.6628532  28.4526157   6.4001637  86.7888031
  29.1116352   5.7168140  86.6665039  28.0771694   6.5294571  85.9178543
  34.0965729   9.0152855  75.9859619  34.7470741   8.7377310  75.3409424
  33.8495636   8.2091665  76.4391556  37.2885513  65.7685242  22.2595863
  37.7369690  66.6073990  22.1526375  37.3431931  65.3561172  21.3975163
  58.3749580  63.2332649  26.2726879  58.2216682  64.1408615  26.0100117
  59.1980782  63.2608604  26.7604771  51.6380348  11.2256069  22.4576626
  50.9860191  10.5356684  22.5805016  52.3150139  10.8214893  21.9148712
  82.3677292  27.5699158   2.3879664  83.0437851  28.2302971   2.5398815
  82.6573029  26.8101196   2.8930290  51.0532570  50.9133034  55.5104790
  51.1673355  50.5104866  54.6496925  50.1564026  50.6921654  55.7614441
  11.6003380  52.2590714  15.4384947  11.5166817  52.4899635  14.5133343
  11.1768579  52.9799881  15.9045134  28.3932285  51.1728172  53.2818489
  27.7537632  50.6599197  52.7876282  29.0371666  50.5301704  53.5794754
  84.4816132   1.4254117  73.7768097  83.7992935   0.7904322  73.9946823
  84.0175247   2.1300693  73.3248062  71.1903763  44.9334755  43.6660690
  71.2129745  44.0148125  43.3981590  71.0469894  45.4168015  42.8523941
   7.9521971  37.4733162  86.9047012   8.6938295  38.0624084  86.7661972
   8.2026033  36.6640930  86.4589539  73.6798172  70.8201370  23.1970692
  73.3376541  69.9262085  23.2034588  74.2410965  70.8562317  22.4225368
  53.1446571  19.0781116  78.4009094  53.6565170  19.6128826  77.7940750
  52.2449646  19.3858624  78.2910233  47.9419365   7.8711290  31.4076214
  47.2025375   8.4667015  31.2859135  48.0870667   7.4894490  30.5418911
  73.0603485  60.9516716  60.1134224  72.7261963  61.5041924  59.4068146
  72.7169113  61.3511124  60.9126244  81.7308960  63.9042931  13.9457312
  81.1138000  64.6140823  14.1235571  81.2151642  63.1054192  14.0555086
  24.0429573  20.9241409  56.2538910  24.5435905  21.5568867  55.7388878
  23.4931946  20.4744835  55.6121750  81.2031631  28.2130432  41.6145172
  81.5549393  28.9388504  42.1299706  81.6239014  28.3006744  40.7592201
  27.5196266  52.0583801  58.4121513  28.2840481  51.4850922  58.3552856
  27.6833763  52.6000481  59.1841660   7.0090008  13.0540924  25.5878429
   7.4649920  13.5929966  24.9414024   6.5534749  12.3913651  25.0686893
  64.8905792  44.9901848  78.3046875  65.5952682  45.3797188  77.7870865
  65.2466125  44.9359627  79.1915512  18.9843102  51.3725586   4.7333274
  19.4188099  51.2599678   5.5787649  18.8361740  52.3156700   4.6638832
  29.0326595  64.5944748  43.1461983  28.5223598  65.3974762  43.2511024
  28.7887840  64.2670975  42.2804108  32.5536957  52.7907791  35.5639191
  32.4109116  53.5985031  36.0573044  32.3907204  53.0346909  34.6527748
  15.9663305  67.8739471  70.0340500  16.3855858  68.6917038  69.7662277
  16.6404400  67.2063675  69.9069672  57.1579285  50.1360664  56.1728935
  57.0542145  49.3232117  56.6676064  56.3708649  50.1885300  55.6306648
  28.6610336  71.4542084  45.9398956  28.5275612  70.8707428  46.6868820
  28.3262196  72.3011093  46.2346611  80.6356964  42.5906372  24.5211430
  81.2270660  42.8722076  25.2191639  79.7805328  42.5206261  24.9454422
  51.0771255  39.5083694  50.1874390  50.8006592  39.9693642  49.3954277
  51.9424515  39.1603127  49.9722557   9.8447180  18.8532486  65.8418579
  10.1507196  18.4532070  66.6558380   9.2209806  18.2214012  65.4841537
  83.7052994   7.3977771   8.0123987  83.5679474   6.6626129   8.6098080
  83.1678543   8.1030331   8.3729467   9.1770401  68.2436752  86.4495697
   8.3535967  68.3374100  85.9706268   9.6578350  67.5693283  85.9696503
  12.6281013  27.1215210  23.9929829  12.7633104  26.4106159  23.3664341
  12.0159349  27.7131824  23.5554676   1.7207637  56.0781784  27.5476398
   1.3769091  55.3740616  26.9978981   1.1955503  56.0363312  28.3467827
  70.5676117  27.5430470   9.1947908  71.2432480  28.0830212   8.7846966
  69.7428970  27.9563427   8.9393072  65.2400894  15.1299591  70.4911880
  64.5265274  14.6267328  70.8833847  66.0336533  14.6601610  70.7476578
  63.9444771  30.5829029  14.9648724  64.2604904  31.1949825  14.3002491
  64.7184219  30.3787785  15.4898291  12.2965775  40.1993065  68.6139755
  12.4614868  40.7732620  67.8658981  12.0687885  40.7953072  69.3275070
  10.3281221  22.4578075  16.8131599  11.1819944  22.0350151  16.9047089
  10.3993645  22.9694500  16.0073204   3.9405255  56.6303711  65.0092621
   4.8586864  56.7286491  65.2613602   3.4939024  56.3887711  65.8206787
  57.9500046  53.6135368  36.5787735  58.2612038  52.9479828  37.1923103
  58.7485085  53.9960556  36.2150383  51.6767616  15.6782436  17.6183949
  52.0590668  16.2720928  18.2644749  51.3382607  16.2550907  16.9336338
  79.4847412  21.2163906  59.3895950  79.6289368  21.9474583  58.7887802
  80.3631210  20.8898735  59.5846939  40.3464584   0.2827205  61.0882797
  40.2432861   0.8266383  60.3074188  39.9106216  -0.5400896  60.8663254
  31.6018314  13.0877647   2.7336845  31.9157524  13.2498693   1.8440733
  32.2946968  13.4303484   3.2983127  82.9402618  25.7057343  69.2715988
  82.2786942  25.0139580  69.2737122  82.7911758  26.1772175  68.4520187
  25.4046631  33.5817795   8.3572321  24.5721245  33.9008331   8.7055302
  25.4783916  33.9948082   7.4968815  82.3392181  37.3119087  43.1525879
  82.9449768  37.8587036  42.6522865  82.8585434  36.9924355  43.8904686
   6.5617237  48.0653687  88.1000671   6.5553622  47.6515007  88.9631500
   6.3655605  48.9858894  88.2743988   4.1103787   9.9474754  82.4354324
   3.9587314  10.8247118  82.7871246   3.2423327   9.6414375  82.1726227
  40.7418518  55.8706779  51.6403122  41.2641602  56.5654068  52.0412827
  40.9699783  55.0836334  52.1350327  86.3222733  19.9241600  30.3887825
  87.1105652  20.2758160  30.8025036  86.6136169  19.6374016  29.5232639
  36.9793053  60.5167961  81.1918106  36.3587036  59.9496422  80.7341843
  36.6388702  61.4013748  81.0581741  64.9609299  44.0780792  61.0430489
  65.6520920  44.7271805  60.9119339  64.1590576  44.5234299  60.7693634
  41.1676216  52.3288574  74.2707214  41.8659821  52.9618568  74.4375610
  41.1458855  52.2418365  73.3177338  55.2878227  44.9542236  46.3530464
  55.8672791  44.2255898  46.1304359  55.8245621  45.5289917  46.8987465
  38.8750954  45.9142723  28.8797112  38.8705406  45.3477631  28.1081676
  39.0494728  46.7893753  28.5332756  76.4962921  56.1799088  29.3799515
  77.0807800  55.4220810  29.3975067  76.1395416  56.1867104  28.4917412
  13.2436314  47.3445969  45.2007408  12.6847582  48.1126213  45.0822830
  12.9320221  46.7185326  44.5471573  67.1896286  12.5848274  50.7694206
  66.3006744  12.6459169  50.4197693  67.7335968  13.0304050  50.1199608
  50.7931519  14.1221027  13.4126110  50.6901588  14.9480667  12.9399519
  49.8991814  13.8016825  13.5325279  27.8966312  37.1131554  75.3676071
  28.6770382  37.3413811  74.8625259  28.0967999  36.2558784  75.7434235
  58.6478996  63.8195114  21.6283779  58.8977470  63.8131485  20.7043819
  58.7271652  62.9063530  21.9042206  62.1186256  39.6607323  34.7192078
  61.2382278  39.8329468  34.3853378  62.3157692  40.4147339  35.2749481
   5.1384592  21.1629868  56.4700012   6.0788512  21.1111298  56.2991066
   5.0707769  21.6498337  57.2913589  83.9981461  65.9564133  30.6672783
  83.4644547  65.8829117  29.8760719  84.0567322  66.8978500  30.8300667
  77.6766815  25.9645481  11.4891653  78.0173416  25.1400375  11.1422348
  77.0478592  25.7002354  12.1606979  44.1562767  17.7627201  74.0269165
  43.2783546  18.1434250  74.0034714  44.2074165  17.3309612  74.8796768
  20.6781120  21.1071205   7.8378916  19.8763676  20.7973003   7.4166470
  21.3424435  20.4637756   7.5909023  85.2159958  13.3039246  36.9666977
  85.7386856  12.5307255  37.1792755  85.8175888  14.0392303  37.0834999
  76.9345398   8.2572689  72.9746628  77.5081177   7.7743812  72.3796310
  76.6990433   7.6206660  73.6495743  42.7253227  40.1088753  17.1198177
  42.4391289  41.0221252  17.1025085  42.7036858  39.8686142  18.0461216
   8.5899200  45.8101273  72.1065063   9.4657593  46.1227760  72.3331909
   8.2714653  45.3897552  72.9053192  48.9497414  25.4814072  60.8614616
  49.8972969  25.6129398  60.8942032  48.5869446  26.2368355  61.3239937
  43.6339188  34.9022560   7.3582158  44.5800323  35.0437889   7.3909264
  43.3302536  35.1080208   8.2423420  66.8162231  36.6925697  63.0599327
  67.1901398  35.9193077  62.6374550  66.2726746  36.3409843  63.7650337
  64.5705948  58.1936874   4.8694935  64.1903458  59.0310326   4.6039820
  63.8902855  57.5491562   4.6745892  64.0903931  11.8670139  81.4743576
  64.0366745  11.6088085  82.3945084  64.9955521  11.6799068  81.2255402
   4.9814439  30.2923603  73.9644852   4.8444147  31.1943951  74.2539520
   4.1359706  30.0255680  73.6036148  77.5873337   6.3202305   4.8744392
  78.4505234   5.9254365   4.9980145  77.7716141   7.2061992   4.5624576
  55.5150528  71.3548508  84.0834732  54.5844116  71.3057022  83.8650208
  55.5393677  71.8043137  84.9282379  31.1041908   7.5228229  30.9800377
  31.9630909   7.7911487  31.3064137  31.2918797   7.0627460  30.1619110
  33.8003235  33.9298286   3.5172973  32.9888268  33.7162819   3.0567529
  34.4933586  33.7197533   2.8913543   8.0113153  68.5427322  24.0577946
   8.4802332  67.9313354  23.4898663   7.2855597  68.8602066  23.5204678
  20.8078842  32.6278725  22.0125122  21.0746460  32.3112488  21.1494827
  21.5048771  32.3366852  22.6004257  85.3074722  15.1015148   8.0575171
  85.2048187  14.6188736   8.8777313  85.2390594  16.0219822   8.3110752
  71.1509094  16.1210709  72.7483215  70.2295761  15.8910265  72.8685455
  71.1555634  17.0773621  72.7068939  46.5906105  51.8481140  64.6015625
  46.0463219  51.1499557  64.2374802  46.0218849  52.6180305  64.6050949
  68.3040695  25.4350433  18.4941673  68.4112091  25.2094440  19.4182110
  67.3703537  25.6237755  18.4004059  82.4617844  45.7631798  12.1415796
  81.6624222  46.0078239  11.6753130  82.3093338  46.0462723  13.0431614
  22.2857952   0.5043372  56.0967445  23.1660767   0.7642331  55.8250999
  21.7467232   0.6322255  55.3161850  75.0912170  59.8569107   9.0477257
  75.5559921  59.8779945   9.8842497  75.5054169  60.5444298   8.5262032
   2.3511827  39.1756744  56.9757080   2.4299896  38.3314400  57.4198799
   1.7413828  39.6757355  57.5182152  22.9505615   7.3568921  14.8403912
  23.7408676   7.4723663  14.3128376  22.4336319   6.7108054  14.3591537
  15.1049232  33.2173767  16.3662910  14.4897585  32.5425987  16.0790939
  15.9687042  32.8304214  16.2235317  11.7596741  68.0747528   1.0975864
  11.0976667  67.8694229   0.4374223  12.1574030  68.8901749   0.7924038
  74.9215012  29.9126396  60.6331062  74.0810547  30.3536968  60.7570076
  75.4924240  30.2932758  61.3004837  13.8702717  38.7012024  22.7044144
  13.3468933  38.1393394  22.1329117  13.6572657  39.5916519  22.4252071
   3.2916124  53.5144539  10.4019327   2.5762627  53.7343063   9.8051319
   3.2058563  52.5713692  10.5414534  64.9818039  66.9934998   3.0839615
  65.6224594  67.6861725   2.9227357  65.4517441  66.3518219   3.6165390
  34.5009956  57.0513763  78.4389877  35.2911301  57.2218513  78.9516830
  33.8126984  56.9298668  79.0929794  66.4659424  48.6223068  61.7537537
  67.3936691  48.4398270  61.9029732  66.3720474  48.6223030  60.8011703
  65.4590073  13.0432940  35.1237221  66.3759232  12.9232960  35.3708916
  65.4571915  12.9736233  34.1690636  14.9764242  49.1194382  67.1164093
  15.4265375  48.3505630  67.4663544  14.7867556  48.8922691  66.2061081
   7.7783303  54.1822472  22.9978962   7.7145681  54.6320190  22.1553574
   8.0375185  53.2885895  22.7733269  12.2786741  67.3297729  29.4885292
  11.4050102  67.7091675  29.5834122  12.3402166  66.6898575  30.1977196
  39.0445709   0.5907887  81.5936966  38.4898453   1.3084769  81.8993683
  38.8792381  -0.1201752  82.2129135  84.0539703   4.9791698   5.8969779
  84.0518188   4.7024498   4.9806519  84.8296814   5.5341220   5.9777651
  14.7157354  69.6054535  79.6517029  15.0894299  68.8198929  80.0510483
  15.4238272  69.9611893  79.1147766  48.0133591  68.6238022  34.0743828
  48.4354210  68.7642365  33.2268143  48.7343445  68.6243210  34.7039948
  28.1051006  59.1613770  74.1515808  27.2366428  58.9384842  73.8164215
  27.9854965  59.2318611  75.0986633  71.5269394  34.5941505  75.3831558
  72.0207901  35.3714104  75.6443405  70.8575974  34.4968681  76.0604630
  66.8684235   4.4885759  87.2876053  66.7669220   4.5374308  86.3370514
  66.2202301   3.8410561  87.5647278  86.1936111  65.3973312  88.3720398
  86.5700836  65.6166458  89.2243347  85.2688370  65.6313171  88.4513245
  65.6499176   2.6892567  54.2061844  65.8369064   3.2804744  53.4769897
  64.9638672   2.1097925  53.8748474  53.3051262  48.3482857  61.6461983
  52.7746201  48.7699776  60.9702034  53.7115860  49.0743675  62.1193008
  84.9835129  32.0204926  79.3191223  84.4257736  32.7775269  79.4981842
  85.6456985  32.0421028  80.0099716  -0.2294697  20.4011211  84.5249863
  -0.0118228  21.2239761  84.9629059   0.3591606  20.3681335  83.7708969
  78.2739563  28.4414482  -0.0231025  78.4912643  28.4341583   0.9090763
  78.2559967  27.5173721  -0.2720839  42.3498802   7.3707199  59.5560760
  41.8797646   6.6334047  59.9454193  41.6706085   7.8833790  59.1178932
  21.6725121  20.4001408  77.7210312  20.8339691  20.8406029  77.8591309
  21.6586990  19.6622295  78.3305588  17.5883141  28.4511528  76.7855606
  17.2996616  28.6172791  77.6829529  18.2499523  29.1224232  76.6186371
  20.5492878  59.2967529  36.7334175  19.6613369  59.5713234  36.5045433
  20.9054451  58.9365616  35.9212303  61.3212128  18.6906643   0.0247762
  61.6035843  18.3412609   0.8700070  60.3965874  18.9039078   0.1505839
   1.0124835  39.7313080  81.1260147   1.8680125  39.8029251  80.7027283
   0.8057709  38.7973213  81.0918198  46.7786293   3.1632988  69.0875397
  45.9108810   2.8063452  69.2768250  47.0600319   3.5589316  69.9124756
  29.2086220  38.2123680  83.2264252  28.5661240  38.9216423  83.2452469
  30.0450230  38.6509285  83.0704575  56.7095985  70.4597092   3.0525141
  56.8193626  69.8879623   3.8123076  56.7887764  69.8746567   2.2990754
  60.8867874  40.9829865  66.6258469  61.7712860  40.6175652  66.6068344
  60.5825577  40.8274574  67.5199890  70.8916473  27.0447903  79.3005905
  70.6059952  26.1878986  78.9837723  71.6877289  26.8623867  79.7998047
  12.0811796  64.5940933   1.3542949  12.9984703  64.3205872   1.3557278
  11.8737488  64.7414703   2.2770545  34.4992714  55.8679047  65.6605301
  34.8517456  55.0291939  65.9581223  35.1504059  56.1945801  65.0396118
  61.1738319  37.5368576  29.4358253  61.6366425  36.9108047  29.9926891
  61.1721764  38.3504219  29.9401474  79.5355911  21.7011490  35.3105278
  79.6416473  22.0048084  34.4089890  79.6934662  20.7581196  35.2657661
  85.1093216  21.1847439  45.9791412  84.1846848  21.0356617  46.1767387
  85.2463226  22.1143990  46.1613655   3.4672759  33.6866188  81.5694504
   3.4494221  32.8610573  81.0853424   3.1585839  34.3394394  80.9411469
  48.3363495  60.5076332  11.3510323  48.2137985  61.4569244  11.3585854
  47.8361664  60.2075920  10.5920706  85.2480850  56.6595039  64.7599411
  85.2091599  57.3935852  64.1468811  85.4318542  55.8977966  64.2101593
  22.8506241  65.1140442  22.6949043  22.4767857  65.0336227  23.5724068
  23.7486801  64.7958832  22.7870750  53.3286667  41.4233017  28.5952816
  53.9682083  41.8961029  29.1278992  53.4075508  40.5124321  28.8786945
   0.1631832  17.5907269  71.3336182   1.0312792  17.2298260  71.5135956
   0.2620441  18.0470676  70.4980240  59.3381958  24.4568729  26.1987839
  58.4044533  24.2847614  26.3201675  59.4617271  24.4493294  25.2496185
  80.7118835  50.6484451  55.5363159  80.4266891  49.7475700  55.6890373
  81.1738815  50.8926315  56.3382874  74.8704529  58.6150360  45.7055702
  75.4508286  58.2499084  45.0376854  74.6408386  57.8677177  46.2578583
  41.5431671  55.9345169  26.3328152  42.1093826  56.4050064  25.7210369
  41.3890953  56.5568619  27.0435791  52.9217491   8.1707430  19.0598278
  53.2525482   8.4658594  18.2114697  53.0021896   7.2174020  19.0297985
  85.0987625  47.2897148  73.8934708  85.4038391  48.1967506  73.8722763
  84.4748688  47.2637558  74.6189499  73.1950378  16.7850533  29.5254841
  72.5922699  16.2439251  30.0354595  73.9224625  16.9608765  30.1222878
  67.7959366  30.6609669   0.2858706  68.7067947  30.5005417   0.5325096
  67.8272018  30.8162842  -0.6581265  62.1188774  70.8963089  33.0613327
  62.6247940  70.5219345  32.3401337  62.3354530  71.8285751  33.0472069
  85.4609375  63.3955269  17.9383526  85.7620392  62.6559677  18.4661922
  85.4255295  63.0535278  17.0450363  11.4817486   3.3682647  52.4827003
  10.5278492   3.3284657  52.4139671  11.7863655   2.5686731  52.0536385
  85.6063919  58.5251808  75.2756882  86.4547806  58.5021019  75.7183456
  85.3647385  59.4513512  75.2691956  83.5420303  11.3868780  27.1896210
  82.6107407  11.5723667  27.3100891  83.5899887  10.9408579  26.3440456
  72.4301682  59.8001251  10.1859140  72.2018738  58.8705482  10.1863718
  73.3172073  59.8287315   9.8273401  50.6427078  11.3293104  30.5549698
  49.8550987  11.4890089  30.0349731  51.3635063  11.4184542  29.9314842
  83.0843811  26.0120964  35.0462837  82.9394760  25.5364704  34.2283516
  84.0367050  26.0582008  35.1310539  66.6984100  11.9087343  38.2207031
  66.3713531  11.0216284  38.0713539  66.6776810  12.0146904  39.1717949
  15.1623402  66.5085678  36.1794319  14.2122440  66.5980911  36.1050224
  15.2969780  66.0783615  37.0238380  11.1801262  33.7213287  79.8350220
  10.7149506  34.0287819  79.0569992  10.5056381  33.2968521  80.3652267
  56.5443993  14.3631620  31.9006176  56.6454048  14.9663115  31.1642475
  56.7828751  13.5075483  31.5438480  71.8934555  15.7488556  82.2834549
  71.5332184  14.9592514  81.8797379  71.6914597  16.4488106  81.6625748
  82.7521286   3.6855445  34.0036888  82.3235245   3.0034614  33.4866829
  82.5271912   3.4759202  34.9101601  33.1909180   6.8840599  72.2247543
  32.7558060   7.4993978  72.8149033  33.7635307   6.3702149  72.7942429
  38.0583191  16.6448002   2.3890164  37.6036034  16.5879612   1.5486392
  37.4502754  16.2550373   3.0171888  32.0732727   4.8710761  84.3427887
  31.5838470   5.6763239  84.1746445  32.7959404   4.8946309  83.7155457
   8.0107698  36.7192650  79.3332520   8.1195078  36.5069237  80.2602463
   7.7108588  35.9026108  78.9340515   3.7644327  18.4113598  86.1989136
   4.4092064  18.5334644  85.5020676   4.0603690  18.9885101  86.9028625
  61.1592522  46.0626259  54.4427109  61.4126129  45.2713509  53.9673958
  61.7870369  46.7257652  54.1557274  69.9489594  29.4681473  69.1370697
  69.4537277  29.0043182  69.8122253  70.4649658  30.1139526  69.6196594
  75.2165985  20.1245651   7.4513321  74.9330292  20.7771435   6.8110499
  75.0053635  20.5139809   8.2998409  27.8936138  40.4004631  83.6824722
  28.1379681  40.1616974  84.5766296  27.6574097  41.3264046  83.7378769
  52.9204903  63.3532524  16.9008026  52.3134995  63.4031067  17.6392517
  52.5161514  63.8930206  16.2215424  66.3840561  44.8593178   8.2862883
  66.3344803  45.5695648   7.6465063  65.5176239  44.8422127   8.6927814
  17.8792591  62.4481735  13.6941996  17.3601074  62.8781242  14.3737993
  18.1793880  63.1635742  13.1335239  82.8692703   1.7819619   4.2491021
  83.3883743   1.2295040   3.6646750  82.9985428   2.6701865   3.9165697
  45.2627220  70.0979156   6.4642601  45.5515366  69.2053909   6.6545715
  45.8821487  70.6555862   6.9349480  78.1787567  11.4849281   2.6008101
  78.6652374  12.2276716   2.9584391  78.8525467  10.8435755   2.3751931
  42.0802803   7.5009961  80.7524872  41.5337486   8.2660494  80.5729675
  42.1586380   7.0589347  79.9071045  85.3571777   0.0786474  44.0855789
  86.0345306   0.5360585  44.5837708  85.8424606  -0.4867952  43.4847412
  31.7479725   2.5214565  68.9390259  32.5789108   2.5909066  69.4090729
  31.9957066   2.2613139  68.0517883  74.9915390  53.5227394   5.6871052
  74.6958389  52.8497429   6.3001857  75.9175949  53.3268204   5.5447435
  69.3375244  17.3496609  53.3262520  68.9332962  18.2022686  53.1653481
  69.5873108  17.3735218  54.2499771  27.6107159  36.3775139  56.3251915
  27.5463848  35.6490288  56.9427719  28.4595509  36.7774963  56.5141983
  48.5538216  67.2680969  58.5976715  47.9092674  67.4701767  59.2758598
  48.0406151  66.8860321  57.8857155  85.4781418  66.3051376  15.3827410
  86.0933228  66.8059158  14.8470058  85.3942184  65.4660034  14.9299307
  69.0771255  38.0859375  24.9411545  68.7243347  37.3941307  25.5007744
  70.0199661  38.0694618  25.1054974  72.9477539  23.9779301  37.0841942
  72.7745590  23.6524067  37.9675255  73.8588791  23.7382622  36.9149704
  81.7974472   8.8667068  27.0142612  82.4728546   9.0864592  27.6559467
  82.1822510   9.1042233  26.1706123  86.5197372  10.1338034  78.3380356
  86.3926697  10.0023317  79.2776108  86.8346176   9.2883110  78.0183029
  71.0288315   5.0169749  49.6236534  71.0428162   4.1248403  49.2770538
  71.9377441   5.1940260  49.8660622   3.1736815  29.2955666   8.6143951
   2.5450847  28.6976566   8.2099180   2.8283741  29.4468384   9.4942312
  26.0482273  64.2606583  17.5789433  25.2512417  63.7372093  17.6628990
  26.1967201  64.6132736  18.4563484  54.4396553  34.6607971  32.2035103
  53.5071869  34.8308182  32.3370399  54.7927475  35.4939690  31.8914490
  71.4728165  14.2103872  18.3727455  70.6614990  14.4752674  17.9393520
  71.6623230  13.3424034  18.0164833  66.1109238  67.6467819  58.8215523
  65.6381683  68.3032761  58.3099365  66.5799255  68.1525192  59.4852486
  48.3092995  68.3876953  72.3210068  48.4297943  68.1167374  71.4109039
  47.3882561  68.6426315  72.3750687   5.1830726  38.0294762  47.1788864
   5.6173930  37.6361389  46.4219971   4.9789634  37.2886581  47.7496452
  15.4770651  30.0941620   9.8992853  15.0477619  29.2466545   9.7824030
  14.8306541  30.6284790  10.3606853  44.0567436   1.4476537  27.3874378
  44.6191406   1.7834551  26.6894588  44.0450287   2.1456935  28.0422935
  33.6787834  69.5103836  49.6535568  33.9931030  70.4092941  49.5565948
  34.3883705  68.9697800  49.3064728  11.2441053  45.9416695  57.0128059
  10.3490458  45.7048378  57.2557297  11.2742977  45.8219795  56.0636024
  12.4938602  58.8135071  77.6465378  12.3766432  59.7288857  77.9006424
  12.4411030  58.3278008  78.4696655  62.3346863  35.3327751  81.0230331
  62.0048180  36.2293701  81.0825119  61.6422501  34.8524246  80.5691376
   8.8235636   4.0808663  23.6976604   9.5973005   3.7243156  24.1340504
   9.0541515   4.0872450  22.7686710  58.0492249  15.8356915  55.1951828
  57.3122864  15.5577679  55.7391586  57.6527367  16.3792076  54.5142860
  74.8789215  24.5958996   2.2587953  74.5621719  24.7465477   3.1494172
  74.9670639  25.4724464   1.8844600   3.2561443  13.1112642  16.1454620
   3.1261950  12.1797428  16.3232651   2.3746905  13.4839706  16.1644650
  84.4537277  39.2034492  10.0525265  84.9561005  39.5550575   9.3175278
  85.0737762  38.6444778  10.5208483  80.2687912  65.7176437  30.0606174
  80.2087555  66.0883865  29.1801758  79.9659042  66.4191971  30.6370792
  58.7533302  48.2485542  31.9668083  58.7695580  49.1065865  32.3907814
  57.8625183  47.9282150  32.1084557   6.9894199  33.9653320  44.9913902
   7.1627712  33.5104904  45.8155899   6.5911684  33.3002052  44.4299355
  83.7364502   2.3342185  39.2077599  83.5600815   2.2115152  40.1405334
  83.1289978   1.7387896  38.7687874  43.2643890  22.5740795  35.6707726
  43.3236809  21.7718372  36.1895447  43.5741501  22.3205032  34.8013039
  10.1150560  66.9388962  44.1225281   9.2861538  67.4175568  44.1289024
  10.5334940  67.1954956  43.3007584  72.5055389  12.5397739  71.9278793
  71.9544907  12.0149984  71.3471985  73.2514420  12.7944231  71.3847275
  48.6923599  21.8994827  27.8932056  49.3753624  21.6723328  28.5241909
  49.0029869  22.7073650  27.4844627  34.9811249  47.0701103  88.2804794
  34.7712822  46.1463737  88.4179916  35.8533134  47.0614738  87.8862152
  74.1148605  29.4478073  78.7767792  73.4888840  29.5769615  79.4893112
  74.5001450  30.3127785  78.6367188  31.1469879  24.9392605  75.8928375
  30.2077198  24.7570782  75.9214630  31.5216923  24.1924496  75.4258270
   7.3974881  49.6004906  32.7836838   7.0198021  50.3747673  32.3664551
   6.8983836  49.4975586  33.5939522  25.0537548   0.1673963  84.2060547
  25.1313019   0.7497289  84.9617767  25.9565067  -0.0665514  83.9903259
  46.9938011   6.6668701   5.2123871  46.6957130   6.4278388   4.3347545
  47.1331558   7.6128607   5.1686325  86.7516098   5.0777402  19.9404659
  85.8689957   5.3251257  20.2161922  87.3272705   5.6810708  20.4103985
  75.7412338  61.6264229  14.5643797  74.9254456  61.5093651  15.0512247
  75.4867325  61.5384102  13.6458416  83.6752853   1.9881043  41.9124908
  83.4164963   2.5487847  42.6438599  83.9426651   1.1661547  42.3237572
  59.8339729  31.9488888  46.6751251  59.8101311  32.4649315  47.4809532
  59.4462662  32.5209503  46.0128098  60.4351311  40.3210449  73.4516296
  60.1024895  39.5848579  72.9381943  59.9070244  41.0678596  73.1694794
  51.3182831  22.2880096  74.9636536  50.6368141  22.3000984  74.2915802
  51.9855423  22.8926907  74.6390686  67.7115555  22.9130459  52.4734077
  66.9771805  23.4182091  52.1244926  68.3048477  23.5714455  52.8349953
  53.7207527  21.4001865  19.3192596  54.1985855  20.5869331  19.1564007
  54.3947754  22.0797901  19.3109112  32.3967628   5.0987864  86.9989548
  32.3813629   6.0556221  86.9775162  32.6303177   4.8429489  86.1066360
  17.5136757  56.0959854  57.0283356  17.1230755  56.9563293  57.1815376
  18.3570595  56.1320534  57.4795952  78.9276199  57.6928101  11.5824986
  78.8733673  57.1453705  12.3658237  79.7568588  58.1618843  11.6750755
  85.5075912  10.5675306  42.3508224  85.5066528  11.4841309  42.6266403
  86.1497879  10.1461849  42.9220428  23.9224911  23.5492821  87.4992065
  23.0493259  23.4235458  87.1277161  24.3576279  22.7051811  87.3792801
  12.2206936  52.9550438  40.5256805  12.5809288  52.0921173  40.7301865
  12.9214525  53.4003868  40.0494041   7.6168985  44.9723740  29.9262352
   8.1476374  45.3962250  30.6006985   7.3454452  45.6873589  29.3506126
  60.9823532  39.9291954  43.5050392  60.1467361  40.3931427  43.4527893
  61.2803955  39.8696251  42.5973740  49.7564201  11.4542599   7.9848223
  50.0345078  11.4157200   8.8999252  48.8038597  11.5382471   8.0272989
  21.1970119  43.8187675  71.5514832  20.5928783  43.9182892  72.2872467
  20.9879913  44.5493622  70.9694366  68.9412460  68.9698181  56.8142014
  69.2713928  68.8695145  57.7070465  69.6941376  69.2855301  56.3144951
   7.1821790  55.2325134  81.2737427   7.9798307  55.7566338  81.2010651
   6.8412552  55.4347534  82.1450043  47.5793419   5.4022298  57.0763397
  47.7808876   6.2884631  57.3766785  46.6245689   5.3471022  57.1163864
  71.4604340  48.5855637  28.4112206  71.4580994  47.6512718  28.2030773
  70.5434647  48.8498459  28.3366413  65.3891525  61.9695702  60.7898445
  65.0962143  61.3622856  60.1104164  65.3063660  61.4748955  61.6051216
  66.2199707   3.8851969  29.7304020  66.1991196   4.5575337  30.4114017
  65.3479691   3.9158168  29.3368149  79.2339630  54.0689163   5.3399911
  78.5389633  53.4642982   5.0799241  79.6846085  54.2816162   4.5227332
  65.9572678  36.6417427  51.3071976  65.0741119  36.2726326  51.3122940
  66.5060577  35.9448318  50.9475060  32.7485695  26.0699005   7.6010628
  32.7888489  25.3788776   8.2621946  33.0762024  26.8496227   8.0493088
  67.8102493  15.8441792  88.1450424  67.7755127  14.9227858  88.4020615
  66.9156723  16.0513363  87.8747711  34.9755478  71.3304214  80.3430786
  35.9123421  71.4901123  80.4577484  34.9226456  70.4251251  80.0366898
  25.8757687  20.5947037  12.1243525  25.3239670  21.0349331  11.4778652
  26.6945667  21.0904427  12.1176777   8.7528687  38.3541336  55.5456390
   8.7591133  38.9942856  54.8340225   8.3715391  37.5671272  55.1564865
  68.5426865   3.7512443  40.8449402  69.4542007   3.4820213  40.7314034
  68.4224014   3.7955143  41.7935181  47.3934631  40.8736763  16.8434792
  46.9227829  41.6994362  16.7303104  47.5860023  40.8341713  17.7802811
   3.7150397  62.7583580  77.0019836   3.3137348  63.2483292  76.2842712
   4.0513954  61.9625015  76.5900269   7.8943172   8.2910538  13.9341536
   7.4870777   9.1466198  13.7985287   7.1579928   7.6829171  13.9991837
  79.5807648   7.8104420  80.2159271  78.8448257   7.3856287  79.7752914
  79.3722229   8.7441158  80.1843796  60.9380341  29.4953003  27.5271187
  60.9448624  28.6226902  27.1337528  61.7245064  29.5184460  28.0722427
  84.5831833   5.6178570  28.2781372  85.1308594   5.8783240  29.0187054
  85.0670776   4.9047632  27.8615131  55.6251030  21.6919785   2.2791545
  56.2908249  21.1327782   1.8787260  55.7144814  22.5314350   1.8279835
  85.3718948  50.7791939  82.7987595  84.6964569  50.4258652  82.2198257
  85.8666687  51.3854599  82.2475128  47.9782867  59.7539558  67.3477859
  48.3426247  60.6378517  67.3948441  48.4736404  59.3276291  66.6484222
  32.6504097  57.8256569  65.9863052  32.8561440  58.2234116  65.1403122
  33.3582115  57.1985474  66.1345825  54.5098953  20.1822624  85.3928909
  54.8218536  19.9303703  86.2620621  55.2095108  19.9099216  84.7990875
  85.1466064  11.9683065  -0.2199590  85.0656738  12.5402718   0.5432824
  85.1679459  11.0836277   0.1448955   0.9998924  12.5280581  43.4363708
   0.1063697  12.7896824  43.6586380   0.9088052  12.0316477  42.6230392
  57.2152290   2.1572170  17.8841324  57.9324341   2.0334423  17.2624187
  56.8438683   3.0091374  17.6548843   4.4586968  51.4260635  66.4195480
   5.2758999  51.9138374  66.3171463   4.5495305  50.9807243  67.2619553
  84.1256332  60.5321884  82.9814377  83.2212448  60.2205620  82.9467697
  84.0853348  61.3253975  83.5156860  62.6876144  67.9233322  58.6454582
  61.8555298  68.3639526  58.4730721  62.6581726  67.7125244  59.5786896
  44.0746307  20.1353359   2.2804258  43.5134315  19.8461342   1.5609485
  44.5359306  19.3437023   2.5574646  70.7962265  43.0238762   3.4790547
  70.5148010  42.3539238   4.1021075  71.5836105  43.4006386   3.8718712
  82.0869751   9.5998993  85.6281281  81.2991409  10.1435280  85.6319580
  82.8103561  10.2266083  85.6143875  69.9323654  50.3543510  15.1093693
  69.7088165  50.0604553  15.9924793  70.1248016  49.5483513  14.6302443
  70.9361343  36.8131866  12.1835089  70.4751740  37.6035881  11.9024134
  71.4109039  37.0799637  12.9706879   1.2108501  20.4774628   3.8849721
   0.9274967  19.6614246   3.4726286   2.0699813  20.6538353   3.5015433
  72.2925186  24.7236595  31.0421486  72.9807129  24.6205254  31.6994019
  71.6891708  24.0001202  31.2115479  56.0797729  42.6318550  44.7126732
  56.3737946  43.2296600  44.0253487  55.6455269  41.9205551  44.2418098
  71.1650467  64.1384354  53.2986183  72.0475082  64.5032043  53.3652611
  70.6328964  64.6931076  53.8690338  52.7468185  50.8042984   7.5487957
  53.2937164  51.4990921   7.1821933  51.9631805  50.8011284   6.9991279
   4.8587856  15.9730616  46.3444328   5.6923952  15.7955379  46.7801094
   4.8985143  15.4640265  45.5347824  56.0538063  14.6646929   8.9059076
  55.6336174  13.8127136   9.0234070  55.3307343  15.2656155   8.7262135
  29.1159744  11.0674725  87.8485031  28.2256565  11.2805853  87.5689468
  29.0531788  10.1747112  88.1880112  79.6858521  54.6752510  59.4621391
  79.9493790  55.3329468  60.1057434  79.2429276  54.0005531  59.9767532
  49.6391716  21.0599213  72.8283615  49.6598854  22.0163517  72.7960358
  50.1354218  20.7834301  72.0579605  10.8553801   0.8375853  83.2248611
  11.3893404   0.6940739  84.0062256  10.2004795   1.4804268  83.4970627
  20.1810627  62.4961777  79.9589920  20.7802315  62.7237282  79.2480392
  20.7385674  62.0854836  80.6198654  62.1419601  41.9170189  56.0340500
  61.3004570  41.9744492  55.5814934  62.5955162  41.1913490  55.6051903
  35.5366440  26.2262878  85.8793640  36.2271347  26.7088280  86.3339081
  35.0200768  26.9028053  85.4415131  42.3574905  44.2009773  40.0761147
  43.2440796  44.4324608  39.7993355  42.3002205  44.5106964  40.9800110
  24.4382706  48.7676697  40.9293594  23.9287701  49.5774498  40.9592590
  25.2941723  49.0354271  40.5947418  70.8847809  33.1792984  41.6732712
  71.4338303  33.9575882  41.5781898  70.2583923  33.4104156  42.3591614
  68.2018585  64.8419647  52.3263016  68.8309174  64.1224594  52.2731209
  68.3832779  65.3763657  51.5531693  67.9229889  61.3021202  39.4616241
  67.5138245  60.5838661  39.9442520  67.4356155  61.3461647  38.6389694
  56.9344749  51.5725327   7.6198454  56.4714775  51.5669212   6.7820911
  57.3672028  52.4258499   7.6486349  20.9288197  44.1673965   9.6706638
  20.8144283  44.9797554  10.1638355  21.8105125  43.8716927   9.8973923
  45.6676865  62.7737770  61.5738258  45.4442177  61.8436852  61.6087990
  46.0597725  62.8935394  60.7088661  80.2016907  68.4436035  75.9792862
  79.5641861  68.4737930  76.6926651  79.6731720  68.4999542  75.1832199
  20.8510952  44.5499001   6.6122336  21.4281254  45.1115150   6.0946870
  21.3498363  43.7421341   6.7347279  12.0978489   1.4784381  70.3540421
  12.8716640   1.2438304  69.8417892  12.2387056   2.3940306  70.5950470
  12.9316816  17.8053150  71.9832611  12.1847982  17.2674313  72.2460938
  13.5542021  17.1832085  71.6068497  82.3380737  55.5970497  53.6718483
  81.7594528  56.1773148  53.1771507  81.7648621  54.8973465  53.9850159
  46.6295319  34.7644958  74.2587891  46.6802444  35.4173698  74.9569397
  46.3074493  33.9743996  74.6926575   8.2392435  18.5154095   2.3898563
   7.6781855  17.9303837   2.8989627   9.1161423  18.1414871   2.4762344
  15.7130232  68.3776245  88.6755142  15.3097792  67.5100784  88.7070389
  15.5476971  68.6863632  87.7846832  45.5842628  46.0121536  80.9785385
  44.6656685  45.7750854  81.1058960  45.7925949  46.5732574  81.7255249
  81.2124176  63.3296432  24.0889511  80.4763336  62.7585297  24.3085785
  81.9863281  62.7786674  24.2061195  76.1220474  17.6304302  22.6103592
  75.4056396  17.9124680  22.0416355  75.9946289  18.1256199  23.4195461
  47.4082336  45.5732040  45.9663734  48.0727768  44.8920441  46.0695076
  46.6067772  45.0955009  45.7525902  46.9316750   7.1743269  81.8977737
  47.7953377   6.7746735  81.7948303  46.3992920   6.7746558  81.2099762
  45.0633430  31.9631729  67.1713715  44.5404663  31.6632710  67.9149399
  45.1699677  31.1850643  66.6241913  84.6696472  62.8517418  59.2905350
  85.3610382  62.7748833  59.9480324  83.8593292  62.8911057  59.7985420
  12.4470100  32.5096092  74.0259476  12.7177973  33.0019875  74.8008423
  12.7372637  31.6138229  74.1978531  77.1478119  60.5690651  39.7234001
  77.7488403  61.2605667  39.4462318  76.5538712  60.4562912  38.9812775
  54.7613335  15.1393194  61.4837456  54.8647079  15.8581514  60.8601875
  54.4481087  15.5600157  62.2844543   3.8460207  14.0083313  77.8158035
   3.4794822  13.1856270  78.1399002   4.2878604  14.3891268  78.5747528
  36.8382225  26.7996082   7.5436625  36.4390869  26.1784992   6.9344430
  37.3275871  27.4028606   6.9843445  38.1564331   5.2392821   5.2220259
  38.3365669   4.3363152   5.4836240  37.4273643   5.1691966   4.6057606
  70.7776489  10.0276966  79.2642517  70.2849426   9.7982903  78.4763107
  71.3041763   9.2507248  79.4521866  10.5057936  49.5565720  14.5337410
  10.6741886  49.1497841  13.6838017  10.8246832  50.4539108  14.4371843
  11.9376059   2.4341271  86.4892426  12.1012821   1.4939128  86.4154892
  12.4972610   2.7187183  87.2117538  53.2778015  47.4178314  75.7940216
  54.0871696  47.6810608  76.2320480  53.3650665  47.7594147  74.9041138
  74.4621582  22.2777996  46.9090576  74.4337158  21.3992882  47.2880592
  74.6076584  22.1308556  45.9744606  38.1998520  62.2121239  38.8517189
  38.9453773  62.7939339  38.9997749  37.4774132  62.7999802  38.6309586
  14.7374134  57.1963120  34.7420387  14.2973785  56.5699959  34.1672974
  14.2439375  57.1572647  35.5613022  61.5371895   7.3221841  87.2835312
  61.4170036   6.4657903  87.6938705  61.8243446   7.8916092  87.9973450
  79.4086304  14.9299040  79.9854050  78.6244812  14.5655880  79.5747833
  80.0042877  15.0996685  79.2556076  74.0697021  10.9772472  73.6026306
  74.8417892  11.5066614  73.8022156  73.4226837  11.6073503  73.2854919
  14.1457911   4.0735946  49.4878883  14.4687424   4.1487465  50.3858223
  14.1049471   3.1310434  49.3261452  17.9088707  52.2156105   9.0617609
  18.6746044  51.7091904   8.7907953  17.1897640  51.5838737   9.0563707
  28.2166252   9.2381516  37.7412987  28.9045696   8.9884987  38.3582573
  27.6273632   9.7936983  38.2515602  54.3385582  29.9971504  63.5084343
  54.7067184  29.7153187  64.3458481  54.9492264  30.6618671  63.1898956
  26.9989338  62.6164627  76.5421753  27.2936287  61.8958778  77.0990829
  26.0816631  62.4157829  76.3562317  54.0121231  24.3716888  54.8703194
  53.1753311  24.0610676  55.2160416  54.0747261  25.2777004  55.1727333
  80.3779907  30.2675018  63.6076279  81.2723389  30.5744610  63.7564240
  79.8245316  30.9927483  63.8973389  12.1622162  16.6161346  87.0752563
  11.7731524  17.2393303  87.6888428  13.0114679  16.3995514  87.4600830
   6.8384519  17.2761974  79.8261871   6.1332355  16.6292458  79.8073883
   7.6049323  16.8045349  79.5001907   9.8524790  16.9237385   4.0135798
   9.5033636  16.6237926   4.8528552  10.2325525  17.7811508   4.2049417
  56.0376663  20.3332291  68.8726578  56.8041611  20.8147812  68.5615005
  55.6669044  19.9375896  68.0838394  58.3386383   7.6430097  19.7753792
  59.0928688   7.0689635  19.9089317  58.6166191   8.2475328  19.0872574
  83.0176468   9.9306297  24.4674778  83.7469711  10.4368992  24.1096859
  82.3696823   9.9134712  23.7631512  18.1066189  14.0824070  77.1087494
  17.2891502  14.0275335  76.6138153  18.4587135  14.9463615  76.8946381
  65.1809235  20.6972179  65.8082352  64.3393097  21.1426334  65.9058456
  65.8214035  21.3156700  66.1597137  27.3319626   7.2700863  53.2826881
  26.5648537   7.2390814  53.8543663  28.0335503   7.6047907  53.8412437
  66.9993744  18.4285889  81.8157501  66.1934128  18.9163532  81.6462173
  67.3548203  18.2437515  80.9464264  73.9284363  21.0658398  20.0694389
  74.1815109  21.1529064  20.9884624  74.3844147  20.2797241  19.7688847
  45.2694550  19.1810513  84.3545837  44.3778992  18.8582172  84.2236710
  45.8220177  18.5549450  83.8867111  85.6932602  30.6366062  16.1386375
  84.8788223  30.1377239  16.0750103  86.3084030  30.1633759  15.5783834
  66.8147354   4.3767023  48.3590813  66.6737595   3.7098591  49.0311508
  67.2085037   5.1114287  48.8295631  66.8163528  17.3222561  17.3994179
  65.9065628  17.0284367  17.3527317  67.0270844  17.3017063  18.3329067
  76.6937485  32.1205521  59.5029106  76.6676941  32.5821381  60.3410568
  75.9022827  31.5822086  59.5012550  73.2812653  49.0405197  51.2394333
  73.0712738  48.1188126  51.0891418  72.8619080  49.5031013  50.5139046
  27.1742477  13.2648792  55.9318581  26.8150520  12.6564999  55.2860374
  26.9529419  14.1322489  55.5928535  71.3917007   4.0948048  18.1308155
  70.5261383   4.2848449  17.7690010  71.9189377   3.8450100  17.3719597
  77.6040573  39.6033974  67.3914871  77.0931244  40.3278122  67.0303802
  77.1049271  39.3159752  68.1559982  44.8131332  38.4489059  31.0326138
  44.9059753  37.6046562  31.4740429  43.9116745  38.7155762  31.2128716
  73.9313507  17.4920216  13.3215723  74.7121811  17.8590069  13.7361336
  73.9986801  17.7594872  12.4049692  31.1596775  20.2146816  13.1381207
  31.8239460  19.6173058  12.7944355  31.1225491  20.0185795  14.0742817
  70.1939621  55.7964058  57.5476723  70.2123337  54.9569817  58.0073013
  69.4644852  55.7170143  56.9330292  70.2456360  29.7432919  32.9355392
  69.9756775  30.4596462  32.3609161  71.1954269  29.8384132  33.0068855
  64.7609177  57.5405464  36.2090225  64.0855331  58.1346512  36.5363235
  64.7272720  57.6405258  35.2576523  16.5804081   3.9625671  40.4684296
  16.8945465   3.3530331  39.8005829  17.1584969   4.7215385  40.3909302
  30.5172176   3.1966121  33.8814926  30.0425797   3.9813900  33.6074944
  30.5387535   2.6445849  33.0998039  62.9786224  36.0758972  18.6860065
  62.1161003  35.9113998  18.3049126  62.9009056  36.9399300  19.0905285
  18.2410145  44.2967300  63.7521973  17.3990593  43.8556747  63.6390038
  18.7338295  44.0788116  62.9610748  46.0857735  44.8762131  28.9817429
  45.1433449  44.7091331  28.9695740  46.2048683  45.6196556  28.3906918
  37.5857658   3.8471155  66.1343460  36.8883514   3.3377268  66.5470963
  38.3685074   3.6388142  66.6444092  15.2041903  10.1831827   5.9735370
  15.0806503   9.7198534   6.8019667  14.4459553   9.9347429   5.4447746
  14.4857674  42.3020020   5.3596492  14.0783281  41.6736221   5.9557743
  15.1270294  42.7636185   5.8999476  79.3330460  25.0266151  20.8986797
  78.4950867  24.5670242  20.9518909  79.7604828  24.8429699  21.7352238
  73.0985336  44.6227913  11.2664862  72.7137299  44.4515419  12.1260386
  72.3473892  44.6915245  10.6771822  24.6090775  38.6065903   0.8993307
  23.8374195  38.8879738   1.3908596  24.2551842  38.1090431   0.1621498
  15.9284410  58.2932205  39.0877113  16.8434334  58.2998466  39.3687401
  15.5894880  57.4525604  39.3953323  65.8134003  54.9485512  71.6387100
  65.3923569  54.1241417  71.3951797  65.6978531  55.0054779  72.5871964
  74.8273392  64.1836853  55.2882690  74.8204651  64.9102554  55.9113922
  75.6292725  64.3105469  54.7812767  85.5631790   2.7111707  36.7434082
  84.8011703   2.6386197  37.3181343  85.1940460   2.8780353  35.8761520
   8.4613485  66.2923126  52.1085587   9.1576366  65.9924698  52.6929474
   8.0080786  65.4913788  51.8453560  44.4649391  41.9317551  79.3392715
  45.1205635  41.5415230  78.7612534  44.1746178  42.7175217  78.8761139
  54.4321861  24.8013477  42.8073654  53.6561432  25.1849117  43.2158623
  54.4261856  25.1435318  41.9134407  54.7554436  21.3198910  60.3533554
  55.3106041  20.5522938  60.4905624  53.9906158  20.9821072  59.8873367
  42.2224312  67.2081528  64.3640137  41.8829117  67.9689789  64.8352966
  43.0883942  67.0582962  64.7433243  26.2565231  39.9800682  55.2042046
  25.7571297  40.4735603  55.8548203  26.9451275  39.5471039  55.7087860
  34.4527130  29.3843517  65.3620682  34.5884514  29.6837482  66.2610550
  35.2913284  29.5413666  64.9281311  50.5203629  54.7512054  72.4179611
  50.3662071  53.8089943  72.3493729  50.9640503  54.9813652  71.6016312
  26.3895435  33.3435555  81.7299271  25.8763161  33.8068008  82.3919144
  25.7610130  32.7603378  81.3044357  23.2250710   4.8829517   7.2440853
  23.8078423   4.3538165   7.7887177  22.3478813   4.5565119   7.4446054
  17.2846375  45.1201553  60.6595612  16.9584236  45.7578468  60.0246086
  17.9924736  44.6668015  60.2016640  16.5650101  61.7000351  19.4861393
  17.0762253  62.3104973  18.9548912  15.6673479  61.8005562  19.1693897
  69.2842484  50.6457253  25.0440750  68.8267746  49.8158607  25.1792564
  69.0776520  51.1627121  25.8227119  52.3690987  53.2275047  59.2055435
  52.5629272  52.6251945  58.4872932  53.0521622  53.0551758  59.8535843
  62.2421761  39.0105591  56.7730904  62.5333023  39.1059532  55.8662376
  62.6911964  39.7126579  57.2439041   5.1933155  42.9785385   2.3999164
   4.8767877  42.4034004   1.7033123   6.1467929  42.9472809   2.3215871
  31.9328537  53.9164314   9.0381184  31.1082230  54.3857384   9.1644697
  31.7593956  53.3189926   8.3106489  61.7529373  46.4325905  71.4921265
  61.7456894  46.9272232  70.6726608  62.6108894  46.0084610  71.5082932
  48.7146835  61.8139648  55.7826538  49.2230415  61.7725296  54.9726639
  47.8127060  61.6488419  55.5080566  77.7242050   4.0416069  67.8776474
  77.2330475   4.6694641  68.4075470  77.5439301   3.1933849  68.2829285
   5.9490128  27.9064713  25.2560711   6.0357461  28.0565205  26.1974487
   5.0270214  27.6803131  25.1335297  30.9161320   5.2457223  68.1453857
  30.9284744   4.4549284  68.6845703  31.5680161   5.0812483  67.4640427
  29.6938057  27.7303486  79.5934601  29.3889580  27.0171566  80.1544037
  29.0323792  28.4147110  79.6954041  52.3791466  66.1350098  84.9209671
  51.7094460  65.8381348  85.5370789  52.3789940  65.4729309  84.2296677
  74.8769150  24.4742756  70.0957642  75.6281281  24.2419033  69.5499420
  74.7195053  25.3990612  69.9054337  14.8284912  59.7066536  43.8860855
  13.9174805  59.9119568  44.0961876  14.9852581  58.8592491  44.3026962
  13.4688148  23.6618385  67.3182373  13.2621145  22.7277184  67.2877884
  14.3370342  23.7020798  67.7192459  57.6578140   9.8535261  76.4885941
  57.0785675  10.6069946  76.6025696  57.0832939   9.1549730  76.1752548
  46.7845230  29.9520798  65.9029999  47.4739342  29.9792023  66.5664825
  46.3971481  29.0816746  65.9955521  60.5733795  20.9761562  79.8517761
  60.6264687  21.6717339  79.1963425  60.6494141  20.1659088  79.3478394
   2.1545670  14.5439034  45.2318878   1.7673614  13.9395781  44.5985680
   2.1783118  14.0494747  46.0511627  84.0121841  35.6501350  34.7699814
  83.6509857  34.9944420  34.1734657  83.4568634  36.4196510  34.6447182
  46.5915527  70.2220840  56.7578049  47.4272423  69.8697510  56.4516792
  46.6496773  70.1812668  57.7123680  55.9228058  44.9802895  39.2406311
  55.9014206  45.4166718  40.0923042  56.8466301  44.7720070  39.1013565
  52.3854179   9.4303951   8.6539049  53.3007965   9.5631313   8.4075451
  52.4048538   9.3368626   9.6063261  39.4327660  26.4737473  74.8412018
  40.1285820  27.0903034  74.6133194  38.7098045  27.0270710  75.1368256
  20.5153446  27.4704990  73.0882721  20.1546459  26.6442585  73.4099121
  21.4632664  27.3378868  73.0978622  56.7193565   9.0890007  63.5028534
  57.4682961   8.9369688  64.0792313  57.1032143   9.1826124  62.6310043
  35.2621155   5.4167924  84.6148682  34.3817139   5.7528172  84.4469070
  35.8148117   5.8613119  83.9720917  83.8332748  48.6403847  41.3971519
  82.9833069  48.9712906  41.6874886  83.7739792  47.6922646  41.5145378
   6.2758698  35.9345932  36.5737076   6.9033513  35.9569778  35.8512154
   6.2945194  36.8209229  36.9346809  14.3820839  29.8189507   5.2316961
  13.7686253  30.1989746   5.8605695  15.2305431  30.1935062   5.4684572
  75.3168793  36.5990257  25.6556244  74.9329758  35.8241081  26.0659313
  76.1840210  36.6759987  26.0535927  73.6971588  45.4636078  54.9377747
  73.8796768  44.5489616  54.7225037  73.9004135  45.5353241  55.8703918
  65.3911362  32.2626152  42.4028511  66.2972565  32.2524261  42.7111931
  64.9201126  32.7744102  43.0604477  20.1505337  56.0334854  11.8396616
  20.2637367  56.9405174  11.5555668  19.9016953  55.5626564  11.0442791
  44.7067451   3.2417965   2.8263955  44.7633476   2.2926488   2.9366081
  43.8168488   3.4622259   3.1015809  66.0261230  13.8403454  20.7747192
  65.6147919  12.9975166  20.9662380  65.3559036  14.4886055  20.9910450
  31.6726456  60.4086380  33.7913361  32.6271095  60.4357529  33.7243042
  31.4626350  61.0422096  34.4774246  28.0116367  63.4319801  16.0343113
  27.4418087  62.7371826  15.7044907  27.5149364  63.8299179  16.7492695
  73.1583710  27.6396961  58.2553215  72.2161942  27.6000481  58.4195290
  73.5541229  27.6269894  59.1267853  14.8927364  19.3754559  80.8629761
  15.3045149  18.5255222  81.0188065  15.5390282  19.8650322  80.3542023
  79.2888184  61.4542465  50.6067619  79.1833038  61.2142982  49.6861496
  79.0644379  60.6583900  51.0889397  31.0167542   4.8288050  53.6910095
  30.9451427   5.5113316  54.3582878  31.8886719   4.4562321  53.8220940
  81.9851685  14.5626650  36.2902679  82.2557220  14.5230789  37.2075844
  82.5144577  15.2661963  35.9146004  84.7979889   0.3943144  56.6566811
  85.0804367   1.1690997  57.1426468  85.6127853  -0.0337902  56.3938866
  58.5106812  23.7342854  86.6161423  58.0904770  24.3789539  86.0468750
  58.6931915  22.9905396  86.0418930   5.5624566  39.8309708  74.0266495
   5.0821729  40.5329933  74.4656525   5.9677372  40.2547722  73.2700958
  56.9194641  31.3409386  44.0407219  56.6624489  31.8964977  43.3048363
  56.2575073  31.5100479  44.7111282  49.5530472  58.5889664  15.5735950
  49.9153938  59.4439201  15.3412447  49.2862244  58.2066917  14.7375889
  11.0865440  68.0583191  50.5194054  11.0013142  67.1061401  50.5675888
  10.9019670  68.3606186  51.4086647  57.3905296  25.7544899   0.6323031
  57.9341660  25.2366962   1.2260910  56.5262985  25.3458939   0.6811388
  62.6999512  20.8025074  75.9141998  62.9822121  20.5436535  75.0369568
  61.8000603  20.4830399  75.9802628  42.1349297   9.3649597  71.5283737
  41.3458252   9.4222698  70.9896164  42.4985390  10.2503157  71.5155182
  52.0784798  10.0703840  62.7790756  52.0934677  10.8275805  63.3644485
  51.1767082  10.0318174  62.4604034  36.7360229  57.7924728  72.7175293
  36.9206161  58.0139160  71.8047791  37.2215424  58.4430542  73.2247314
  52.2500305  11.8219910  28.5302277  51.6174469  12.4030695  28.1078281
  53.0645103  11.9633207  28.0476494  79.1416702  17.5783463  29.7661476
  78.9224625  16.6581230  29.9123325  78.4741821  17.8893375  29.1546173
   5.7199492   8.8600140  23.3764019   5.6772585   9.5438566  24.0448093
   5.2029428   8.1397858  23.7372456  60.9841461  19.2676659  46.2893944
  60.7550163  18.6672802  45.5799789  60.4698296  20.0552521  46.1121330
  79.5005035  26.3322849  40.3797150  79.5418091  27.2112598  40.7564507
  80.0620193  25.8025093  40.9456367  78.3739853  54.2963905  49.7088776
  79.0628357  53.9036636  50.2450523  78.8450928  54.7917252  49.0388527
  64.8009872  67.0446854  25.1018448  65.1181717  67.3187103  24.2413025
  65.5214691  67.2476501  25.6984539  62.8449669  11.1162338  78.7547836
  63.4974556  11.3179102  79.4254608  62.1991234  10.5717802  79.2049866
  33.9955635  67.6847076  40.0644646  33.2277565  67.3211517  40.5055237
  34.3418922  68.3307190  40.6800613  68.8564606   6.0024571  16.4377022
  68.5868835   5.4934139  17.2021847  68.1202621   6.5907536  16.2699318
  57.3641396  16.9568481  78.9946594  57.8984985  17.1218395  79.7714920
  57.3632545  17.7898960  78.5232086  20.8671932  60.3997536  32.6299286
  20.3363209  60.4446144  31.8346939  20.8053226  61.2765236  33.0089798
  81.4576187  68.4321365  27.3371525  80.6339493  68.1988525  27.7653828
  81.5017090  69.3858261  27.4061337  72.3939438  58.2833824  21.0930767
  72.4149551  57.8085213  21.9239178  73.1493454  58.8698883  21.1332531
  62.7947922  28.1988449  62.1995010  62.9576874  28.5084190  61.3085136
  61.8967400  27.8682976  62.1777725  65.8170471  34.5362549  38.8810577
  65.6114807  33.6041527  38.8092003  65.5801544  34.9002190  38.0280342
  75.9971390  68.5938873  19.7038651  75.7572784  67.7157135  19.4080372
  76.8438110  68.4784012  20.1351871  77.9755630   9.6584301  56.1777992
  78.9015121   9.8879557  56.2563744  77.5710907  10.0215921  56.9656715
   2.3756998  48.0232239  28.9434299   2.8696887  48.0105057  28.1236458
   2.1159074  48.9380341  29.0523510  24.4857407  41.1906471  77.1215363
  25.0935154  40.7958984  76.4962234  24.5246525  40.6179504  77.8875198
  81.5978470  54.4682884  88.8236771  82.3704147  54.8152733  88.3776093
  81.2650757  53.7911835  88.2345810  25.3830452  35.4925079  13.8923769
  24.9173603  34.7341537  13.5398579  25.8377018  35.8664818  13.1376152
   1.4163182  20.0898056  54.1066589   1.0616567  20.1880360  53.2230301
   0.6669965  20.2385254  54.6833992  13.8786154  22.2976475  70.9627228
  12.9335556  22.4075108  71.0677185  13.9823093  21.9490490  70.0773087
  60.5245972   5.9843597  26.3313656  60.0539894   6.6749949  26.7980347
  61.2926712   5.8085399  26.8748569   1.0320991   7.0301089  51.4577332
   0.3838829   7.0248518  50.7534447   0.5971802   6.5879908  52.1868477
  23.2553062  68.1585236   3.4127159  23.7896862  67.3863754   3.2270844
  23.4703770  68.7729797   2.7109909  59.9006996   3.3260524  32.9069672
  59.6796989   2.4170098  33.1095314  60.7854309   3.4404752  33.2539368
  47.5170593  64.3416748  33.5129585  47.4531059  63.3988609  33.6654091
  47.7291641  64.4200592  32.5828514  59.0552902  14.5910215  33.5174904
  58.4147835  14.6890211  34.2220306  58.5278244  14.4327545  32.7345734
  42.8536873  26.5981274  12.3532648  43.2005043  27.4778538  12.5016890
  42.4436531  26.6448860  11.4896002  48.4369812  55.7977371  35.4331474
  48.5685844  56.7446251  35.3850555  49.0659027  55.5016251  36.0911789
  85.5448685  58.1214561  29.4380684  86.3126831  58.6820183  29.5496922
  84.8494034  58.5691223  29.9198914  77.0156479  64.0883408  82.8995132
  76.3171463  64.5110626  82.3998795  77.7319717  64.7232285  82.8940887
  70.3637619  35.8503494   8.4321165  70.7666931  35.5584641   7.6143894
  71.0251465  35.6741676   9.1012650  13.1919756  69.0649643  84.2882996
  13.1612577  69.7204132  83.5914001  12.5816498  68.3845062  84.0041885
  16.5052032  55.6988258  88.7297668  15.5484962  55.6689072  88.7366028
  16.7737255  54.7803497  88.7526932  28.3180828  47.3192329  52.3178215
  29.1358757  47.7954712  52.1741447  27.6492767  48.0020294  52.3699570
  26.0622044   4.2468119  14.1851988  26.4055004   3.4375396  13.8064404
  25.1131535   4.1226082  14.1956816  65.1380005  10.9521093   4.8570814
  65.3304749  10.9155636   5.7940173  65.1138687  11.8871679   4.6538200
  36.0928535  46.9426651  82.6046524  35.5978127  47.7431221  82.7791138
  36.2922440  46.9834213  81.6693344  64.6386337  17.7427406  35.4473495
  65.5263901  17.3854828  35.4693985  64.7472763  18.6679993  35.6671791
  33.8698425  36.1493149   8.3529835  34.1422768  35.4751816   7.7304430
  34.3722687  35.9605331   9.1455479  29.2776775  64.2090759  19.2726650
  29.0055676  63.3621559  18.9192314  28.9683495  64.2011566  20.1784706
  15.7757425  50.3244629  19.8924904  15.5043058  50.4287224  18.9805222
  16.6897926  50.0452156  19.8399010  71.3938675  54.6677933  18.5536919
  71.5867081  54.9764366  17.6683750  72.0301056  55.1189880  19.1085358
  84.9926453  68.3545074  39.1487503  84.6070480  67.7812729  39.8112831
  85.5057755  67.7674866  38.5934639  61.6034088   8.5491142   7.8179197
  61.0559349   8.6161880   7.0356135  62.0112419   9.4112339   7.8994823
  69.0787659  66.5505600  50.5717049  68.8815384  66.5736084  49.6353302
  69.9977722  66.8119583  50.6294098  77.9757385  61.6174393  82.1819534
  78.8952103  61.8406525  82.0371094  77.5699310  62.4398689  82.4561157
  39.1160622  66.8362656   2.9136114  39.1574020  67.4895782   2.2152495
  38.8144302  66.0389862   2.4781904  63.3218842  27.4937553  50.1947327
  63.3454323  28.3527584  49.7730827  62.5498047  27.5253258  50.7596512
  79.7780685  34.0875206  48.2875366  78.9274826  34.3847580  48.6106339
  79.9938354  33.3349762  48.8383064  12.7293625  46.9951515  51.8592987
  12.0588808  47.6743011  51.7855034  13.5548458  47.4775352  51.9053192
  56.1539230  12.3919296  13.6395588  56.6717682  12.8212500  12.9585638
  55.6869507  13.1069517  14.0718908  85.5036087  11.1996994  59.9645042
  85.2604446  10.7374001  59.1623917  86.2171936  11.7800531  59.6995125
  18.2501812  51.4180641  36.9784431  18.5762501  50.6070976  36.5882530
  17.3131943  51.4181671  36.7827721  54.0544662  44.3712044  64.1807175
  53.4530945  44.8499641  63.6103058  54.8196716  44.9415054  64.2545700
  28.8283558  33.9410439   3.7588592  28.4529495  33.0870781   3.9734402
  28.3864117  34.2006569   2.9504535  50.1426048  62.0295944  76.7499466
  50.8352814  61.4715385  76.3963776  49.4727516  62.0421104  76.0662994
  69.8366318  54.8932724  79.0749283  69.8347168  54.8125992  80.0287170
  70.1213379  55.7923622  78.9111786  73.0720901  29.3408070   8.8479986
  72.9502335  30.2546349   8.5905085  73.1598663  29.3700809   9.8007154
  16.7844543  70.7499542  54.8057556  16.1524734  70.0757904  54.5560875
  16.3576546  71.5752945  54.5757599  16.7375355  60.9007378  60.5928955
  16.1674156  61.4622231  61.1181831  16.9981651  60.1989899  61.1894302
  59.2361984  28.8863697  70.0441208  59.9722672  28.6694260  69.4719620
  59.6321449  29.0122795  70.9064484  58.8582764  52.4299889  12.8469973
  58.1248207  53.0448647  12.8326702  58.4479408  51.5665436  12.7988338
   1.8004093   1.9680363  38.5850296   0.9871147   1.8970741  39.0847778
   1.9066478   2.9070146  38.4325027  38.9826775  35.1025581   2.2438977
  38.1445847  34.8149300   2.6059768  39.6315804  34.5385704   2.6646957
  48.8773880  68.7054520  31.4650421  48.6901169  69.6380310  31.3580074
  49.5555191  68.5211945  30.8151035   7.6800761  66.1290894  66.5128784
   7.4193082  66.9443512  66.9413376   6.8665032  65.7778320  66.1510010
  56.0723877  60.0272598  17.5303059  56.2205162  59.1752663  17.1199417
  55.1465454  60.2116203  17.3720169  17.5236320  52.8902931   0.4664447
  17.4119625  52.0250893   0.8603777  18.4641228  53.0593491   0.5223678
   4.7423067  19.0362091   8.4323196   5.0869427  18.2256813   8.0574846
   4.6670394  18.8538952   9.3689775  70.9488678  24.9590530  10.1460896
  70.1299133  24.5572128  10.4360228  70.6785049  25.7704830   9.7163019
  74.7204361  11.0431366  87.1242065  74.5034409  11.6491528  86.4157639
  75.6596832  11.1640596  87.2635727  10.8777151  29.8325100   2.2562587
  11.1163721  29.9239769   1.3338120  11.6396599  29.4177608   2.6608009
  78.9079590  56.5300179  37.8696671  78.5615311  57.1992226  38.4599075
  79.1332321  55.7978401  38.4435997  17.2824478   4.5931134  53.4268112
  17.6961136   5.1753960  52.7895813  17.9662914   4.4223042  54.0744324
  67.3457642  37.7393379  74.5999298  68.1621552  37.3905907  74.2420044
  66.8999176  36.9760857  74.9672165  21.6209526  20.0890942   3.6709282
  21.5293655  19.3265667   3.0996165  22.2392960  20.6585255   3.2130733
  71.0222778   5.0994835  78.0824509  71.5590744   5.8080297  77.7274399
  70.2244949   5.5325184  78.3862076   5.4289560  45.7226639  80.9596786
   4.6701179  46.3044739  81.0031815   5.7025104  45.6172752  81.8708801
  76.7428055  64.6752243   3.4076059  77.0583801  64.2090988   4.1817932
  76.9778748  64.1073837   2.6737621  70.6726990  27.4105110  59.3618889
  70.0623779  26.8861332  59.8803101  70.1800613  27.6429577  58.5748024
  66.6877518  61.2499046  76.9571075  66.8819733  61.7232475  77.7660904
  67.5455933  60.9984360  76.6148987  47.7194519  38.5830574  79.2776108
  47.6008568  39.4118080  78.8135605  48.5520287  38.6839142  79.7389984
  57.8946762   2.8753858  50.6924896  57.9368401   3.8112288  50.4958878
  57.3758659   2.5038939  49.9790039  70.6927567   0.2178251  54.0449753
  71.1749649  -0.1775060  54.7712135  70.6633911   1.1508563  54.2566872
   6.8465018  65.2545547  57.3014412   5.9087653  65.3954086  57.4319878
   7.2286043  66.1311417  57.3441887  41.7534027  33.9139824  16.8194733
  41.9926720  34.7631645  17.1907825  40.8190498  33.9915962  16.6266193
  58.1633530   7.1322174  79.7389145  58.5855827   7.6675558  79.0670776
  58.4449081   6.2382073  79.5447388   8.3658285  20.9285698  10.1544075
   7.6628075  21.4966145  10.4695559   8.5866261  21.2773628   9.2907963
  10.2755814  30.8981037  29.6746674   9.6918249  31.1378841  30.3943653
  10.4398928  29.9635792  29.8007450  78.7975998  29.2969570  72.9551773
  79.4977493  28.7131634  72.6632690  78.1270676  29.2251644  72.2758636
  85.5724716  21.0018158  36.2511177  84.7969131  20.6769066  35.7937546
  85.4734268  21.9538498  36.2440147  46.7352867  69.6923981  74.9294128
  47.5718918  69.5611115  74.4832230  46.5250626  70.6138611  74.7779312
  52.0706596  67.3227158  24.3470840  51.1696014  67.2283936  24.0381737
  52.2437592  66.5151367  24.8309097  21.9473743  45.5104675  13.8876066
  22.0769444  46.4364853  13.6828413  21.2048969  45.5003433  14.4916401
  60.2234116  54.4973564  26.2268257  60.7213364  55.3135452  26.2731171
  60.1083832  54.3397903  25.2897186  65.8889771  65.7808456  48.3146286
  65.6753311  65.2239456  49.0632591  66.2687225  65.1822205  47.6714516
  15.0273876  71.3307571  50.8681107  15.8943396  71.4868088  51.2426453
  15.0165396  70.3940582  50.6713829  29.7657471   2.9125469   0.5153303
  30.2066193   2.3377707   1.1410267  29.4657593   3.6538892   1.0413064
  72.8117065  14.9703665  53.3031998  72.8708344  15.2999907  54.1999092
  71.8807678  15.0274019  53.0879440  78.4071426   2.2581978  50.9835014
  78.7035828   3.0103843  51.4959183  79.0815048   2.1438036  50.3138885
  24.3601532   0.2689950  38.4941177  24.8382874  -0.0147495  39.2732925
  24.9174976   0.9416747  38.1028366  38.6649590  31.8243942  64.1920395
  38.7957840  31.8821201  65.1384964  39.5251923  32.0172119  63.8191452
   4.9703736  54.3226967  23.3186722   5.9096422  54.1645050  23.2238941
   4.6647162  54.4911270  22.4273605  15.1120138  62.7169876  61.9816055
  14.6267538  63.2092361  62.6437569  15.3409319  63.3685150  61.3187828
  84.7367630  69.5221558  10.7184668  84.2227936  70.3028183  10.9249487
  84.5391998  69.3414841   9.7994671  25.2171192  51.6436386  57.0370674
  26.1347218  51.7491302  57.2882805  24.9487247  52.5130005  56.7397346
  52.4157906  36.4355621   7.0107532  51.9424362  35.8359795   6.4339800
  53.0595398  36.8572578   6.4415488   5.5458217  69.7202530  22.9266090
   4.9568777  70.1392899  22.2990818   5.4883561  70.2664261  23.7105885
  39.3265381  35.3212013  60.9169769  40.0975990  34.9688950  61.3614731
  38.6056938  35.1635780  61.5267029  13.0193567  69.6009827  25.1803093
  12.2624331  69.7246780  24.6075974  12.8402166  68.7808609  25.6402493
  79.7696533  27.6794224  83.7845306  79.6506119  26.9592743  83.1652985
  80.7187958  27.7847786  83.8497772  54.4298706  65.8957138  15.8359642
  54.6697159  66.3061142  16.6667957  53.5435066  66.2113495  15.6599874
  13.2802401  23.6233234  84.5726471  13.3409948  24.5771370  84.5199280
  12.3480692  23.4362125  84.4618454  49.6371078  61.5757523  69.2202530
  49.9377480  61.3885727  68.3309784  49.8833122  62.4886856  69.3691406
  35.5989685  31.4943390  63.4579849  36.4366112  31.7646751  63.8341560
  35.8308372  31.0936069  62.6202011  34.1161118  49.3258438  24.1586132
  34.5521049  48.9151497  24.9052544  34.5852280  50.1504173  24.0311832
  74.5987473  67.6526794  82.8644104  74.0247498  68.1833801  82.3120346
  74.4521332  66.7542191  82.5685959  85.9282990  33.4671822  55.9929161
  85.9638824  33.4559097  56.9493866  84.9996643  33.5781441  55.7890739
  44.6275406  47.9566231  22.9223633  44.3469429  47.1980209  23.4342422
  44.2596245  47.8072395  22.0514145  23.9327202   1.6661686  52.7723007
  23.5302582   2.5303171  52.8589211  24.7212601   1.7139337  53.3128128
  48.4179688  51.4319992  37.0702515  49.2601280  50.9788971  37.0290070
  48.3908195  51.8074150  37.9503403  73.3524170   8.8842173  43.9340286
  72.6100464   8.3661060  43.6231003  73.1467209   9.0718498  44.8498421
  69.1485748  29.8899727  72.8918915  69.2971725  30.1381073  73.8043518
  68.8291168  30.6902294  72.4750366  13.0453882  42.2040176  62.3854370
  13.2090130  42.9480705  61.8059158  12.8478193  41.4782524  61.7934380
   9.4120283  63.5270653  46.0481148   8.7703791  64.0700684  45.5902214
   9.1059217  62.6300926  45.9140587  37.3093109  56.8612938  64.3576813
  37.9670486  57.2491646  64.9348907  37.8163528  56.3556786  63.7224693
  23.6960125  50.8708115  82.1936417  24.3895321  50.9294052  81.5365067
  23.8951931  51.5710068  82.8151627  36.4321404  54.6192360  25.6904392
  37.2602882  54.3392792  25.3005352  35.8254013  54.6718330  24.9519711
  20.8778687  17.6790657  72.9682999  20.0912704  18.0402679  73.3769913
  20.5764866  16.8826180  72.5311737  72.3102570  31.7915726   7.0191078
  73.2606049  31.7740040   6.9061289  72.1816254  32.0872040   7.9203782
  50.5609360   6.8695765  32.2083549  51.3903580   7.3059382  32.4029884
  49.9088402   7.5695801  32.2399368  46.5252609  55.5979652  48.8250198
  47.0767326  55.9475555  48.1250954  46.9334526  54.7639999  49.0576477
  37.8052979   5.8779597   2.5297244  37.0343857   6.4407330   2.4575098
  37.6475143   5.1737552   1.9008904  74.4609909  32.8425446  73.0706787
  74.9014740  32.0717163  72.7128677  74.9018021  33.5842552  72.6562119
   4.8375206  10.1110506  48.2471046   4.2848468   9.6674500  48.8905373
   4.6330404  11.0398512  48.3555031  45.9282532  15.5441484  27.2292175
  45.5045357  16.4021492  27.2522278  46.0985947  15.3859692  26.3006725
  85.1838226  42.4301529  52.6190681  86.1087265  42.2512169  52.4494362
  84.7142487  41.7824287  52.0935402  15.6910439  24.0897541  71.7843933
  15.2382879  24.4779434  72.5330887  15.0806875  23.4327049  71.4497528
   7.2854805  47.8740921  24.0458355   6.4897151  47.4746895  24.3972130
   7.8378601  48.0227318  24.8133087  26.2810059  55.5880508   6.8310404
  26.4506874  56.4875603   6.5511808  26.0470524  55.1267319   6.0256338
  39.7944069  58.0785828  64.8877792  39.6638527  58.7501717  64.2183380
  40.0329514  58.5682144  65.6749268  54.8413010  61.0761642  58.5874214
  54.1751137  60.8460503  57.9397507  54.4035110  61.6950836  59.1718102
  53.1405678  13.8572226  80.8505249  53.4775391  14.5122013  81.4618225
  53.0963211  13.0506601  81.3640671  40.7493362  41.2308693   0.2362721
  41.6244583  41.0599670   0.5843858  40.8847771  41.3514519  -0.7035938
  66.1990128   1.4722784  28.5864944  65.3509674   1.0287712  28.6050758
  66.0631790   2.2703438  29.0972500  58.6130486  53.6565285  53.7833900
  58.0740471  53.2259789  53.1198082  58.1392746  54.4618797  53.9911728
  48.8417931  50.7866478   0.0258892  48.4898567  51.6333313  -0.2488740
  48.7763863  50.7985611   0.9807774  85.9718246  40.1083832  54.1635666
  86.8338776  40.0327950  53.7544365  85.6037674  40.9135704  53.7996483
  10.7436142  69.6393433  23.3337097  10.0169678  69.2752304  23.8393135
  10.3730755  70.4092178  22.9021721  62.1345100  25.7371120  18.9868660
  62.7398567  25.7380447  18.2453918  61.5877495  26.5108891  18.8506546
  53.6132393  47.0533943  47.1363907  54.4679527  46.7949677  46.7915535
  53.7598648  47.1735191  48.0746346  67.1541214   0.4606543   6.0911269
  68.0602570   0.3560736   5.8009133  67.1601105   1.2650503   6.6099167
   9.8937197  52.8310738  51.1187630  10.3215551  53.4275208  50.5044022
  10.5944796  52.5501328  51.7071838  13.1397104  25.4663486  17.9011040
  12.3002748  25.5296516  17.4455051  13.1212111  26.1809483  18.5376873
  74.5223465  13.2085905  52.1807480  73.9327240  13.7232752  52.7318153
  74.0365906  13.0787573  51.3662415  33.0843124  15.5360661  62.0535622
  33.5673103  14.7739534  62.3731346  33.6287155  15.8862209  61.3484001
  63.9181633  11.9762716  76.4915314  63.3027802  11.6221790  77.1335220
  63.8659668  12.9249678  76.6076431  29.3393326  25.8558578  71.8027267
  28.8623924  26.5221119  72.2975616  30.2620544  26.0698814  71.9406052
  66.0460281  60.8685455   2.5139911  65.9309006  60.1939392   1.8447466
  66.3170166  60.3868408   3.2955022  57.9795570  55.2019043  72.8184280
  57.2054176  55.1453209  72.2583008  57.7985764  55.9375038  73.4035492
  71.9761963  25.3484173  87.3732758  72.1961365  25.1173286  88.2757492
  72.8101883  25.3068619  86.9053497  25.8316345  18.1887169   9.3850355
  25.7889614  17.3059940   9.0173254  26.7093925  18.2489529   9.7620535
  18.7585964   8.4138336   8.0109224  19.6886177   8.2803907   8.1939144
  18.6291656   9.3576498   8.1041422  15.4659767   7.8589563  46.4042473
  16.0321064   8.1359682  45.6838341  16.0247593   7.3038120  46.9481277
  10.7892122  59.1249313  72.9330673  11.0042343  58.4056282  72.3392715
  10.3931551  58.6980934  73.6927948  39.9692421  67.4197388   7.8288698
  40.7219315  67.9830246   7.6488686  39.9460564  67.3486633   8.7831459
  47.8137283  29.2814980  84.1924057  47.7197380  28.5677967  84.8233032
  46.9878159  29.2837944  83.7085724  55.7949867   9.0232306  44.5701637
  55.8326454   9.2196932  43.6340981  56.6533508   9.2836351  44.9042702
  36.9042702  44.8556633  43.4519539  36.4244232  45.3540306  42.7904320
  37.6629601  44.5059357  42.9847145  41.1749344  12.6167431  36.1739502
  41.5789070  11.7710371  36.3684235  40.5183449  12.4205189  35.5056534
  34.1730766  10.0640001  88.4272079  34.6933212  10.8648014  88.3616791
  34.5250587   9.4931536  87.7442169  43.0801926  14.8726540  33.9779778
  43.3484802  15.7592888  33.7368698  42.3723717  14.6626043  33.3687973
  57.0485954  44.3725929  83.3289719  57.8133888  44.4801750  83.8944397
  57.0682335  45.1359177  82.7517471  13.7008524  26.2366657  63.2949142
  14.1105804  27.0439072  62.9839249  12.7615137  26.4185219  63.2665825
  83.0549850  32.7936707   7.2339287  83.1988449  33.4030418   7.9579477
  82.1932373  33.0292397   6.8902373  31.5111332  64.7953949  82.6013718
  31.9009972  63.9233704  82.5396576  30.5677280  64.6396637  82.5570297
  20.2835979  66.9293976  65.4298935  19.6569977  66.3227158  65.0355225
  20.9415169  66.3644028  65.8350525  74.4513702  42.8972931  24.4027233
  74.8393173  42.5469093  23.6008701  74.0773544  42.1332397  24.8415470
  47.9419899  68.0690689  23.6503887  47.9210091  67.7357407  24.5474300
  48.4133835  67.3981476  23.1565380  58.4622917  32.3386154  58.8395424
  58.9611969  32.0236435  59.5932808  59.1165581  32.4536552  58.1503906
  39.4025497  38.2666931  70.5840302  39.6291771  37.6581993  71.2873077
  40.2427406  38.5002098  70.1893387  85.9430618  51.3942451  19.9956856
  86.6799164  51.1072006  20.5350170  85.6473083  52.2064323  20.4069271
  57.0132942   8.8852835   4.2549968  56.3774300   9.2679338   3.6504428
  56.5949974   8.0824690   4.5660415  46.5104942  31.8563366  17.1117649
  46.5975456  32.7844810  16.8945141  46.4458504  31.8388920  18.0666199
  28.1010361  25.6728992  78.1277161  27.5344353  24.9351406  77.9020844
  28.9228764  25.2677822  78.4046478  86.3516464  34.8477821  45.0300217
  86.6920319  34.2109222  44.4017105  86.8604736  34.6943130  45.8261223
  18.8606758   7.0681829   5.7822061  18.5555859   7.6207166   6.5018296
  18.9054947   6.1888766   6.1577635  68.3378983   2.2229314  52.2298965
  67.6649551   2.7144511  51.7589493  69.0374908   2.0996215  51.5883446
  45.1930199  54.9347458  74.6952286  45.5980949  55.6086197  75.2411575
  45.4052696  54.1111526  75.1343994  57.3008194  17.7487125   5.5385766
  56.7985039  16.9383087   5.6231694  56.8802185  18.3558636   6.1474252
   3.2995887  23.1464443   7.4802818   3.8752108  23.0145283   8.2336006
   3.4477139  22.3785858   6.9283004  23.6120167  53.7336388  51.4211235
  23.4004002  53.8236351  50.4919548  24.1589832  52.9494667  51.4673386
   4.3273592  65.3130722  27.5198460   4.5850725  65.0089111  28.3900776
   4.1830668  64.5104675  27.0186081  30.1646004  42.9804306  83.2587814
  29.8452168  43.8808250  83.1995163  29.5389938  42.5418510  83.8354034
  74.8154602  61.8269844  64.2826691  74.8569107  61.0141563  64.7864761
  73.8850555  62.0512695  64.2660217  56.3030090  23.7616100  72.4561920
  56.0465202  24.6704121  72.2995834  57.1055031  23.6480713  71.9469299
  54.7535934  28.0792084  69.2325287  55.5268593  27.5668678  69.4687500
  54.0441437  27.6925697  69.7457809  11.0829725  45.5756683  76.1439743
  10.2296352  45.7845993  76.5239716  11.4379110  44.8928261  76.7131653
  39.3702126  69.4785767  60.1207008  39.1764374  68.8150940  60.7828712
  39.9123116  69.0230103  59.4766388  27.4922771  68.2529068   6.2823343
  26.9905891  67.4557877   6.1116281  28.0881653  68.3251572   5.5367284
  75.3596649  46.1314659  10.1948996  74.8397675  45.5112839  10.7060890
  76.1592484  45.6520462   9.9779758  26.7245998  33.9756279  61.6644096
  26.5077724  34.2739677  60.7811127  25.9352169  34.1504745  62.1767883
  51.0317192  28.2652569   6.0174537  51.3243942  28.5994663   5.1695867
  50.3360558  27.6438179   5.8027577   1.5803683  59.1399384  24.1056252
   1.9639434  58.8250504  24.9241276   0.8075778  59.6347313  24.3780327
  78.7390594  13.0005779  33.4868813  78.8343658  13.6376371  34.1949120
  78.2116928  12.2977123  33.8664856  49.7059975  22.9885578  69.4258118
  49.0421906  22.2993622  69.4012680  50.5323639  22.5307770  69.2715836
  79.4755554  12.2136288  57.6974869  80.1102524  11.5115070  57.5545998
  78.8229523  11.8308868  58.2838669  59.9092865  -0.0228620  56.8556747
  59.6663780   0.8992473  56.9389954  60.8584900  -0.0103454  56.7328491
  38.4346008  16.3722000  73.0279694  37.7499886  15.9946537  72.4757004
  38.9932175  16.8561859  72.4197464  15.6357813  57.2580376  63.0314293
  15.6086578  57.0711250  63.9698067  14.7252922  57.4369812  62.7964363
  74.8977203  45.6660919  24.3929024  74.8486099  46.1261635  25.2308502
  74.5336990  44.7994881  24.5737782  81.6688690  15.6803055  20.2953587
  82.2433319  14.9270639  20.1580524  81.6386261  15.7883272  21.2459621
   1.8807088  16.6577721  64.3973236   2.2804990  17.3551846  64.9169540
   2.5293314  16.4607430  63.7215309  74.3517303   1.5155542  33.5030212
  74.9974899   1.1298244  32.9110451  73.7605896   0.7934493  33.7159729
  46.4246864  58.1212578  68.6721878  45.8015099  58.7005920  69.1106567
  47.0169907  58.7134056  68.2087479   8.0363922  54.3822708  56.7427483
   7.6505079  54.1265526  55.9049339   8.9764624  54.4298973  56.5688705
  11.4025307  35.7167130  70.9774170  12.3025970  36.0423584  70.9692993
  11.0963774  35.8364830  70.0784454  21.0359154   7.1249413  11.0070190
  21.1425133   6.9292049  11.9379082  21.7196255   6.6131020  10.5748215
  62.2773361  25.0936069  46.8161888  62.6057320  24.1945057  46.8181686
  63.0645370  25.6360130  46.7677498  23.9478874  64.4310074  15.3567867
  24.0308018  65.3561630  15.1256142  24.6852818  64.2637787  15.9437408
  74.4113083  43.8397217  63.6527596  74.7336807  44.1086006  64.5130005
  73.8912582  43.0550995  63.8263779  60.9604034  59.2029266  65.5308151
  61.1643143  58.3730659  65.0995636  61.4146004  59.8629608  65.0070877
  33.8435669  64.1119614  27.7266369  34.7654114  63.9155846  27.5596962
  33.7322731  63.9592667  28.6650028  48.3845940  41.2093811  19.7737217
  48.9762650  41.0853157  20.5158577  47.5462914  40.8586617  20.0745106
  49.3120575  48.3926010  42.3011093  49.3696327  49.3410988  42.4163017
  49.1838570  48.0511932  43.1861153  85.6292038  65.3894196  58.1592484
  86.5819473  65.4816437  58.1559792  85.4653091  64.6158371  58.6986389
   2.4000580  57.1494751  19.6043911   3.1402559  57.1806946  18.9982853
   2.8023176  57.0853424  20.4705925  10.2985401  53.0182304  74.5203171
  10.9560652  53.4258232  73.9566116   9.6863461  52.6030960  73.9127655
  51.9733353  17.9165115  60.5382347  52.3307991  17.1904507  60.0270729
  51.6666336  17.5104866  61.3489838  80.1614456  13.1837921  13.6577702
  80.1736145  13.7910233  14.3976049  80.5750580  12.3886261  13.9937315
  21.7270164   1.3228980  35.0318718  22.2105656   2.0320313  34.6081505
  21.0608978   1.7672186  35.5563698  14.6143017  56.2717857  40.5614624
  13.7728090  56.6794205  40.7662888  14.3850718  55.4834824  40.0692596
  47.1379967   8.1646147  60.5398254  47.4206352   7.9658127  59.6471748
  46.8565483   7.3216057  60.8952904  65.1918869  25.3077011  22.5766087
  64.9990387  25.8872185  23.3136292  64.4266357  24.7360363  22.5148010
  42.6384468  62.2326698   4.6550131  42.7110596  61.3377914   4.3231206
  43.4313431  62.3600082   5.1759076  58.4835548  54.6313858   4.9911098
  59.0676193  54.4165306   5.7183900  58.6256218  53.9305954   4.3547592
  61.5602989  22.8776512  88.8249130  60.8477440  23.0619774  88.2129288
  61.9763832  23.7272263  88.9709549  60.6196289  57.1654510  49.6167374
  60.7472496  58.1086998  49.5156403  61.4459229  56.7794456  49.3260956
  13.6683979  17.7652206  84.3082886  14.5854273  17.6296349  84.0697403
  13.4787025  17.0681973  84.9363022  48.1011047  47.4102516  16.0828686
  48.6199760  47.2341347  15.2980204  47.7042770  46.5671501  16.3018188
  74.4189911  28.6933289  55.9854393  75.3529739  28.6890030  56.1949120
  73.9848328  28.5339012  56.8234863  44.2414818  20.8220787  75.8014755
  45.0815468  20.7381973  75.3503799  43.6143570  20.3889961  75.2223587
  28.1189365  62.7924652  64.6901703  27.6807117  63.3899765  64.0842209
  27.4929028  62.6740646  65.4045181  71.4291916  24.2425175  18.4143181
  70.7936249  24.7445469  17.9041672  71.2430191  24.4746437  19.3240910
  86.4189148  12.8179140   4.3097873  86.2247314  11.8808975   4.3327084
  85.8860855  13.1553926   3.5897646  43.2097511  14.8255997  28.1129131
  44.0148010  14.3221130  27.9919662  43.3979454  15.4043818  28.8517132
   6.4915433  32.6158600  76.5222626   7.1026258  32.5991440  75.7856903
   5.6258230  32.6414757  76.1147003  58.0153313  30.1438503   1.5836403
  57.8904305  29.7738743   2.4575679  57.1635551  30.0458393   1.1580781
  75.9438934  19.2629147  62.5209122  75.2588501  18.6756401  62.8403702
  76.3542786  18.7832050  61.8013992   2.6726429  29.2018394  43.7294159
   3.2812028  28.5257683  44.0274315   3.0556870  29.5265198  42.9144974
  63.5051460  50.7383881  57.1473579  62.6236343  50.3724251  57.2197685
  63.4112473  51.6473846  57.4322128  67.3991013   8.5536108  39.7392654
  67.9389572   7.7639866  39.7749977  67.5888672   9.0107718  40.5585480
  64.7051849  35.6221046   2.7907720  65.3291321  35.4607925   3.4985113
  63.8676186  35.3112259   3.1343882  86.9408493  68.1255341  22.2285290
  86.1631165  67.5679703  22.2063408  87.0126266  68.4719849  21.3391209
   1.1393167  33.9207573  10.0175123   1.4095795  33.7455826   9.1161222
   1.8343390  33.5398674  10.5542622  69.6028976   7.8597217  10.8222961
  70.2956619   7.9696307  10.1709633  70.0358047   8.0173550  11.6613274
  71.6443558  23.0414124  48.8179436  72.3179092  23.7186260  48.7552414
  71.9485016  22.3463326  48.2343445  61.6258659  18.8692532  82.0983963
  61.9877510  18.4605350  81.3121262  62.2651978  18.6767845  82.7842865
  45.8573647  53.2215500   3.5959001  46.7361259  52.9446716   3.8554151
  45.2716904  52.6133118   4.0467482  49.1106758  46.6718292  22.4199219
  49.1442528  47.6157188  22.2644386  48.2799797  46.3948097  22.0333500
  26.8812199  51.2556267  88.1655426  27.2012291  50.3536339  88.1503067
  26.9457417  51.5480499  87.2563934  65.1815796  55.2289429  22.0512390
  65.5412674  54.5921402  21.4337082  65.8989029  55.4032021  22.6606007
  86.5833359  39.7215080  26.2557945  86.5505676  38.7891693  26.0415516
  85.9896469  39.8171425  27.0005207  51.6346703  62.6736717  87.4203110
  51.8996544  62.4044838  88.2998352  50.9963341  62.0136261  87.1499481
  76.0033264   5.6303878  38.8130989  76.7985840   5.3413582  38.3656006
  75.9211655   5.0390821  39.5613251  28.4447727  66.7035980  18.0101166
  28.5337963  65.9018326  18.5253639  28.3312416  66.3984680  17.1099815
  17.1396656  54.7514229  22.2606869  17.3165989  54.1541176  22.9874287
  17.4311104  55.6065216  22.5770683   6.2354693  59.4840202  35.4616623
   6.5760794  59.9491348  34.6975365   6.2693448  60.1281662  36.1688805
  63.9654884  48.6400909  49.9019661  63.2389526  49.1571579  49.5540848
  63.5584373  48.0540123  50.5399780  57.6974525  39.5529213  57.4282036
  58.4037895  38.9630547  57.6915970  57.6635628  39.4752655  56.4747581
  84.8091965  16.3292332  14.5430660  84.6129303  17.1718788  14.9525270
  84.7046127  16.4886093  13.6050406  85.5286026  54.8441582  62.8800697
  86.1591492  54.1390266  63.0264511  84.7033310  54.5028114  63.2244987
  86.5010757  35.7426186  33.7014503  85.6405563  35.9099007  34.0858383
  86.9891586  36.5534515  33.8448143  66.8296051  66.2115860  14.1562119
  65.9212189  66.0120010  14.3825769  66.9678345  67.1008759  14.4822340
  65.1963348   4.1790848  41.3841591  65.8415070   3.9425941  40.7177811
  65.3557892   3.5646815  42.1006203  74.7982712  40.4963646  55.3866959
  75.4564819  39.9671860  54.9361801  73.9740143  40.2720108  54.9548492
  49.3516045  58.4075661  65.2968445  49.2371635  58.4232140  64.3466339
  48.7833176  57.6973114  65.5948639  65.5671463  71.6017990  50.2603951
  65.9681702  70.7425385  50.1297226  64.6376877  71.4624176  50.0789719
  58.1562042  27.1099358  51.1618881  58.0990486  27.1516552  50.2073097
  57.5151749  27.7512817  51.4684677  71.5516281  29.4359055  61.2929230
  71.4836655  30.1216660  60.6285820  71.0086517  28.7226295  60.9572906
  40.8993073  34.5312691  75.1103821  40.9775810  33.7801514  74.5222244
  40.1030960  34.3597641  75.6132431  48.9104004   7.8191400  58.1487808
  49.4264297   7.8434896  58.9546089  48.6823578   8.7338181  57.9826698
  69.3865051  11.0921917  23.7754135  69.8669815  11.7407179  23.2608433
  69.6636429  11.2495146  24.6780071  71.4240952   6.5813494  36.4916344
  71.2241898   6.3507090  35.5843964  70.7130051   6.1914682  37.0001373
  72.6416931  48.9388161  59.6654129  72.4105072  49.1391487  60.5724144
  73.5947495  49.0231285  59.6369476  74.8044205  13.5524397   1.3583956
  75.1815567  12.7479792   1.7145431  74.1370087  13.8066816   1.9956996
  31.8656158  43.7502632  71.3004837  31.0953102  44.2621193  71.0537720
  31.5118580  43.0009270  71.7796249  43.5691032  52.0799904   8.3853626
  43.1004257  52.8237648   8.7640085  43.8225212  51.5475731   9.1393824
  33.4907265  45.2508698   8.3416777  33.6915016  46.1819344   8.4367542
  34.2586861  44.8028259   8.6962547   3.4149573  18.9092731  57.7567253
   3.8077743  18.3520260  58.4285889   3.9306030  18.7348785  56.9693680
  77.7415543  40.6205750   9.3168697  76.9337769  40.4054565   9.7831898
  78.1994400  41.2275276   9.8984003   6.2362761  33.0060997   4.2004876
   5.3037109  33.1144447   4.0138974   6.5163860  33.8615875   4.5259356
  51.1737061  28.5618305  44.2953033  52.1122246  28.7137375  44.4063683
  50.8226395  28.5705433  45.1857567  51.4101295  36.8667374  37.7557487
  50.9288330  37.4763412  37.1963120  50.7606773  36.2110825  38.0098381
  48.3434143  47.4143867  48.1028557  48.1973228  46.9359779  47.2867584
  48.1472931  46.7789917  48.7913628  56.0825958  12.6552992  37.6430855
  56.0070076  13.6068506  37.5718956  56.6117401  12.5151453  38.4283218
  13.9353304  27.1367722  78.1422424  13.9400826  26.1974525  77.9581528
  13.1721697  27.4695473  77.6699295  63.1466141   6.2717290  28.2009563
  63.4682350   5.4400434  28.5489368  63.6542816   6.9377046  28.6646175
  51.0095177   8.1797743  78.0817795  51.9518318   8.3317795  78.1537018
  50.6473427   8.5320826  78.8947601  75.0022964  27.8160229  14.5993156
  75.2001801  28.6387196  14.1518288  74.0548630  27.7152386  14.5073843
   6.5076547  39.0052147  76.5649567   6.5788708  39.1869278  75.6278687
   5.9471874  38.2309990  76.6168823  50.0531120  30.7151051  85.3698807
  50.8029213  30.1273479  85.4623947  49.3471489  30.1540318  85.0488739
  65.5069199  19.5319061  32.7090912  66.0075455  20.0865116  33.3074379
  65.1360855  18.8495617  33.2686653  73.2548523  33.3574562  59.2256317
  73.4134979  34.1064758  59.8001137  73.1661682  33.7397614  58.3525887
  55.6486282  64.2337418  35.0362434  55.6768684  64.9975204  35.6124992
  55.8992538  64.5727005  34.1768646  19.4189816  67.2745743   8.5044203
  19.6975384  67.7798538   7.7406602  19.8509026  67.7012787   9.2444191
  51.4309311  52.6540756  83.7052612  50.6809502  52.6587334  84.3000183
  51.1199875  52.1843300  82.9313812  72.9083939  27.7529411  37.4722061
  71.9812012  27.5897026  37.6451187  73.3491592  27.5190945  38.2890701
  31.3159676  70.9663696  13.0050516  32.2608032  70.9183350  12.8594246
  30.9749012  70.1520996  12.6351023  22.3053970  -0.1125543   4.5391874
  22.0425568  -0.0642727   3.6200490  21.6037350   0.3342683   5.0127392
  20.9799213  15.1341658  77.3249969  21.0123558  14.3973827  77.9351807
  20.6969261  15.8758326  77.8598557  84.1300278   9.0851879   5.4132318
  84.0973587   8.5654135   6.2163501  84.9261475   8.7916737   4.9701915
  46.0167007  47.3760300   3.3166237  46.6907272  46.7090263   3.4471095
  46.3691635  48.1587639   3.7400887  84.0221634  65.3117981  37.3423386
  84.7192612  65.8464508  37.7223778  84.4811172  64.6686478  36.8020210
  30.2184219  58.9327164  66.9020767  29.8794422  59.3868446  66.1306610
  31.0119514  58.4955215  66.5932007  20.8279114  13.8555822  79.6956787
  20.5028496  14.6821241  80.0526047  21.5282059  13.5952301  80.2940369
  52.0861206  55.5844116   2.5763681  52.1650162  55.1537590   3.4275708
  52.3830681  54.9271851   1.9469953  51.9564705  17.3841114   3.8764389
  51.6884346  17.4788475   2.9624293  52.9029694  17.2473564   3.8355310
  82.0170059  37.3788757  82.2935257  82.5497971  36.5837555  82.3060226
  82.4509811  37.9480171  81.6579285  60.1715012  35.2372246  89.2493210
  60.6874390  35.2257156  88.4431534  59.2792130  35.0385094  88.9654846
  33.7687225  50.0549393  17.4677467  33.2634659  49.8968658  16.6702766
  34.6770592  50.1044540  17.1699181   7.2859316  71.7199249  32.6878815
   7.7077351  70.9486694  32.3090935   6.3552613  71.4972458  32.7101784
  48.0428734  43.5236702   2.8502123  48.3746948  42.6269188   2.8945773
  48.5442429  43.9976692   3.5136752  79.9535065   6.2551975   0.0983249
  80.8361206   6.5398297   0.3354298  79.7039719   5.6452312   0.7925186
  77.2279816   7.1681032  78.3236237  76.3782501   7.4227281  78.6832886
  77.4534378   7.8747339  77.7185822  33.7699242  36.3715096  76.6799088
  34.3622551  36.1149712  75.9731064  34.0894089  35.8938255  77.4453964
  63.9496384  43.6347542   5.5940681  64.2697906  43.2779884   6.4225912
  63.4003487  42.9402275   5.2305484   8.5167704  57.1189766  78.3583374
   9.1212864  57.2471581  77.6273346   8.7042332  56.2342148  78.6718445
  11.6061316  29.1889668  17.7111282  11.9656448  29.2487812  18.5962296
  11.1007147  28.3760815  17.7123318  58.8818359  32.0017700  20.6097393
  58.6309357  32.8709831  20.2970963  58.0834427  31.6488075  21.0024471
  33.4165497  52.2345581  66.6642685  33.6632767  52.0055351  65.7682190
  34.1576004  52.7426376  66.9943161  70.0079117  61.1126366  79.6924057
  69.8125076  62.0434723  79.5847168  70.8693390  61.0954170  80.1094055
  44.9408722  19.1425781  66.3392715  44.0265503  19.1596184  66.6220322
  45.3254814  18.4073162  66.8164520  53.5985413  29.8232193  34.0004539
  52.6760254  30.0685635  34.0711746  54.0333633  30.6150036  33.6838493
  80.1935654  34.4040375  84.9573898  80.9824066  34.9449043  84.9951172
  80.3432846  33.7165298  85.6063461  70.9245682  42.1635284  42.7875252
  71.7551117  41.6922035  42.8529472  70.5948639  41.9478760  41.9151611
  22.5395660  31.1453934  61.7570610  22.7624092  31.9776745  61.3400688
  22.6934109  30.4885273  61.0780220   2.9238086  57.9488678  74.5869675
   3.7853773  57.5488663  74.7049866   2.4352596  57.3148384  74.0620270
  58.3871078  65.5801010  28.7792168  57.7463684  64.8925171  28.5978107
  58.7869797  65.7650986  27.9294453  18.0346222  47.2307320  50.8208847
  17.2091503  47.0412560  51.2668953  18.7045975  46.8363647  51.3793068
  40.0530586  23.5717201  60.2048950  39.9690514  24.1732197  59.4650459
  40.9562874  23.2584095  60.1574860  34.4708481  70.6011734  84.1150665
  34.5858727  70.0657272  84.9001160  34.6602745  71.4938126  84.4041061
   3.6173108  26.5334091  70.0918274   3.7080801  26.1161900  70.9485168
   4.3314314  26.1671486  69.5701752  47.0639915  54.7515488  52.2414017
  47.5924149  53.9657784  52.1015358  46.1770096  54.4213638  52.3844719
  14.5027685  16.1715965  70.2851334  13.6782036  15.7113810  70.1285248
  14.5242929  16.8580761  69.6184158  24.8495483  52.6140366  89.3356171
  25.6627045  52.1389313  89.1644821  24.8182659  53.2877083  88.6563339
  45.0627441  28.6010132  77.3192291  45.4664803  28.6609344  78.1850510
  45.0897827  27.6681671  77.1063919  83.0170670  30.6931686  63.5356255
  83.3151779  30.9519062  64.4076385  83.6739044  31.0550613  62.9407883
  62.1957893  41.3789062  83.9700470  62.7383842  41.0512466  83.2527847
  62.7933311  41.9051552  84.5013046  73.3935928  62.9996376  26.6852341
  74.2000580  62.5964165  26.3639050  73.0307770  62.3568687  27.2947006
  17.9232235  34.6861992  78.0808334  17.6098042  34.1415215  77.3588028
  18.3753529  34.0754128  78.6628571  46.5034904  22.2836266   7.2195301
  46.4534454  23.1290607   6.7734714  46.8835754  21.6922092   6.5699201
  81.0628510  30.1617413  33.5063362  80.1701279  29.9082985  33.2717094
  81.0380402  31.1178341  33.5450821  60.0486412   2.7694023  20.8348351
  60.9167099   2.6125784  21.2064457  59.9779854   2.1398485  20.1172676
  41.9356270  53.6844177  46.2303658  41.8132477  54.3695221  45.5731850
  42.6174698  54.0263062  46.8086662  45.0714912  40.4213982  87.4086075
  45.4518814  40.5303764  86.5370255  45.7146416  39.8981285  87.8869095
  59.7625504  29.6523972  72.5431671  59.9718552  29.0202827  73.2308121
  59.2862206  30.3489285  72.9950409  61.9009590  67.5375214  68.7954102
  61.3845291  68.3182373  68.5953751  62.7440071  67.8781662  69.0945053
  83.3627625  54.9256020   6.3139429  84.1255722  54.5355873   6.7408490
  82.7078705  54.9931145   7.0087714  77.4682846  14.9709826  15.6652365
  78.3270569  14.9870129  16.0877228  77.2615662  15.8922424  15.5078306
  10.2894697   1.5070802  43.7611237  10.8957748   1.4473135  43.0228462
   9.5150537   1.0227478  43.4748840  43.4157028  26.4951916  64.2170486
  42.5450020  26.3031006  63.8688965  43.8916702  25.6681595  64.1415024
  82.7513657  48.7204094  81.5066528  81.8236084  48.5166435  81.3884506
  83.1445007  47.8935585  81.7859344  32.0384483  34.6701775  84.5828400
  31.8531189  35.3928642  85.1825104  32.3165588  35.0967903  83.7723541
   1.0076553   9.3690338  86.6025848   0.9835257   9.9223089  87.3833084
   1.9387791   9.2851782  86.3971329  64.7021255  67.7240524   7.1519742
  64.9628601  67.9151459   6.2510118  65.2101746  68.3369522   7.6834583
  43.0325203  13.0207653  88.0267181  43.8938942  13.4335327  88.0890808
  42.9790497  12.4600086  88.8006210  84.2827072  63.7296715  49.2593231
  83.7164383  63.2147484  48.6844902  84.1368027  64.6364288  48.9896240
  24.9020557  39.3098907  71.8669205  25.4564705  38.5717354  72.1198730
  24.3286037  39.4480896  72.6207657  75.2710114  22.5499229  72.9926987
  74.5180588  23.0679684  72.7082443  75.9277115  23.1995850  73.2435303
  41.9782639  22.7783775   0.7412286  41.1421852  22.3581829   0.5396367
  42.6082802  22.3475666   0.1635483  11.9337406   8.4338007   1.8002352
  11.9556293   8.9248381   0.9788736  12.3047018   7.5796871   1.5786260
  31.1786747  64.3566284  50.3148842  31.3172607  63.6659164  50.9629173
  31.5999775  65.1282578  50.6934586  50.7173157  24.2524033  16.1488247
  51.0040321  23.5498505  16.7323017  49.7614746  24.2057762  16.1694527
  67.5528870  34.4855232   8.6875982  68.1859818  34.0953064   8.0849733
  68.0353699  34.5891953   9.5077791   5.0575428   9.4629688   2.4297874
   4.9641452   9.7188740   3.3474045   4.5597486  10.1217241   1.9455630
  59.6732330  68.5790634  26.6491089  60.6280975  68.5131149  26.6598206
  59.4966278  69.5145340  26.7488079  41.9332008  43.1916809  16.8667450
  41.1609612  43.4930000  17.3453732  41.6587029  43.1838684  15.9497814
  34.2100983  46.1026115  56.3055611  34.0618401  46.7563171  56.9888763
  34.1016769  45.2621231  56.7505913  37.8346748  28.0158691  84.7922287
  38.4809418  28.2448158  85.4601822  37.0016899  28.3237305  85.1494217
  72.6189651  13.5175886  37.3406830  72.6738052  13.7959080  38.2548828
  72.6683502  12.5623817  37.3777466  54.3610954  14.3911009  19.5111771
  53.8702164  14.8753138  20.1751118  53.7560310  13.7114429  19.2142010
  10.3163185  70.5860291  14.9256468  10.3843822  69.6710434  14.6528835
  11.2219057  70.8615570  15.0678864  63.0127945  11.8966999   1.8439829
  62.6382751  12.7118587   2.1778727  62.2780800  11.2833052   1.8307695
  50.6443901  70.9792633  54.6746216  51.4565544  71.0958481  55.1675987
  50.3775558  70.0793076  54.8619957   0.5306637   1.6615756  86.8959351
  -0.1402229   2.2448483  87.2508087   1.3572973   2.1084702  87.0781250
  33.9143906  63.0505600  82.5370026  34.1331329  63.9544907  82.7634888
  34.3171196  62.9143524  81.6793976  56.3074722   4.1788597  39.0682487
  56.5767975   5.0716543  39.2841454  56.3163528   3.7166967  39.9064369
  69.8817520  53.9892769  50.3435516  70.7908096  53.9613037  50.6419945
  69.8578110  53.3960838  49.5926971  79.2775345  65.0427780  76.7812576
  79.2816086  64.7766266  75.8618164  80.1963501  65.0019836  77.0464859
  84.9354706  55.5654869  47.7788086  84.1847382  56.1232758  47.5750732
  85.3263855  55.9645157  48.5561104  24.5619583   4.3356586  66.7566757
  24.1514912   3.4720163  66.7134323  23.9078770   4.9303665  66.3896255
  16.7822666   4.3106322  34.1046333  16.3844204   4.5944734  33.2815971
  17.0621967   5.1223001  34.5277939  80.8911285  46.3490448  69.9516144
  80.4611893  46.5803909  70.7749481  80.1898499  46.3719254  69.3005295
  62.0822258  39.5285950  23.9167042  61.8437881  40.2867966  24.4500980
  62.9200172  39.7683182  23.5206337  49.5358887  12.9525175  25.6604195
  48.9051819  12.4517193  25.1430779  49.3976212  12.6553850  26.5597668
  35.8300095  68.2825851  63.9766502  36.7601395  68.2635422  64.2018738
  35.7650642  68.9383011  63.2823524  19.6672974  55.2036743  79.0491028
  19.9487896  56.0267792  78.6497345  20.0060520  54.5256462  78.4645004
  14.5656614  16.1891804  76.5221634  15.3788424  16.4096870  76.0679092
  13.8734884  16.4548779  75.9167480   6.7134509  32.4910583  60.6438065
   7.3864632  31.8191643  60.7526398   6.3728762  32.6341629  61.5268478
  62.0861320  33.8137856  51.4778595  61.2352371  33.4166412  51.2921448
  62.7226639  33.1435127  51.2292862  49.8395195  25.1016045  58.4769859
  49.4065323  25.2953262  57.6455879  49.1727867  25.2773476  59.1409225
  58.3401909  33.7355347  54.8910332  57.6012764  33.2430725  55.2484131
  58.3038979  34.5806427  55.3390388  78.9919968  47.8760109  75.9882812
  78.1971512  47.7128830  76.4960556  79.3983917  48.6302032  76.4152145
  63.2396851  29.5416546  86.6320953  64.1783371  29.6869488  86.7506866
  63.1863937  28.8066387  86.0212402   6.7289968  26.9932575  82.4541016
   6.0917149  26.7082653  83.1089935   6.4040747  26.6305809  81.6300125
  48.2389641   4.0934691  85.9423828  47.6974678   3.8453021  86.6916656
  48.1743088   5.0477805  85.9057541  66.0919952  71.4495010  32.7432060
  66.5699997  72.2782059  32.7116585  66.4883041  70.9720001  33.4720116
   7.5873899  12.3216267  18.3791790   7.1783390  13.0833178  17.9684048
   7.0257487  12.1230850  19.1284275  63.2246971  20.4639111  16.4495239
  62.8729362  20.9825554  17.1730595  63.3709450  19.5960369  16.8258724
  77.5379105  41.0279083  64.3494949  78.0096130  40.3053017  63.9352913
  77.2383270  40.6704750  65.1853943  83.4532700  35.7748642  28.7378559
  82.7598877  35.3514214  28.2317371  84.2655792  35.4383163  28.3595448
  58.4503441  28.9328976  33.5811310  58.1146812  28.1187801  33.2059326
  58.4744377  29.5439472  32.8447418  29.1358719  49.3989296  35.7857513
  29.7761078  50.0965538  35.6455803  28.9354000  49.0776443  34.9066467
  41.0450668  62.7227516   0.4110067  41.6841621  62.3656311  -0.2056394
  41.5533257  63.3122177   0.9681755  76.1878738  52.9409904  13.6632309
  76.2504959  52.6281433  14.5656929  76.9435425  53.5188522  13.5570774
  48.3394203  18.7589874   8.7524347  48.5818138  19.2728653   9.5227633
  48.8690262  17.9643707   8.8182554  22.0977020  55.8580132  43.1173553
  21.4229202  55.4993286  42.5409431  21.9343681  56.8011742  43.1194000
  23.2029381  31.2841644   5.8358130  24.1443710  31.3933945   5.9699955
  23.1340790  30.7547626   5.0413179  68.9388809  17.3504238  12.4256935
  69.3964615  16.5175610  12.5405540  68.2402878  17.3320904  13.0798111
  20.0426979  59.5265388  83.0169983  19.9687309  59.1168137  82.1550903
  19.3338223  60.1694069  83.0382233  57.0014420  26.6512928  28.6522217
  56.4352646  26.7835789  29.4126015  57.8714333  26.9139652  28.9528065
  12.1774473  61.7001801  50.1726379  12.1979284  62.3483696  50.8766708
  11.2538252  61.6409302  49.9284172  53.2161827  43.0520477  42.4688110
  53.4391060  42.1227493  42.5230026  52.3980675  43.1311073  42.9593964
  57.5773430  48.5320778  41.2641258  57.8724594  48.3213882  40.3782654
  58.3849220  48.6328239  41.7680054  45.5065308  53.6262817  35.0156898
  45.6240082  52.8081284  34.5329285  44.5593719  53.7641373  35.0264702
  56.5778313  42.5476837  68.6310272  57.0981750  42.4142189  69.4232788
  57.0650520  43.2033653  68.1321030  69.9716873  16.4788475  16.3254147
  69.8087082  17.4215088  16.2928638  70.7971878  16.3621292  15.8551388
   7.3657546  58.6064682  27.8940964   8.1882067  58.5970688  28.3837051
   6.6881332  58.5025673  28.5621281  46.3509903  54.4246674  37.5907669
  47.1109734  54.4230347  38.1727066  46.7207680  54.3242035  36.7136116
   3.3971150   9.5477753  39.3116302   3.6303957  10.4681177  39.4332123
   2.5987895   9.5707254  38.7840118  45.2132607  66.5033493  52.2804718
  45.5040474  65.8143082  51.6830673  45.4066238  67.3187408  51.8178864
   6.8248448  30.5251331   5.1619749   7.4423704  30.0700798   4.5894179
   6.7524681  31.4027691   4.7868085  16.5598106  52.2471924  76.1577377
  16.9126225  51.3620262  76.0670090  17.1327705  52.7900734  75.6162338
  18.1486359  33.7875824  13.7785597  18.6059818  33.7364922  12.9392405
  17.7335796  34.6500969  13.7730446  38.5320320  48.3445473  51.4659081
  39.3539658  47.8619118  51.3780403  38.7157326  49.0120697  52.1268959
  54.5493698  59.0515442  37.2506218  53.6427612  59.1438408  37.5434990
  54.6190414  58.1387024  36.9711685  41.0483932   5.8975224  85.0828552
  41.2558708   5.6316319  84.1870422  41.2235413   6.8384042  85.1000748
  69.4500580  29.0801792  56.5856056  69.9506683  29.8951797  56.6229248
  69.1617432  29.0176716  55.6749992  25.0586319  69.0834961  63.7962608
  24.8383121  69.0528259  62.8652649  24.2852612  68.7316818  64.2371216
  51.8289566  57.8185310  55.2748222  51.2940865  58.5543213  55.5727425
  51.3138733  57.4155006  54.5759048  10.4506969  24.7629757  19.1313267
  11.3136625  25.0485401  19.4312840  10.5273790  24.7300282  18.1777725
  30.0303726  52.7449303  -0.1505694  30.9198666  52.4567528  -0.3554783
  30.0050278  52.7823944   0.8055613  30.5536118   7.1553240  84.2850723
  30.9684525   7.9074888  84.7074356  29.8491325   7.5342541  83.7593842
  20.6458950   6.7579613  70.7840271  20.9623241   5.9453597  70.3893356
  20.1500587   7.1860213  70.0860672  35.3901024  32.8292503   1.5540658
  36.2353859  32.9113274   1.1124901  34.8139763  32.4376144   0.8976121
  59.5854492  57.7623711  60.5036011  59.5320740  56.9738808  61.0436630
  59.7540245  57.4362411  59.6196022  75.8684158  11.3844538  55.0630417
  76.6825485  10.9921045  55.3784561  75.8374405  12.2433147  55.4845009
  18.6767521  12.1107693  78.7919312  18.4585495  12.7492895  78.1130295
  19.3563919  12.5381536  79.3131485   6.4479685  16.4714870  65.1569901
   7.0493431  16.8392830  65.8045273   5.6638508  16.2476673  65.6582794
  24.2623291   5.2416902  30.5372524  23.6474342   4.5129085  30.6209927
  23.7142124   5.9925179  30.3090935  22.7207012   2.6012580  86.5816040
  23.5849094   2.1903677  86.5582962  22.1090260   1.8685858  86.6542511
  77.6996307  57.7802544  84.5022049  77.3866119  56.9350128  84.1800079
  78.4681091  57.9718132  83.9646378  26.0574188   9.2698832  50.8425446
  26.9185429   9.5677853  51.1357231  25.7112770   8.7719927  51.5831680
  77.4764786  48.5054970  10.9428740  77.1399689  49.3612366  11.2087755
  76.6936569  47.9704704  10.8118334  13.5005465  55.7073441  49.7862358
  14.3387804  55.5212402  49.3632011  13.7278852  56.2547913  50.5378036
   1.9137855  26.2652493  61.0635567   1.3533607  26.8824883  61.5338440
   2.7364900  26.7377052  60.9363708  22.3892174   1.0473597  46.6271782
  22.2626133   1.5298113  47.4441490  23.2146854   1.3821195  46.2767906
  61.2987404  58.0691376  76.4838181  60.9638023  58.0593300  75.5871811
  62.1630707  58.4741478  76.4122086  72.8684006  49.6863327  30.4897995
  72.2592697  49.2922592  29.8653831  73.7007523  49.7276115  30.0189342
  50.4880791  71.0680923  34.4612770  49.8641586  71.3718948  33.8019867
  50.4830856  71.7533951  35.1295357  54.6168709  19.1878262  82.1226883
  55.0881767  18.3846302  81.9013824  53.7419472  19.0609741  81.7557373
  41.2636185   0.0894841  42.2869759  41.3490639   0.2388224  41.3453636
  40.3751106  -0.2494563  42.3960724  77.0296097  29.5573044  56.3481140
  77.1710129  29.6631222  55.4073486  77.8588791  29.8219967  56.7462234
  24.8808937   4.3432331  83.5826340  25.3766003   3.7530112  83.0150604
  24.8890133   5.1819701  83.1214600  62.5370255  52.3182793   3.1320622
  62.2686691  51.4140167   3.2949283  62.7597084  52.6615791   3.9973876
  32.5151024  42.0082474  27.7320805  31.8785324  41.6767883  28.3654404
  32.1773415  41.7250290  26.8824120  16.5975800  49.9069901  48.8130188
  17.1116314  50.3583183  48.1434784  16.8373165  50.3407784  49.6319084
  50.8312531  41.7604561   9.0998087  51.1430016  41.9642372   8.2180395
  50.9288025  40.8112068   9.1749191  80.9843292  40.1969795  32.6820450
  80.1144562  40.5658569  32.5287933  81.4487152  40.8746567  33.1733017
  21.2512798   8.7787437  54.3095703  21.0981236   8.5419579  53.3948517
  20.5395947   8.3547535  54.7891235  51.9425240  43.2628670  33.1294899
  51.1062126  43.3175240  32.6670761  51.7012291  43.1225739  34.0450935
  65.7224579  10.8815708  19.5596962  66.2470169  10.6270046  20.3188152
  66.3215485  11.3919182  19.0148449  44.4673958  54.1451302  32.3719368
  44.8479652  53.6478081  33.0958595  43.5219994  54.0450249  32.4834709
  60.7084923   4.1157479  29.1381111  60.6852417   3.1597540  29.0960693
  59.8617554   4.3597136  29.5119457  12.5751143  48.6623459  28.8388615
  12.5113182  48.5454750  29.7867565  12.8714790  47.8128166  28.5122032
  69.2875977  42.5332603  68.2152786  68.7887650  42.1551933  68.9394760
  70.1709137  42.6464500  68.5662308  69.2207794  64.3404846  82.0203018
  68.2813950  64.4048615  81.8481293  69.4954300  65.2415466  82.1902771
  78.4929657   8.7168531  18.3140583  77.7301407   9.1340141  18.7144375
  78.7317886   8.0187426  18.9238434  21.2229939  13.1151533  18.5986385
  21.4072037  13.1541052  19.5371399  20.3052807  13.3767004  18.5236301
  74.7422485  18.8520508  48.6623650  75.1865768  18.5942402  49.4700394
  73.8453903  19.0470142  48.9341431  18.3323708  70.3935699  12.5124226
  17.9300556  71.1440887  12.0752831  17.7094631  69.6784973  12.3824615
  47.4475365  52.4807854  43.5379715  47.1039238  53.1763878  42.9773521
  46.8386765  51.7522964  43.4162025   7.3144212  43.1534004  50.8946953
   6.5602355  42.6375771  51.1799355   7.1578498  43.3120117  49.9638023
  83.6660690  61.3725548  19.5319901  84.1328201  61.0638123  18.7554245
  82.7419586  61.2260933  19.3300076  14.9489594   8.7833548   8.4401445
  15.1549511   9.4742613   9.0697851  15.4913816   8.0427399   8.7112522
  70.2633209  71.0572510  74.5621872  70.9143829  71.4882812  75.1158676
  69.5519791  71.6935730  74.4892044  27.8970127  45.7781258  88.7342377
  27.5518398  46.6573715  88.8892212  27.7883892  45.6406059  87.7932129
  26.1454849  15.3863726  10.8780708  25.4256992  14.8186445  10.6027079
  26.8572140  14.7835274  11.0931292  41.3039055  57.4761658   3.9152908
  41.5863266  57.0186615   3.1233552  40.8051453  56.8220558   4.4047952
  58.4702606  46.5974007  16.9415188  57.7277489  46.3276520  16.4010201
  58.2704239  47.4999962  17.1897507  14.3948107  57.3436279  30.0140705
  13.6458445  56.7484512  29.9817638  14.7999601  57.1728363  30.8643150
  82.5558472   8.7489109  55.0433159  82.7886810   8.4117756  54.1782379
  81.7196045   8.3298454  55.2465744  54.4121284  46.3324203  59.7326965
  54.4275208  45.5638657  60.3030624  54.2284050  47.0641937  60.3217545
  23.4979763  45.2115059  44.7128372  23.6979733  45.4063530  43.7972679
  24.3199596  44.8770676  45.0716209  59.7766838  31.4322453  54.0927238
  59.2265320  32.1882057  54.2978745  60.6592941  31.7025566  54.3460236
  16.1733017  12.2003756  84.6559753  16.5055885  12.9720964  85.1145172
  16.9471169  11.8134604  84.2464218  82.6606522  70.8768539  42.7072678
  81.9800262  70.2555847  42.9661407  83.3102264  70.8264313  43.4085083
  64.5028076  26.6325531  46.4654579  64.0150299  27.2377033  45.9068031
  65.4108353  26.7171631  46.1746635  48.9774971  44.3433342  42.4870834
  49.5570335  45.0441628  42.1884079  49.5513992  43.7460823  42.9668312
   0.3105348  48.6833572  13.2703094  -0.3739466  48.0142593  13.2655458
   0.0918576  49.2549438  12.5343046  24.3436337  14.0672503  14.6517334
  23.5269508  13.8107986  14.2233715  25.0311165  13.7509089  14.0656204
  48.8787460  23.0732155  32.6156807  48.9892998  23.4621201  33.4832993
  49.6157913  23.4103279  32.1064148  71.5433578  52.9148827   7.2072310
  71.0687637  53.5183907   6.6355915  72.3311844  53.3954010   7.4615197
  29.9026604  41.9134293  87.3549576  30.6643467  41.9640579  86.7774582
  30.2698059  41.9401855  88.2385406  43.1472855  44.8455620   5.7251139
  42.7069893  45.6241875   6.0658603  43.6787605  44.5315170   6.4566498
  58.6344490  58.5907707  47.9898911  57.7976036  58.7238426  47.5446777
  59.1463203  58.0561714  47.3829079  51.2177162  53.7373924  12.8422394
  51.2205276  53.5634842  13.7835035  52.1390686  53.6898460  12.5871344
  85.2157669  68.0704117  85.5359879  86.0733261  67.8626328  85.9070053
  84.7461014  68.5057373  86.2474289  28.2801533  26.7728748   2.4331176
  27.5198402  26.6313667   2.9971488  28.5288010  25.8956604   2.1417441
   2.3355606  32.7707100  56.3166428   2.5294888  33.6663208  56.5932426
   1.8818659  32.3820000  57.0645065  17.1274624  22.0690746   5.9732871
  17.4397697  21.4160633   6.5996027  17.5810280  21.8551025   5.1579800
   4.3747954  52.5552711  33.8640099   5.2597504  52.8447227  34.0860558
   3.8060899  53.2542038  34.1869621  77.1537170  53.0897942   8.7523479
  76.9510345  54.0023727   8.5465612  76.4655991  52.8232117   9.3619852
  70.6496353  21.1367722  86.1390610  70.6434479  22.0930061  86.0965195
  69.7659607  20.9039783  86.4239502  38.7286453  30.2538528  82.9928818
  38.4364166  29.3590736  83.1666794  38.4274635  30.7555695  83.7503738
  81.9341660  31.9573460  44.2955818  82.4185944  31.9298115  45.1206894
  82.5899277  32.1968346  43.6407127  11.4578876   5.4240069  58.8783264
  12.4121370   5.4983058  58.8892975  11.2684803   4.6855254  59.4571190
  54.6578941  49.1598434  44.2641983  54.0543365  48.9904099  44.9875526
  55.5050659  48.8461761  44.5806580  66.6939468  47.7581558  58.9312935
  67.0071716  48.5792274  58.5518684  65.9179382  47.5370178  58.4163704
  74.7248001  61.6222878  78.6207962  75.4407806  61.2526588  79.1374893
  75.0238876  62.5023575  78.3922043  35.9218140  62.8121300  76.1691895
  35.0904274  62.6087685  75.7406235  36.4359283  63.2572746  75.4955750
  31.5098534  22.0817947   6.0236020  31.6707191  21.7352734   6.9012566
  30.6612797  21.7162247   5.7735806  74.4411011  33.3742714  36.0433464
  74.0071716  33.6040382  36.8650131  73.7284317  33.1082726  35.4623375
  63.9919052  45.2744789   2.4749646  64.2386475  44.3978920   2.1800988
  64.7224960  45.8318214   2.2069442  83.6110687   3.0738530  68.0225296
  83.7962418   3.4308894  68.8911285  84.4406357   2.6888590  67.7399826
  57.5635490  56.0763626  63.3131485  57.8486633  55.6101875  64.0990372
  57.4706993  55.3927498  62.6496048  27.4143124  15.5323753   5.5570421
  26.7707310  14.9505262   5.1527061  28.2488003  15.0749273   5.4540763
  18.8082924  60.5128326  68.6647110  18.6131611  59.8546753  67.9976425
  19.6497078  60.2405357  69.0309219  35.7893219  58.8889503  63.2737389
  35.5657196  58.6870270  62.3651924  36.0559196  58.0488892  63.6471710
  56.8058891  50.2208557  38.9911537  56.3566704  50.6303596  38.2517357
  56.6575165  49.2827835  38.8718300  67.8858871   6.8410125  36.5357819
  68.4895325   6.3650928  37.1061745  67.1266022   6.2636933  36.4556961
   3.4690273  24.9327755  17.2372742   3.2903509  25.8553486  17.4193897
   3.0850158  24.7803440  16.3738327  80.8096848  22.8807201  50.4537010
  80.8628311  21.9251842  50.4347458  81.1274414  23.1210537  51.3240509
  79.0272827  47.0178032  52.5801735  79.9729004  47.1609001  52.5405464
  78.8479614  46.4035225  51.8683205  53.9238243  52.0034981  67.1547775
  53.6879158  51.3592033  66.4873428  53.5922890  51.6332703  67.9728546
  55.6652069  66.8190613  73.3370895  56.4709320  66.4873734  73.7333527
  55.1476135  67.1368103  74.0769272  62.6071129  58.6722069  67.7084045
  62.1553841  59.0269432  66.9426804  63.3790817  59.2289047  67.8102951
  37.4497452  51.9343147   7.4636030  37.8996658  52.1302719   6.6417732
  37.1060905  51.0490608   7.3433495  44.8662529  14.6381063   0.8071204
  45.2605591  13.7887506   0.6087545  44.3316765  14.4782143   1.5848687
  39.0974846  15.4851694  88.2230606  39.0566978  14.5314875  88.1519394
  38.2142601  15.7437057  88.4863205  26.9207191  53.4834938  27.2061577
  27.7789822  53.8575706  27.4053535  26.7753105  52.8366127  27.8965454
   1.5628234  40.9294701  87.2940521   2.4211690  41.2972565  87.0837936
   1.1966753  40.6762123  86.4466934   3.4639804  28.9019375  37.2460632
   4.3164268  29.0202332  36.8270493   3.6608882  28.8595562  38.1818352
  42.6998672   0.2495744  21.6005611  41.9039650  -0.1687567  21.9288406
  42.3860245   0.9098509  20.9826870  54.5808945  37.9609451  19.3598137
  54.0423317  38.4252396  18.7190247  55.3920059  37.7623253  18.8919659
  63.5640450  60.1540642  87.3318329  64.3619385  59.9746742  86.8344269
  63.4153137  61.0924835  87.2157211  71.4060135  58.1139030  29.5208626
  71.6359329  57.4322586  30.1523132  72.2463150  58.4078217  29.1691074
  26.9159756  51.6721535  85.3828888  27.2440262  50.9007874  84.9207077
  27.6996803  52.1862373  85.5772095   4.4175463   1.5849028  48.1381874
   5.1248393   1.3493474  48.7385902   4.3776059   2.5404286  48.1782761
  44.2773209  42.8051872   8.2211504  45.0825691  42.2887497   8.1879940
  43.7055054  42.3993492   7.5695739  12.6199923  45.8208733  59.8703270
  13.2374992  46.5503464  59.8175316  12.3337049  45.6835861  58.9673195
  35.7444649  47.1550140  29.8916817  36.3271408  47.0578117  29.1385059
  35.8502274  46.3403816  30.3830280  72.3507233  11.4829063  82.7684784
  72.8679504  12.2436142  82.5038528  72.2156830  10.9914837  81.9582291
  78.6872940  16.1268311  73.5192032  79.5695267  16.2577457  73.8666992
  78.1082764  16.3214283  74.2561646   2.0902786  50.1275711  40.2232552
   2.3772798  50.5633736  41.0257111   1.4690326  49.4628906  40.5207253
  72.6033096   2.9725995  21.0507793  72.0056229   3.3683615  20.4164543
  72.0290451   2.5578566  21.6945457  16.4678555  38.3937759  44.2536469
  17.1670742  38.0629044  44.8174286  16.8480148  39.1610107  43.8257866
  28.1930561   4.7993226  55.1930771  27.5699615   4.5873694  54.4980507
  29.0517521   4.7168326  54.7782669   6.8820448  62.5648994  65.5617294
   7.0570593  62.8274803  64.6580429   7.5507612  63.0168953  66.0762711
  45.3821602  27.6764050  66.1247177  46.2180481  27.4165707  65.7374039
  44.7346382  27.4883938  65.4453049  71.7708359  20.3993168  70.1830292
  72.6678391  20.2887859  70.4982834  71.8414307  21.0474396  69.4821777
  70.1040039  43.0809898  32.3036804  70.7754440  43.7623940  32.2706337
  69.3061295  43.5432014  32.5605812  59.4631157   2.7751236  57.2684746
  59.7900696   3.1220124  56.4384117  58.5103149   2.8044257  57.1816177
  80.1337814  45.6512642  41.7650337  79.7315292  45.8196220  42.6171379
  81.0743713  45.7290039  41.9246445  32.2391739  48.2905769  60.2840881
  32.6732712  47.7590294  60.9513550  32.3051224  49.1874237  60.6120300
  32.1990776  23.9888420  82.0337296  32.2425957  24.9314270  82.1945801
  33.1120758  23.7215366  81.9278336  69.5529175  40.0998840  37.9314156
  70.0904922  39.8136177  37.1929741  69.1576385  39.2949409  38.2661705
  34.8715858  45.2042809  63.4181480  34.3354683  44.7687569  64.0808105
  35.6042175  44.6059303  63.2716446  12.8802233  54.8095665  33.5942154
  12.0906601  54.3877678  33.2552376  13.3590755  54.1054153  34.0313683
  74.6085968  61.2190933  70.5828247  74.2645721  61.8311462  71.2334213
  75.3835831  61.6558037  70.2294083  68.5350266  66.7604370  19.9486923
  69.1582947  67.1070786  20.5871372  69.0101318  66.7750626  19.1178532
   7.8119655   7.4052176  21.9174500   8.2889481   8.1963806  21.6668892
   7.1813293   7.7032475  22.5729713  17.4559765   5.4402122  88.8679276
  18.0011444   6.1098247  88.4548340  17.1481056   4.8996797  88.1404190
  26.1026707  66.0937195  20.0664139  25.9934807  65.2117538  20.4220142
  26.5679646  66.5725937  20.7522812  41.7656555  69.4340668  28.1829147
  41.1045609  70.1091156  28.3362026  42.5946426  69.8543167  28.4118347
  85.2704544  36.5872955  74.7959671  84.5154953  36.6829491  75.3765869
  85.2583160  35.6658401  74.5371246  39.5427666  70.4097290  11.0095901
  38.7959213  71.0039062  10.9360704  40.2195892  70.8067780  10.4614210
  65.4948349  47.2807503  23.7491169  66.0078125  46.6759338  23.2131271
  64.7958221  46.7404747  24.1175022  18.4913692  26.5575066  61.8474922
  18.2329082  26.1615677  61.0152283  19.0926838  25.9233055  62.2379303
  44.5715904  53.8516197  64.7661667  44.1555405  53.9988518  63.9167824
  44.0609589  54.3817444  65.3780975  72.3819962  52.0058250  24.5403442
  72.9557800  51.7777824  23.8089046  72.3449707  51.2110596  25.0725193
  58.6849098  54.0570068  77.8797913  58.9790459  53.1909027  77.5976944
  57.7420006  53.9584770  78.0118561  85.9827499  29.5411320  36.5704765
  86.6245804  29.2360992  35.9291992  85.2222443  28.9756851  36.4357834
  38.1408386  69.5984802  87.2388916  38.5173035  68.7990112  87.6067963
  37.2336197  69.5985260  87.5441589  69.8833084  39.9788780   7.6191425
  70.6617355  39.6304436   8.0537453  69.1831970  39.3717499   7.8588648
  53.2830658  11.1159773  67.7053757  52.4702187  10.7075243  68.0031586
  53.7079544  10.4435225  67.1729202  30.9148216  28.1701889  67.8259583
  30.3318729  28.0665779  68.5780640  31.5983849  28.7657566  68.1330032
  28.7141247   3.2955935  60.3323860  29.4301338   2.6812155  60.4939537
  27.9405823   2.8620267  60.6927795  28.2659397  63.6002617   5.9892526
  27.5963039  62.9162941   5.9876227  29.0327282  63.1856766   5.5937972
  81.6869431  29.0529575  17.9377899  81.4639816  29.8200436  18.4651432
  81.5536499  28.3103619  18.5268707  58.3310280  18.5310993  10.0764885
  58.7960815  19.2765598  10.4562845  58.0401344  18.8418331   9.2191343
  51.9681702  17.7589417  74.9996109  52.5265961  18.4407291  74.6260376
  51.0800056  18.0124817  74.7483826  31.5955029  63.4699440  70.9959030
  31.5077057  62.5246658  71.1182938  30.7200336  63.7607193  70.7404938
   9.6061010  64.0012131  73.8744049   9.9584856  64.0858078  74.7603531
  10.2579851  63.4796715  73.4061432  84.0219193  32.8139877  15.7284765
  84.3098679  31.9304562  15.9580154  84.7536087  33.3773766  15.9803724
  24.5439835  39.4037476  61.0896111  25.2915230  38.8168106  60.9759407
  24.4749641  39.5230026  62.0368423  79.0930786  36.1402550   8.3488150
  80.0026245  35.9672318   8.1058664  78.8383408  36.8870544   7.8069363
   4.5878863  27.5269127   0.1388567   3.8343537  27.0613937  -0.2240648
   4.4503198  27.5038033   1.0858377  66.1722412   4.6147313  34.3820877
  65.8661346   4.8759713  33.5135918  65.7798920   5.2540851  34.9766655
  26.8685360  53.7281685  32.3778648  26.4078217  53.7983208  33.2139587
  26.2970943  54.1724167  31.7515030  60.4084435  37.2991600  23.2570305
  61.0600624  36.6151352  23.4110813  60.7794266  38.0802002  23.6676140
  73.2252274  17.8049965  23.9633732  73.6151810  18.4112282  24.5931797
  72.4943619  17.4062691  24.4356823   3.0952914   1.9468632  41.5490646
   3.8350563   2.5340912  41.7044449   3.0425432   1.8750751  40.5960197
  75.3938828   0.9174629  28.0233688  75.7562637   1.4409269  27.3085957
  76.0755234   0.2745048  28.2188244  59.5410347  33.5442924  11.8607454
  59.8991241  33.6664200  12.7399998  60.1861801  33.9491806  11.2810163
  72.4100647  53.6808548  59.5865974  71.6113586  53.6157990  59.0630760
  72.1421967  53.4149017  60.4662285  41.6279755  55.7754288  38.2099152
  42.1929359  56.5295296  38.3783760  42.1915245  55.0160637  38.3582840
  66.6425934  32.8917313  35.2260857  66.5177002  32.8114891  36.1717033
  67.4991608  32.4967461  35.0632515  39.8866920  36.1365814  17.9170265
  39.8128319  37.0246735  17.5676441  39.0673447  35.9970818  18.3918362
  53.1817398  13.8973742  73.4564056  52.7635422  14.2930031  74.2211456
  53.1835823  12.9585962  73.6432953  58.8338165  55.1454887  48.6079483
  58.8216934  54.4493790  49.2648468  59.2382469  55.8892593  49.0545731
  55.4328804  32.4919930  54.7845573  55.3181190  32.8419647  55.6680603
  55.9497032  31.6957588  54.9076004  82.6436539  66.0735779  16.0392838
  82.3336334  65.2237930  15.7262535  83.5884476  66.0548401  15.8868361
  74.5814438  21.3503876  22.8076057  75.4359207  20.9197369  22.8329144
  74.7451096  22.2278137  23.1533928  77.1495590  47.5779419  38.0488663
  77.7599411  47.0970726  38.6078186  76.5089569  47.9477539  38.6564064
  40.4002800  54.8979759  76.7461700  40.5498657  55.6783333  77.2799225
  40.3314781  55.2297096  75.8509293  62.9665642  52.1414223  17.4672699
  63.1840706  52.2660370  18.3910637  63.7845917  52.3180580  17.0026646
  56.0833664  69.8097687   8.9134665  55.7065430  68.9478912   9.0906744
  56.9359474  69.7924118   9.3482494   2.5568571  32.4927902  12.0935192
   2.1342769  32.8660088  12.8670607   3.4858098  32.6932869  12.2078867
  19.5000782  22.4036026  66.7787323  18.8187656  22.6016884  66.1362305
  20.1545658  21.9063339  66.2882233   5.3398228  25.1865845  39.6403236
   4.9514203  24.3756313  39.9685440   5.4496117  25.7319679  40.4192543
  74.0804596  69.7272568  60.2748375  74.5502167  68.8955994  60.2124481
  73.4179001  69.6803894  59.5855980  46.6099129  41.5027657  48.6077690
  45.6554756  41.5745316  48.5963211  46.9163551  42.4021721  48.7235069
  80.0522461  23.8737564   2.7274828  80.3355789  23.2720146   2.0391083
  79.0979462  23.7994576   2.7326891  42.9815292  65.7634659  16.1054420
  42.1414223  65.4552078  15.7656946  43.4600449  66.0574036  15.3302956
  40.3899841  55.1523781  40.6701012  40.2552261  54.2047768  40.6590805
  40.6481171  55.3680267  39.7739449  73.8515549  37.0136642   6.7049670
  73.5608368  36.8132706   5.8152723  74.3677368  36.2509270   6.9657803
   6.2159700  50.5002174  49.9509659   7.0476990  50.4212990  50.4181175
   5.9799018  51.4238930  50.0365486  29.7133121  18.2405491  54.1349449
  29.0380096  17.8783302  53.5613632  30.4864292  18.3174820  53.5758400
  71.9172211  60.5269165  67.6786118  72.2183914  61.4225349  67.8315506
  72.3645020  60.0065575  68.3459930  72.7026062  16.1253624  69.2736588
  72.6492081  16.2036304  70.2261581  73.6266098  15.9461613  69.0994873
  37.0518150  36.1535378  18.8412952  36.3317223  35.5236397  18.8107929
  36.7622986  36.8754883  18.2834415  71.1458435  41.6997986  11.3108692
  71.8399048  41.8530121  10.6697454  70.3349686  41.7669945  10.8066912
  73.3094101  50.1487923  55.4409714  73.3211975  50.8547859  54.7946968
  73.8812256  50.4577713  56.1436768  43.5769196  51.3468208  11.0019636
  42.8052597  51.2372360  11.5576315  44.2797127  51.5751648  11.6103821
  80.5237961   3.1422260  69.6663437  80.0923615   3.6005564  70.3874741
  81.2184448   3.7378654  69.3854523  24.7528591  26.8282337   9.4951735
  25.6776676  26.9207954   9.2662811  24.5802021  25.8897667   9.4196739
  46.3896027   9.3781548  49.1043015  45.8876953   9.8421354  48.4341965
  47.2890587   9.6824579  48.9834404  48.9614143   7.3382916  52.1303368
  48.3970490   6.8916311  51.4992905  48.8623581   6.8349767  52.9384804
  74.9070206  62.4617996  44.8770218  75.7159195  62.9364662  45.0683327
  74.2677994  63.1469269  44.6814880  46.8278008  17.4360752  13.2628870
  47.0854797  18.1766014  13.8119345  45.9590225  17.6706676  12.9366560
  44.0643616  35.8722038  88.8246689  44.3793297  35.1190262  89.3244171
  43.1210251  35.7300682  88.7462463   4.8257813  41.7828522  50.6431389
   4.6862111  41.0757065  50.0133018   4.8583694  41.3436661  51.4930153
  70.3331680  54.9576416   1.7527835  69.6060638  55.5118942   2.0362556
  71.0635376  55.2142029   2.3157794  19.0262299  15.2217455   4.9080930
  19.4067497  15.8733225   5.4970608  18.5784950  15.7375402   4.2374811
  80.6513596  66.9794998  65.1570053  80.3835220  66.1977692  65.6401062
  81.5825806  67.0766983  65.3560104  82.5489883  66.8106995  45.6177521
  83.3990479  67.1730270  45.3680458  82.0771942  66.7146835  44.7904549
  16.5788326  34.3808746  61.0400581  17.0611572  33.6044998  61.3243713
  16.4063072  34.2287254  60.1109085  63.3412590  28.6383038  75.6476593
  63.7271614  27.8023491  75.9093704  64.0922546  29.2137012  75.5022202
  72.9599609  15.2226028  64.5335541  73.5891953  15.6541739  65.1115112
  72.1725159  15.7638788  64.5900040  39.7945786  69.0076675  20.6023521
  40.1657372  68.2363968  20.1738377  40.2472839  69.0549316  21.4444084
  41.2806587   5.5126681  88.9038544  40.9431839   6.3968978  88.7607498
  40.8168755   4.9727931  88.2638016  49.1621513  62.1442566  39.6903763
  49.0952759  62.1580734  38.7356148  50.0658951  61.8805275  39.8633766
   8.4887161  66.2471695  40.2029381   8.9836473  66.7612991  39.5650101
   7.7152505  65.9506760  39.7232780  28.4798508  67.0428925  89.1145706
  27.6109734  67.2922592  89.4293823  28.7498035  67.7708740  88.5547485
  37.5081406  31.7124119  85.2820129  37.4278679  30.8200188  85.6187973
  37.4682198  32.2669640  86.0611877  81.4867096  61.6284676  34.9368553
  82.1452026  62.1415329  35.4052391  80.9576187  61.2298889  35.6278191
  35.5662689   1.7636956  77.0448608  35.5963097   0.8626829  76.7231369
  35.4770432   1.6763051  77.9938736   9.0502634  30.3631992  75.5159149
   9.6762552  30.3483105  74.7919312   8.6080914  31.2080784  75.4328766
  63.1573143  49.1451302  62.5881882  63.5741806  48.2906837  62.6994438
  62.7576523  49.1053276  61.7193298  30.5723152  56.0916977  60.3488350
  31.0634747  56.0850487  59.5272789  29.6752300  56.3024368  60.0898705
  60.9779205  68.6613159   7.2753210  61.7624359  69.2082901   7.2353740
  60.9604797  68.2057190   6.4336820   5.1188745  35.2765961  48.0975342
   5.8013148  34.6364136  47.8958473   4.4393468  35.1166534  47.4426346
  15.4327202  66.9408340  10.3423729  14.9356232  66.8638992  11.1567478
  15.1106024  67.7476425   9.9404526   3.7193427  57.0964394  31.7151184
   3.4825606  56.2807808  31.2736835   4.3359561  56.8295479  32.3968735
   7.1609836   1.6514037  26.5154839   7.7742548   1.1459260  25.9819832
   6.8572092   2.3491700  25.9349022  82.9995499  56.8937645  17.2811661
  82.5848312  57.6735001  17.6502838  83.8254089  56.8131065  17.7583351
  63.2300949  37.8664322   1.1591588  63.9203339  37.5798073   1.7571956
  62.4612923  37.3594131   1.4201336  78.8714142   1.0363147  80.3877640
  78.4723282   1.9060326  80.3642502  78.5214844   0.6336267  81.1825104
  71.4738922  25.6303272   5.3088622  70.6208191  25.3100491   5.6019936
  71.2745972  26.4271984   4.8174291   3.1267805   5.3468852  45.3728218
   3.9743612   5.0194120  45.0718231   3.1841767   6.2960801  45.2634277
  43.6417923  25.3309898  31.5422421  43.0316238  26.0398464  31.3386574
  43.7346992  25.3610153  32.4944496  25.8453159  61.0135880  58.5884743
  26.0239124  60.8419685  57.6638756  26.1800156  61.8979912  58.7369232
  52.6006660  40.6223145   2.5125573  51.8868065  41.0514297   2.0408576
  52.2687950  39.7448235   2.7025609  65.3426895  17.1834450   9.1411724
  64.8628082  16.6134014   8.5403452  65.2234802  16.7798328  10.0008926
  80.3570709  69.3481750  30.9487724  80.9783401  69.1277084  31.6427841
  80.5252304  70.2716446  30.7612572  23.5263405  66.6738739  19.1279316
  24.4309063  66.5291519  19.4055080  23.0142879  66.6025925  19.9335079
  78.9114380  70.8398972  14.3306465  78.2672882  70.5226364  13.6976805
  79.6401367  71.1526260  13.7945223  63.0521927   5.3813119   6.9551644
  63.0342293   5.4196362   7.9114285  63.8358231   5.8735003   6.7104115
   3.5996497  24.8255730  66.2456131   2.6671185  24.6256561  66.1640625
   3.8108368  25.3122540  65.4488907  55.0865479  69.7461395  70.2262268
  55.3312302  69.9993210  69.3361359  54.8836441  68.8128586  70.1625519
  21.0954361   0.4636385  87.4291153  20.2993069   0.5378491  86.9029007
  20.8150768   0.6772000  88.3190765  42.6343002  34.0274391  14.3549604
  42.6332664  33.8563652  15.2967482  42.2203140  34.8859940  14.2670307
   5.0007381  61.4496460  72.7357025   5.5332861  60.8821297  72.1784286
   5.6314778  62.0380821  73.1506042  61.9410172  18.9858322  78.3922729
  62.5199127  18.4632931  78.9473114  62.4399376  19.7816944  78.2081146
  11.0402908  22.4079170  71.8178406  10.3814278  21.9193096  72.3111954
  10.8051882  23.3264923  71.9489059  75.2496414  66.1517029  57.1460838
  74.9916916  66.5349808  57.9844093  76.1375504  65.8264236  57.2945328
  19.7372780  67.0720749  89.4015198  20.3180180  67.7945099  89.1626358
  19.2426758  66.8882523  88.6028900  53.0472946  36.2641830  57.0383987
  52.5559082  37.0841255  56.9887466  53.1219864  36.0861130  57.9759178
   5.3366237  13.1098528  44.9397659   5.9897342  13.2681046  45.6214066
   4.5245247  12.9466181  45.4194336  80.2047729  47.9594078  55.6407852
  79.5166473  47.3893051  55.2977066  80.6379700  47.4338989  56.3134003
  49.7488670   3.1966813  37.3286133  49.8770218   3.9765956  36.7886658
  49.8038940   3.5169966  38.2289467  53.9268074   8.8510752  82.3965530
  54.3901100   9.3663826  83.0568848  54.6197739   8.4989653  81.8379440
  74.1158218  60.1090660  35.7864304  74.3119736  59.1803551  35.9099426
  73.8606033  60.1796875  34.8665924  62.9415398  45.6959496  20.9155159
  62.0016212  45.5816765  20.7750473  63.0034866  46.4024467  21.5583649
  64.8762283  49.8590813  24.5710201  65.3747635  49.1652985  24.1393280
  64.5430298  50.3970070  23.8527966   3.5457160  60.7650757  11.7851763
   2.6159499  60.6647911  11.9894066   3.8943670  59.8740425  11.8123388
  71.3932419  47.3427467  24.6223850  71.4979706  46.8999214  25.4645042
  70.9833374  46.6881790  24.0569191   4.1329260  16.1541710  66.7521439
   3.7119915  15.2947502  66.7311707   4.2597566  16.3360882  67.6832962
  46.8078194  37.2537155  87.9645767  46.5494423  37.3380623  87.0467834
  46.0660286  36.8168449  88.3830566  38.2919388  52.4124832  74.6690292
  39.2491188  52.4064255  74.6697235  38.0582962  53.3407288  74.6701736
  39.1772957  13.4440813  80.1230087  38.7302895  13.9826813  80.7759476
  39.7713547  14.0494022  79.6792679  17.3589687   1.4117966  45.0874100
  17.8121586   0.8612493  45.7259636  17.8424225   1.2802166  44.2718163
  48.8968277  12.7060881  52.6633873  48.8898659  12.5573225  51.7178421
  49.3632622  11.9507113  53.0212631  18.1273270  43.8485222  49.4310150
  17.7918854  44.6082840  48.9551201  17.9161701  44.0274925  50.3473206
  50.1194572  66.5927734  20.1881580  50.3785286  67.4886246  19.9723892
  50.1550980  66.1255188  19.3535080  77.9316483  12.4167604  83.0710220
  77.7839737  13.3500719  82.9181976  78.7669525  12.3795757  83.5369720
  70.2522812  48.1191406  73.4549026  69.8283157  48.6835098  72.8083954
  70.0277710  48.5110397  74.2988510  77.1600494  50.7037010  63.8284073
  76.2363739  50.4764938  63.7215118  77.6277542  50.0639572  63.2915497
  85.9558640  61.0653114  53.8736458  85.5187759  61.9146919  53.8124962
  86.8895645  61.2734795  53.8403969  84.3767471  12.4920979  34.6652603
  85.1424026  12.3989925  34.0984001  84.7289963  12.8245144  35.4908829
  40.1447487  12.2164011  84.1872940  40.1789627  13.1337042  84.4586182
  40.8070717  11.7826462  84.7252655  72.6439133  45.8737297  78.0112762
  72.6692276  45.4474754  78.8679581  73.1401443  46.6833344  78.1318283
  48.8712883  12.1083498   1.2002838  48.8697586  12.7322435   1.9262217
  49.3214340  11.3381805   1.5473285  30.0692940  22.5724659  83.4044266
  30.3340988  21.6778316  83.1905594  30.7588806  23.1219082  83.0318451
  53.8507690  30.7692909  75.3371277  54.2352829  29.8927174  75.3382721
  53.6731911  30.9541378  76.2593689  44.7267303  59.6128082  58.7099190
  44.5299454  59.8437614  59.6177559  44.2890129  58.7720909  58.5763817
  35.6998901  20.5173588  87.4641418  36.2761078  20.3558826  86.7170639
  35.5035172  19.6458740  87.8079224  78.2296295  15.9755402  85.2266083
  78.8816910  16.6761799  85.2388535  78.1673660  15.7223635  84.3056030
  65.6411819  24.8084297   1.7616351  65.6372452  24.9541492   0.8156001
  64.7383575  24.9738865   2.0332148  19.7857742  44.2447319  86.7175369
  19.3668842  43.9368973  87.5212784  20.0152245  43.4443512  86.2453384
  36.7236328  66.6519318  68.4494553  37.0413589  66.1527252  67.6970749
  36.9720459  66.1247940  69.2088318  53.3254547  71.0978546  72.3151550
  53.8238335  70.4582901  71.8064117  52.4248428  70.7746048  72.2899017
  39.6296768  51.6830025  44.8099747  40.3255806  51.6385231  44.1542511
  39.7366753  50.8847771  45.3272972  44.5879440   6.5861616   0.9892195
  45.2884293   6.5778794   0.3369258  43.9163170   6.0084248   0.6267759
  72.2786636  34.2597694   0.0644725  71.4530716  34.7437592   0.0841797
  72.7443237  34.5484505   0.8493623  13.0352612   6.2497835  64.3095169
  12.7701864   7.0812607  63.9163094  13.9919043   6.2818727  64.3155212
  78.0559998   1.6085571  53.9174118  77.3695297   1.6782371  54.5808372
  77.6134033   1.2407914  53.1525002  56.5586014  66.0933685   4.1625352
  56.5768623  66.2954712   3.2270930  56.8515968  66.8994598   4.5874963
  38.1649323  60.7884674  46.0346718  37.3958359  60.4083672  46.4592247
  38.8906021  60.2262840  46.3059349  11.9835005  65.1675186  49.5093689
  12.8475094  64.8161697  49.7244835  12.1525126  65.8188553  48.8286095
   4.3624849  35.5050278  13.2036800   4.4094071  35.1746254  12.3065367
   5.2275028  35.3237114  13.5712414  40.4376869  44.5395699  51.3408585
  40.9537506  43.9925499  50.7486763  40.6909370  45.4360085  51.1206322
  71.1135788  19.9294567  53.9706993  70.2249908  20.0006676  53.6220245
  71.1666107  20.6178551  54.6336670   3.1247115  48.6719627  11.9825439
   3.4466238  49.1658974  12.7366209   2.1969609  48.5278702  12.1689529
  75.2016144   4.8660479  77.3383942  76.0037994   4.3475857  77.2756882
  75.0752563   4.9991159  78.2778397  63.7214622  27.1855011  35.9865570
  62.8756256  27.4142456  35.6012459  64.3227768  27.8540955  35.6584740
  45.9124260  25.3971043  78.1194000  46.0586853  24.7780590  77.4041214
  44.9757309  25.3314457  78.3052063  22.0403347  50.6968193  53.7145233
  21.9072914  50.0726166  54.4278984  22.4157181  50.1742020  53.0058708
  47.0955963  10.4242954  25.3344631  46.3688087  10.8633595  25.7763138
  47.1369705  10.8381891  24.4723663   0.0814877  66.4183197   1.6762869
   0.0649756  67.3744125   1.6332049   0.3042978  66.2233963   2.5865571
  15.0131903  37.1166840  66.9076996  14.7659168  38.0278816  66.7502060
  15.7678967  37.1712151  67.4939423  57.2486382  17.6927204  17.8571339
  57.5808258  17.0685539  17.2119179  57.8437538  18.4399376  17.7960091
   7.0763688  71.0684814  19.9002590   7.8345776  71.6500320  19.8441677
   6.4298325  71.5655289  20.4014244  83.7057266  22.2677879  77.1174850
  84.0544128  22.5614624  76.2758179  83.7640762  21.3130684  77.0809250
  47.2028046  56.0906143  12.6002369  46.6180725  55.7100906  13.2556143
  48.0455894  55.6638565  12.7545824  14.8440371  60.6667175  79.1509247
  13.9897051  60.9486885  79.4777908  14.6474152  59.9328232  78.5687103
  79.9496841  39.6768150  11.4205856  79.7672882  39.8187485  12.3494654
  80.6353149  40.3111763  11.2114697  22.9221134  53.9604263  23.9445515
  23.5517044  54.0993462  24.6520462  23.4340630  53.5554848  23.2444363
  -0.0460497  61.5018120  60.9514771   0.1673181  61.1601868  61.8198090
   0.7929229  61.5273972  60.4913635  17.2932453  56.2621918  53.8265686
  18.0309219  56.0409279  53.2581444  17.4113636  57.1919060  54.0212822
  56.8574295  48.8054390  23.8675156  56.0281296  49.0994797  23.4906425
  57.5270348  49.1847038  23.2982903  77.9649734  61.8829651  11.8960180
  77.3038864  61.2197418  11.6976919  78.1575851  62.2893295  11.0510321
  10.0951996  13.1548920  69.0831757   9.3124847  13.1246586  69.6333313
  10.7271061  12.5954056  69.5347290   7.8073568  17.2268963  87.6557083
   7.6391277  18.0030975  87.1214371   7.2555833  17.3442268  88.4290237
  10.6537123  56.5380478  26.4537258  11.2703733  56.7654839  25.7578564
   9.8427696  56.3212929  25.9937038   9.3320837  54.6463470   7.7723804
   8.9472094  55.4174042   8.1890020   9.6465082  54.9634285   6.9257236
  63.1610336  43.0894394  68.3792572  63.6767693  42.8489723  67.6095657
  63.4247513  42.4600182  69.0504608  10.9028234  66.9083023  11.7937384
  11.0720835  65.9671936  11.7501984  10.8232813  67.1799088  10.8793344
  59.5671654  54.5764122  46.1484032  59.1938019  54.7832108  47.0051804
  59.0203285  53.8654556  45.8141212  15.3389864  58.9567108  69.8533630
  15.1644049  59.6729393  69.2428131  15.3395758  58.1708717  69.3068390
  31.0416756  68.4079514  37.3740387  30.4182243  68.3080902  38.0934601
  30.4996872  68.6269836  36.6160812  61.6341133   3.1360989  58.7953339
  61.7532272   4.0670075  58.9836197  60.9044762   3.1083722  58.1763878
  52.9240417  11.4011192   1.4718425  52.8339310  11.9888239   2.2219865
  52.0620918  10.9949083   1.3809282  25.5528164  24.5744114  69.5787811
  24.5995026  24.5593967  69.6636200  25.8725319  24.6318455  70.4791794
  25.5800648  35.3724327   1.0522326  24.6700649  35.4498291   0.7656269
  25.7305679  34.4295502   1.1196742  33.4657440   1.7344933   4.5078683
  33.3902512   1.5332054   3.5751219  34.3097191   2.1786528   4.5894990
  57.6758690  28.9650841  43.3051071  58.0495186  29.0161381  42.4253273
  57.5554886  29.8777046  43.5675278  18.5268745  28.9038868  14.1789274
  18.6802864  28.1374054  13.6264753  17.5773411  28.9274750  14.2975082
  80.5854950  42.3469162  43.0492630  81.3972778  41.9512253  42.7319717
  80.2812729  41.7523537  43.7349586  62.3789482  58.5826683  17.4273014
  62.1209641  58.2372055  18.2818947  61.6250458  58.4124031  16.8626156
  63.9908867  14.7506647  14.6242666  63.3250694  14.3872290  14.0404596
  64.7622833  14.2031174  14.4780674  28.7578678  56.8183441   5.4080372
  29.1541786  57.6592636   5.6361232  28.8883858  56.2736664   6.1842589
  64.5710373  32.6781540  65.8044434  64.4810638  31.8294582  65.3710251
  64.8719482  32.4652596  66.6878204  86.2855072  26.9950275  31.9822330
  85.8209381  26.2298050  31.6433449  86.8522034  27.2698059  31.2614136
  32.8805122   6.0966439   2.2163384  32.8150291   6.3844690   3.1268880
  32.5709114   6.8447962   1.7058004   3.4521611  16.7530460  35.8324890
   2.9823594  15.9908476  36.1709747   4.3496647  16.4448872  35.7069626
  26.7348480   8.1456909  15.6885738  26.6752853   8.3154840  16.6287098
  26.4220448   8.9524117  15.2791986  59.2194595  54.7828255  60.9535065
  58.8364525  54.0724869  60.4387665  59.6329384  54.3439331  61.6969032
  10.4304533  71.5549164  27.6729736  10.2415524  71.6043777  26.7359028
   9.6255999  71.2125015  28.0618057  49.9830208  32.5636330  38.4959641
  49.1672401  32.2542000  38.8896484  49.7961235  33.4654541  38.2351608
   2.9542685  62.2918930  40.0010948   2.6948564  61.4765549  40.4302368
   3.3895185  62.0109482  39.1961975   2.2209260   2.1875827   3.2820058
   2.7904682   2.2215133   4.0505776   2.4593315   1.3710357   2.8430920
  44.1407967  48.5888977  85.2462921  43.4590607  47.9538689  85.4658508
  44.0060005  49.3080254  85.8634720  26.9233761  56.7702065  79.8928146
  27.3501892  57.4983902  80.3442688  26.2283611  56.4927292  80.4896317
  14.2289009  47.2527771  56.7751961  14.0633554  46.6867409  56.0212555
  13.4606113  47.8218956  56.8207016  81.0932388  52.1384163  40.5714607
  80.4271088  51.7538185  40.0017395  81.8459854  52.2808266  39.9975967
  51.6414490   5.6308885  62.9127617  52.4717216   5.3528762  63.2995224
  51.8942680   6.2071347  62.1914749  35.0984001   1.7216796  19.1195526
  35.2769890   1.4783670  18.2111816  34.2778282   2.2128553  19.0790482
  65.5648956  63.3768005  65.9588165  64.6182938  63.4883003  66.0467911
  65.9379578  64.1404724  66.3991165   2.5834877  28.7663155  74.1238861
   1.8920294  29.1861305  74.6356201   2.3238204  27.8460579  74.0799713
   6.3771844  54.0078087  62.0215759   7.0378432  53.3375053  61.8470573
   5.9121528  54.1077614  61.1909218  84.3673248  56.9220695  72.4141235
  83.9168091  56.5186501  71.6721573  83.7456436  57.5681229  72.7493210
  61.3872490  54.9621773  31.0990295  61.0461388  55.7473640  31.5272293
  62.0036278  54.5930405  31.7315197   3.2073321  29.2512665  67.0208588
   2.8221307  30.1034832  66.8169556   3.9352436  29.4520187  67.6091461
   2.7123346  11.9680281  83.9390182   2.6164598  12.7643909  83.4166718
   1.8268372  11.6084566  83.9922562  20.2603798  25.1144123  75.6001816
  20.2756500  24.1577301  75.5726700  20.8344727  25.3421841  76.3314590
   0.4483565  50.8066711   2.2003732   0.1489764  49.9876518   2.5950966
   0.1686494  51.4850578   2.8150170  46.2086296   2.8187501  57.3294983
  45.5306587   2.2308161  56.9964485  46.3084488   2.5726469  58.2491188
  70.8790054  50.6245079  57.8277512  70.8715363  51.5629578  57.6393700
  71.6940994  50.4833794  58.3093567  76.9225769  30.0069923  63.8661385
  77.4394836  30.7807121  64.0906372  76.2980423  29.9189968  64.5861740
  45.4764061  54.8153191  81.8676224  45.2374001  54.0917816  82.4469376
  45.2552261  55.6030273  82.3644409  34.6210594  44.5358887  76.1818848
  33.8909454  45.0584831  76.5136337  35.1964989  45.1713943  75.7561646
  78.4110107  18.9105587  20.1710987  78.1607437  18.7103767  21.0730572
  78.7873611  18.0949726  19.8403301  42.0264320  63.5655556  86.0585938
  41.1312485  63.7866783  85.8017120  42.5570145  64.2889328  85.7247772
  12.3233166  42.5652275  45.7275734  11.8130875  42.3753662  44.9402695
  11.6812630  42.5546227  46.4374237  69.5236588  50.4302635   8.6055746
  69.7876892  50.4368362   9.5256157  68.7573318  51.0028572   8.5722189
  37.3019295  63.7589760  69.1575012  36.6630898  64.0484848  68.5061111
  36.9343605  62.9483566  69.5096664  74.5657272  14.8661814  39.9650650
  74.5109863  14.0000277  40.3688164  75.0000000  14.7123175  39.1260414
  24.8388958  68.3510742  70.5072021  24.6376762  68.5955582  71.4105148
  25.1531315  67.4489441  70.5675659   6.3384771   3.7663534  24.7580032
   5.8491416   4.2346010  24.0815964   7.2446823   3.7788224  24.4499950
   6.9060917  57.5581894  17.3629189   7.1671338  58.0754089  16.6009655
   6.1577883  57.0445862  17.0588017  29.2216988  69.4949341  35.3436775
  28.4148655  69.3520050  35.8384666  29.4401932  68.6336288  34.9878044
   3.3100848  29.3513927  60.2766190   3.6882408  30.1515808  59.9120293
   3.5534151  29.3715916  61.2021523  23.5721588  38.2092133  86.0554810
  24.3332062  37.6317902  86.1156769  23.9257965  39.0389404  85.7349701
  74.4030533  31.3800468  49.3480988  74.3629074  31.3529072  48.3921280
  73.6030960  31.8366318  49.6085472   5.9406586  47.3385811  20.2079239
   6.8806720  47.1604729  20.2376614   5.8796368  48.2905884  20.1292515
  59.2426567  46.5844803  85.7499313  58.5553665  46.3765411  86.3828812
  59.2213936  47.5387459  85.6781311  14.7257442  49.1478653  36.7702980
  15.0957756  48.2732353  36.8900146  14.3710432  49.3774872  37.6291885
  75.8167725  54.5058823  66.5021515  74.9651184  54.0938797  66.3566666
  75.7631912  55.3386612  66.0332718  23.9748325  35.9441757  83.7633133
  24.3282146  36.0680656  84.6442261  23.0298843  35.8642387  83.8933716
  13.0662766   9.7587605   4.5557408  12.4607286   9.0656719   4.2927356
  13.3335371  10.1682863   3.7328846  14.9802046  38.9657707  19.8240738
  15.0294323  38.9849625  18.8683338  14.6552181  39.8333778  20.0646362
  68.5104828  31.7153778  28.0159740  68.1033859  31.7013130  27.1497726
  68.1906738  30.9210987  28.4438496  29.5093365  67.2779770  45.0763817
  30.2917328  67.3227081  44.5267563  28.7819424  67.2427216  44.4551849
  15.0070314  56.3562012  72.6279373  14.9340334  55.4881287  72.2312546
  14.3552151  56.3547974  73.3289108  12.1720095   2.2545083   3.5920570
  13.0491953   1.8831598   3.6862762  11.5840321   1.5035440   3.6730933
  14.5520058  70.6069031  12.3279114  15.1914740  71.2346878  12.6643658
  15.0684252  69.8293915  12.1157351  12.8344278  46.2539673  24.4485207
  13.5377874  46.8856964  24.2987270  12.2478008  46.3668633  23.7006207
  31.9490681  55.8477707  57.9644356  32.5004768  55.3103981  58.5331230
  32.4910469  56.0144119  57.1932526  83.6309128  71.1537018  20.4023476
  84.3904953  71.6594391  20.6912937  83.1534195  70.9570770  21.2083073
  33.8279839  17.5711994  68.7325897  32.9772530  17.2428246  69.0235519
  33.8737030  17.3309536  67.8071594  56.8034286  35.7472000  12.4955578
  56.9145126  35.4371033  11.5968199  55.8999329  36.0613708  12.5305758
  13.4779530  65.1461563  62.8429871  12.7206736  64.6740952  63.1892776
  13.1749716  66.0493240  62.7495613  24.8218517  28.9913845  64.9855499
  25.3633747  29.7176056  65.2947235  24.2211246  29.3913403  64.3567505
  29.4301777  18.8611774  64.4421921  30.2320156  18.5917645  63.9941940
  29.5311432  19.8047943  64.5671844  41.0645866  52.0084724  71.5993042
  41.6169586  51.3871117  71.1249313  40.5622940  52.4525032  70.9160995
  58.2722778  67.9834900   6.8392763  59.1500549  67.6581039   6.6396241
  58.3881989  68.5193405   7.6239128  71.2341309  31.6444931   4.2068453
  71.3732605  31.5984535   5.1527610  72.0712204  31.9487038   3.8561637
  71.2298584  59.0642128  89.2568817  70.9250336  59.9645157  89.3698578
  71.1403275  58.8969841  88.3186646  86.3499451  65.9180298  11.0514040
  85.7670898  66.5201416  11.5139828  87.0731201  66.4683304  10.7507067
  47.9946823  34.4783173  49.2824593  48.0170784  33.5333786  49.4335327
  47.4953499  34.5795479  48.4721184  72.6832428  63.2445755  68.0983429
  72.5307465  63.9605637  67.4816284  73.4986420  63.4795265  68.5412369
  80.2770309   8.6599426  40.7318687  80.4578705   9.4047565  40.1584702
  81.1269608   8.4389343  41.1126709  82.9799652  50.4437637  14.3768158
  83.6864166  51.0687943  14.5395994  83.0934448  49.7732620  15.0504484
  83.6841354  41.9616852  40.3577385  83.0103149  42.6197853  40.5283585
  84.0452042  42.2040863  39.5050354  76.7904816  63.4278641  77.1136246
  77.5671310  63.7465324  76.6537476  76.1411133  63.2945671  76.4231262
  44.2540016  29.5903320  11.5304260  44.8622856  29.9142971  12.1947069
  44.7502556  28.9231510  11.0562592   7.5580330  18.5499592  71.8460464
   7.2152872  18.2905445  72.7013016   6.9589872  19.2332191  71.5451660
   8.1841803  26.7866688   1.3972795   9.1395864  26.7453804   1.4388242
   7.8914261  25.9680843   1.7978371   1.1714169  15.2866602  51.6410637
   2.1033342  15.3811131  51.4439850   0.7362596  15.3860989  50.7943153
  23.8282356  31.0856590  18.3898830  24.2202663  31.7067432  17.7760448
  24.0622234  30.2251167  18.0421066  79.1124268  41.8753853  53.3300629
  79.9419937  41.7866020  53.7992744  78.5239639  42.2907677  53.9604568
  18.9912109   4.2788615  83.3177948  19.2839832   3.5287673  82.8002243
  19.2751198   4.0797172  84.2099609  57.5537491  49.7779999  10.2525816
  57.4344368  50.1456566   9.3768959  57.4313126  48.8359070  10.1355343
  69.8842926  39.3690758  12.5130482  69.4843979  39.7041359  13.3155746
  70.4100266  40.0985184  12.1847963  40.0632324  28.9097309  73.3639755
  40.8062210  29.0024052  72.7676468  39.3107109  29.2172451  72.8586273
   2.0020146  44.9103889  53.1359825   2.5298860  44.5100594  52.4450989
   1.3402823  45.4191208  52.6674385  56.7617722   3.9928927  62.7005005
  57.1559334   4.6874037  63.2282562  57.5056152   3.5551469  62.2866096
  47.6770935  43.6667061  22.2136784  47.2893715  42.9999352  21.6468258
  46.9593735  43.9436989  22.7832241  75.2424011  22.4479408  51.7677803
  74.2887955  22.4470768  51.6848793  75.5544357  22.8138695  50.9401550
   1.9423997  44.1969757  74.0572586   2.3443291  43.3284950  74.0364914
   2.4184151  44.6648407  74.7433701  61.8359261  29.4896393  13.8309278
  62.7233238  29.6484547  14.1526928  61.7733612  30.0136337  13.0323372
  30.2211742  12.0812521  80.2777481  29.5070419  12.7117720  80.3709869
  29.9683990  11.5421762  79.5282593   6.6926522  13.6803675  67.2061691
   7.5832672  13.8066483  66.8789215   6.6321821  14.2597075  67.9657364
  31.6025696  60.0122147   2.3157868  31.3539410  59.8857040   1.4001387
  32.2012787  60.7589035   2.3004329  65.8579941  55.5859604  12.1200380
  65.0819931  55.4513283  11.5760469  65.5780334  55.3400040  13.0017176
  66.5909805  25.3807621  28.6672325  66.3822174  26.1200123  29.2383347
  66.0399399  24.6669750  28.9883137  57.4660034  61.1314240   4.0622683
  57.8202171  60.4421806   3.5003896  57.6063194  61.9390602   3.5680377
  52.9757385  11.8995504  40.4930687  53.0057678  11.5742865  39.5933266
  52.1961975  12.4543009  40.5213127  30.1414604  35.6350670  65.9858932
  30.0969906  34.8324051  66.5055008  31.0496674  35.6765175  65.6864319
  18.6038551  26.6597805  55.1817818  19.2896729  26.6528225  55.8494911
  17.9039459  26.1217175  55.5517120  36.7533073  71.0692062  32.6531601
  37.1379585  71.8755341  32.3094864  36.1090965  71.3661270  33.2958565
  67.2190018  23.6564903  72.7634430  66.6202621  24.1403389  73.3323288
  67.6121063  24.3265781  72.2042618  45.1469803  11.2755527  22.0316906
  44.6778336  10.9494486  22.7996693  45.0164719  12.2235031  22.0559654
  77.6146469  27.2523804  51.6432381  77.2116928  27.9417992  51.1154442
  78.3274307  26.9191494  51.0981483  73.4267197  48.8666191   6.0039849
  73.3980560  47.9324684   6.2107987  72.5515976  49.1872025   6.2222047
  66.3944855  49.6411896  42.7344170  66.9631653  49.2009621  43.3661118
  66.3822021  50.5549240  43.0193253  78.8141479  42.5946770  60.3450050
  79.4735413  42.2280083  60.9340630  78.1519623  41.9076385  60.2694130
  61.4916344  54.7093658   9.7720976  61.3871117  53.7808113   9.9796839
  61.8075867  55.1025658  10.5856066  57.5790062  41.4173965   7.6282716
  57.6888847  40.8565178   8.3961086  57.4043083  42.2864380   7.9894958
  51.3904381  26.7258282  13.4381266  51.4338455  27.4566307  12.8214636
  51.9042549  26.0323467  13.0242329   3.0705059  34.2061691  78.8523788
   3.7112255  34.5571938  78.2339172   2.3135457  33.9814453  78.3113174
  42.0641441  18.9223022   0.9580579  41.5310555  19.0206013   0.1691427
  42.7238007  18.2702236   0.7216678  72.6235199  53.9725609  50.8850212
  73.5781326  53.9496040  50.9515495  72.4524994  54.1970749  49.9703751
  60.2760201  19.2829666  19.0555649  59.8773727  19.6678658  18.2750740
  59.6208649  19.4028416  19.7430496  69.4668045  32.5234070  61.6842270
  69.8357773  31.9257927  62.3345718  69.9783401  32.3604507  60.8917503
  69.1247177  37.5215302  39.5503311  68.6583633  37.6184807  40.3806000
  69.0789337  36.5850029  39.3578453  55.6923828  60.0456581  26.1963978
  55.9947319  60.9274025  26.4139919  56.4599800  59.4895477  26.3296833
  59.0636101  59.9759979  24.1532440  58.6742592  60.2361031  23.3183880
  59.8673401  60.4923096  24.2138786  19.0939884  54.7900467   9.6328602
  18.9416180  53.8473587   9.6988430  19.3258209  54.9315300   8.7149992
  78.4633408  23.3870792  48.1684074  77.6229477  22.9861755  48.3903313
  79.0408096  23.1501198  48.8940811  85.0468597  11.6337862  23.9434319
  84.7984390  12.5573893  23.9818497  86.0039139  11.6435442  23.9298954
  86.3848648  42.4366341  70.0504761  86.5917664  41.9948959  70.8740616
  87.2379303  42.6383324  69.6659851   5.7133455  58.5462570  61.6539154
   6.6267805  58.4033356  61.4060402   5.7607627  59.0918159  62.4389954
   2.8555071  64.1762695  67.3092422   2.2080157  63.9893875  66.6294937
   3.5283890  63.5060463  67.1898346  64.0029907  21.7112122  53.8596191
  64.7716293  21.8571243  54.4111099  63.6679497  20.8583870  54.1365089
  15.4085007  46.6745872  77.2090607  15.7399235  45.7844353  77.3274536
  15.3336687  47.0224686  78.0976562  51.4719543   1.3710120  63.0374107
  51.5943832   1.4426912  62.0907822  51.8258247   0.5099727  63.2601624
   2.2323608  20.3135605  45.7771454   1.7501612  19.4963589  45.6510735
   3.0599904  20.1768818  45.3160820  78.0341187  27.5311565  67.7100449
  78.2308578  27.9547520  66.8745270  78.1091995  28.2321453  68.3575134
  49.0142441   1.4734648  77.8354263  49.5955734   0.7727591  77.5399628
  48.1446838   1.0735633  77.8488770  29.6735783  22.9527702  69.3502884
  29.7171574  23.4063625  68.5085068  30.4380913  23.2682190  69.8321991
  70.9381180  10.5989008  29.0578194  71.8401031  10.3730354  28.8305645
  70.5890961   9.8075380  29.4678936  77.8867416  44.9865341   9.5338726
  78.3051605  45.0277405   8.6739540  78.2877884  44.2286415   9.9593048
  76.0812149  50.9310646  11.7205458  76.3812866  51.5872040  12.3495693
  76.1065063  51.3801231  10.8755960  39.4839897  71.3985367  46.2002296
  39.7465057  70.6273727  45.6976051  38.9317665  71.0512772  46.9007225
  10.3554401  37.7116013  44.7371368  10.8923721  37.2364655  44.1029587
  10.0506277  37.0380936  45.3451767   4.8258300  40.0115280   5.6264186
   4.0445919  39.7646332   5.1315036   5.1220512  39.1953049   6.0292411
  17.1145306  10.6465998  80.4732208  16.5709476  11.1241989  81.0998383
  17.5573769  11.3302307  79.9704590  78.9441147   8.6207943  88.2530365
  78.8074875   8.6660872  87.3067169  78.9845276   7.6838350  88.4446259
  74.3032303  67.5200348  53.7517891  73.8102570  68.0474930  53.1233025
  73.8138657  67.6031952  54.5702248  40.2095604  23.4475727  80.5263748
  39.4247360  23.4290371  79.9787064  40.1902390  24.3088760  80.9435272
  67.7811127   0.2435141  24.4552021  66.8409271   0.2612459  24.2764130
  68.0720215   1.1415719  24.2967834  39.5217361  46.5065002  80.3596878
  39.8108406  45.6710777  79.9926453  39.6066933  47.1279869  79.6366577
  71.8447418   2.0630982  88.1960373  72.2527008   2.9254382  88.1175003
  72.2317810   1.6860971  88.9861603  82.9788589  47.0307236  51.1566010
  82.5396652  47.0083923  52.0068016  83.7856522  46.5333862  51.2906570
  51.4847908  51.3697395  69.4372406  51.9261971  50.7666054  70.0352554
  51.1420670  50.8089943  68.7413025  26.4460526   5.4235392  57.9511642
  25.7330513   5.1069713  58.5058212  26.8899536   6.0827336  58.4846840
  18.9596291  20.3451748  70.4976730  19.8171120  20.1725960  70.8864822
  19.0178661  19.9768448  69.6160965  71.4868011  56.2903366  34.8391457
  70.9505920  55.9402618  35.5505943  72.0363464  56.9532166  35.2572594
  80.2304230   4.9387932  67.3321304  80.8852386   5.4246831  67.8334885
  79.5966797   4.6455173  67.9868011  28.7550812  62.8262787  69.7302780
  28.1367950  62.2473679  70.1761627  29.4363003  62.2404633  69.4001312
  26.4026127  33.3294678  69.8420258  25.4779205  33.5107079  69.6737213
  26.7210693  32.9352112  69.0300064  46.0659256  44.7267189  64.4914093
  46.8685226  44.4819527  64.9520111  46.1150093  45.6795616  64.4144897
  49.8949471  54.6506386  19.5277538  49.5964775  54.8710785  20.4101105
  50.3192825  55.4484863  19.2121391  42.5202408  26.6930752  67.9929962
  42.0454140  26.5902386  67.1682587  42.9339943  25.8423290  68.1388474
  21.1483212  12.5439329  82.4454193  20.6762199  11.8641958  81.9644699
  22.0205650  12.5542545  82.0513153   6.7559719  60.0906525  11.3516388
   6.2104692  60.3973045  10.6273308   7.6460013  60.3410034  11.1038427
   3.2831693  43.5461121  60.0934486   2.5145531  42.9764748  60.0621986
   3.5095024  43.6935616  59.1751518  38.2960892   8.3567495  22.3131580
  38.7859001   8.2704849  21.4953098  37.4252815   8.6466751  22.0413723
   9.7059994  11.8286123  20.1999111   8.8325768  11.7169943  20.5752869
   9.6915751  12.7054787  19.8163357  52.8055954  60.1690025  56.6915245
  51.8735085  59.9524536  56.7149658  53.2485313  59.3415413  56.8795242
  18.3964787   8.0691519  12.4056072  17.6317177   7.5440998  12.6415968
  19.0490017   7.4283676  12.1230450  14.5080833  45.3523140  48.1002884
  14.4498472  46.1647644  48.6030426  15.2208853  45.5050888  47.4799614
  86.2067261  35.6828232  48.3657570  86.4998169  35.4852333  49.2552986
  86.4306641  34.9012070  47.8606224  53.9417458  62.3796539  22.9043331
  53.8802681  62.4878693  23.8534069  54.6718750  62.9421272  22.6459332
  72.9826584  56.6200867  88.5920334  73.3351746  55.7336121  88.6703262
  72.4640732  56.7427139  89.3871765  29.4311275   1.1494833  69.5803604
  30.2119846   1.7024279  69.6076889  29.7717361   0.2557339  69.5425491
  49.8882446   4.8751535  33.9564667  49.6664619   5.1425214  34.8484077
  49.9944000   5.6980386  33.4791603  68.9537735  54.5124664  30.6048832
  69.6878510  54.0811043  30.1675186  68.2207108  53.9066277  30.4962196
  43.7196922  14.4975405   3.5588911  42.8063087  14.3146391   3.3386364
  44.0928307  13.6403179   3.7642415  17.9111938  39.3484001  20.5171528
  18.0195427  38.9714012  21.3902874  16.9655781  39.3412933  20.3688564
  57.0545387  22.1915073   7.4166441  57.0826149  23.1065235   7.6962690
  57.3224754  22.2134762   6.4979715  60.5407181  46.9632454  23.7677937
  60.2752571  47.5007744  24.5139999  59.8710403  46.2814751  23.7134342
  67.4018478  28.8479462  40.6075745  68.0960007  29.2543182  41.1264687
  67.1943207  29.4968357  39.9351845  54.7858467  37.7322769   0.4303075
  55.2862511  37.1270523   0.9776009  54.7528305  37.3083115  -0.4272444
  77.0212555  57.2675552  18.2906265  76.6269379  56.7304192  18.9778137
  76.7543182  56.8455696  17.4739857  18.0503063  45.3279381  26.9281483
  17.9994659  44.4287453  27.2523422  17.5124588  45.3278351  26.1363449
   1.5354100  71.1956635  31.6753769   1.5740629  71.4749680  32.5901031
   2.3365669  71.5443039  31.2844372  46.7837448   5.5531716  22.2855682
  46.4745903   6.4390645  22.0962296  47.4009285   5.3589959  21.5801506
  12.4425964   1.2063268  51.1079903  12.0214167   0.7372909  50.3876839
  13.2962923   0.7837747  51.2022476  78.3378754  33.1594963  12.9622211
  78.5650330  33.8488235  12.3381557  78.8308487  33.3799515  13.7525415
  80.3363419  43.9089584  64.7692871  80.5905380  44.4312973  65.5300598
  79.6573105  44.4280739  64.3384018  59.3717728  36.6645126  79.5105820
  58.5745888  37.1894608  79.5824280  60.0825348  37.2851105  79.6715393
  31.8796139   4.0255771  22.1966953  32.6892509   4.5284781  22.1083355
  32.1713791   3.1269250  22.3500843  44.5251694  59.0975380  28.1232891
  44.8763809  59.5368614  28.8978062  44.4724388  59.7862015  27.4605713
  82.4309387  52.2456017  73.4405212  82.9410172  52.1881599  74.2484589
  83.0276947  52.6464500  72.8085098  55.7430687   5.5691676  41.9083252
  56.5764351   5.9628334  41.6499443  55.9447441   4.6418252  42.0332069
  84.2949905  14.2825871  23.3050785  83.3915558  14.5982323  23.2850838
  84.8267975  15.0784626  23.3064232  70.3214569  25.8738041  51.1497307
  70.6488190  26.4141464  51.8688240  69.5944214  25.3819523  51.5314827
  83.7539673  24.4975262  85.3885727  83.7475433  24.1750317  86.2897873
  82.8288498  24.5796261  85.1569672   4.0959902  51.6460495  71.8409729
   4.2222018  51.0614471  71.0936203   4.8218951  52.2674026  71.7842865
  66.7052002  31.8395405  22.5535526  67.5319977  32.3027306  22.4190578
  66.9591370  31.0068741  22.9515648  48.3058472  51.6029243  34.2814713
  47.8313217  50.8035736  34.0532227  48.3163643  51.6101913  35.2385864
  52.3124161   5.1337252  41.1229858  52.4925079   4.5824819  40.3614540
  52.6442223   4.6306510  41.8666611  48.9263306  24.9582329  13.3728466
  49.5212479  24.7168713  14.0828104  48.2077980  24.3292027  13.4381781
  65.0001297  25.3149319  79.9293518  65.4955902  24.8976727  80.6340790
  64.6226425  24.5856037  79.4375992   7.9748425   4.5579648  12.5699053
   8.7827168   4.1735997  12.2295599   7.3597345   4.5095620  11.8381052
  14.8560038  63.8084030   1.5700663  15.4624271  63.6340752   0.8502799
  15.3175449  64.4369202   2.1252067  73.6042175  43.9530106   4.3164620
  74.0681458  43.1960220   3.9587271  74.0117264  44.7070198   3.8902678
  51.8659706  13.1957979  15.8998604  51.4920349  13.6251678  15.1304159
  51.7022820  13.8067636  16.6183014  22.8071747  49.4383354  51.2555809
  21.9993725  49.6316566  50.7798576  22.9419327  48.4994164  51.1271172
  76.9762421  42.7950096  48.9873657  77.2768326  43.5164604  48.4347496
  76.1637878  42.5004807  48.5757866  64.1647339  35.6056328  37.1136246
  63.9268875  36.1464233  36.3604927  63.3654366  35.5609283  37.6383629
  68.2054062  38.1424599   3.7564964  67.9803238  37.7917633   4.6182270
  67.4971313  37.8461418   3.1848550  15.4512234  46.5300903  33.2352104
  14.5660315  46.1741714  33.1578369  15.6696806  46.8232193  32.3505745
  40.7869987  56.2374725  35.5656128  40.0197029  55.7191238  35.3231201
  40.8566208  56.1327934  36.5145226   6.1558142  23.6007710  28.4724655
   6.7294297  23.7841053  29.2164974   5.8325891  22.7140350  28.6320229
  62.2657890  66.5780106  72.2009506  62.1233673  66.0506134  71.4149475
  63.1858444  66.8374634  72.1518326  13.5840111  38.3134575  55.6943741
  12.9938354  37.5741997  55.5480118  13.4069586  38.5867195  56.5944901
  59.7015839  15.4106541  63.6742249  59.9985085  15.9192934  62.9196701
  58.8140068  15.1361847  63.4437752  32.9468155  20.1177559  67.0985870
  32.2586479  20.7584839  66.9193497  32.9260941  20.0034771  68.0487137
  13.1163025  70.4839172  81.9367447  12.3383694  70.6450043  81.4027939
  13.7382040  70.0731659  81.3361206  24.1279812   0.4292534  62.6048164
  23.3005428   0.1959539  62.1839294  23.8704224   0.9357300  63.3751259
  81.6703491   6.2844186  79.2986450  80.9142227   6.7503748  79.6555481
  82.0295258   6.8794041  78.6404495  83.8753281   5.9794264  68.0196228
  84.0989914   6.6302719  67.3543320  83.7819901   5.1609607  67.5321426
  17.2040501  33.4320793  75.8191986  16.2606106  33.5891228  75.8578415
  17.2842350  32.5306168  75.5074844  80.5689163  37.3164902  27.7119255
  80.1455078  38.1700096  27.8039074  81.3743439  37.4995613  27.2281857
  37.2298203  46.6012650  23.3419437  37.5070038  46.3480911  24.2224560
  36.2938271  46.7821236  23.4282246  76.6686325  55.3969574   7.5281954
  76.6039963  55.6705894   6.6132207  77.4195862  55.8817177   7.8706865
  65.3664169  12.8321981  16.7138023  66.2854385  12.8282347  16.9814205
  65.3157654  12.1733065  16.0213242  30.2103920   1.5132476  11.6820927
  30.4083271   0.6666899  12.0825844  30.8209591   2.1228924  12.0965490
  50.1658211  69.8876190   3.6664698  50.3854179  70.1297836   2.7668221
  50.4795952  70.6211548   4.1953425  33.0745773  59.7689476  45.4217491
  32.7960892  58.8858376  45.6642227  33.9907341  59.6686592  45.1632271
  75.0016632  16.0029335  62.2570992  74.6370926  16.5357895  62.9637718
  74.9191742  16.5511227  61.4767685  38.4488411   4.8216600  30.6004677
  37.5552483   4.7132244  30.9259930  38.4653931   4.3316140  29.7783890
  43.8854179  46.2506981  62.5732841  43.3372459  47.0349503  62.5471230
  44.7743187  46.5748482  62.4283295  17.6893787   0.1153701  52.1953125
  17.7007732   0.2273263  53.1458740  17.9798717   0.9600052  51.8511658
  82.2377625  39.3926353   8.3020735  82.9225769  39.2730598   8.9600706
  82.2473831  40.3311691   8.1142006  84.0055237  53.8261261  42.7244263
  84.3973083  53.8251152  43.5977745  84.1178894  52.9288826  42.4104767
  22.2712021   3.8776116  52.2048836  22.6117382   4.6963367  52.5653763
  21.4086571   4.1082716  51.8598557  74.0830078   6.1125937  64.0424347
  73.5052032   6.3287959  64.7743073  74.1523743   5.1581988  64.0658875
  38.1115150  47.0259705  19.0412598  38.8167953  46.5718727  18.5801640
  37.5905228  47.4276772  18.3459663   0.2266272  57.9631386  57.3566246
  -0.3847798  57.5418701  57.9607315   0.5566794  57.2481041  56.8125420
  16.0964508  41.9080658  48.8370018  16.3679924  41.0013695  48.9798279
  16.9014835  42.4170380  48.9323997  38.5486183  69.6356964  34.5021057
  38.1553764  70.3721237  34.0338440  37.8089943  69.1962357  34.9217033
  68.7933044  36.6536980  46.3708611  69.7209167  36.4202843  46.3348885
  68.3341217  35.8140488  46.3516350  32.5952454  47.9280052   3.9738364
  33.3186035  47.7934265   3.3615646  31.9200344  48.3646889   3.4545805
  20.9597282  36.9336700  27.0797920  21.8236904  37.0619965  26.6882153
  20.8837490  37.6345100  27.7273140  64.2979889  39.6392593  45.0374794
  63.8883209  38.8101425  44.7905502  65.1953430  39.4025650  45.2719116
  46.2395248  32.9735794  14.1582050  47.0452461  33.4550133  13.9704151
  45.7595863  33.5372658  14.7649593   9.6824055  68.9275360  76.4325867
   9.8317261  68.9323654  77.3780518  10.2214794  68.2059402  76.1086502
  62.7862206  68.2621384  84.4642639  61.8348274  68.1574783  84.4529190
  62.9470062  68.9175110  85.1431274  75.1594543   3.8232658  13.3254099
  75.8419952   3.4409969  13.8769894  75.2978973   4.7679739  13.3931808
  52.9568596   9.0284901  11.5653524  53.5886879   9.7418957  11.6552181
  52.1614761   9.3589554  11.9829540  65.2431183  60.1350746  53.5352364
  66.0516586  60.6343193  53.6502991  65.2421722  59.8906822  52.6097641
  31.3719234  35.5273514  75.8772430  31.3727913  35.1661720  74.9907990
  32.2617111  35.8573074  76.0023041   7.3237567  52.2523232  19.5175152
   8.0382833  52.2975349  18.8821888   6.7853422  53.0205917  19.3275089
  21.5423965  64.5963898  53.0186386  21.8805103  63.9241982  52.4269714
  20.9704189  65.1328659  52.4697685  83.3863297  69.7574234  48.6367073
  83.6703033  68.9383469  49.0425453  83.5584869  69.6344681  47.7031784
  42.2676773   8.3973446   2.0079927  42.9044113   7.9832768   1.4254541
  41.4289551   8.0069561   1.7622850  73.3578949  38.9261513  87.9857178
  72.5656357  39.3246918  88.3458862  73.9697571  38.9023399  88.7214432
  51.0971031   0.3244762  18.4560947  51.5071564   0.1794749  17.6034164
  50.1614990   0.3881735  18.2642002  50.9342461  60.7358398  14.7934380
  51.3297501  60.3241158  14.0251350  51.3772774  61.5811539  14.8669081
  36.1616096  20.5657444  63.6405144  36.0826950  19.6237068  63.7907486
  36.6900787  20.6380863  62.8457069  52.7412491  49.7667122  47.6245308
  51.7849159  49.7700768  47.5839577  52.9851608  48.8576088  47.4505463
  86.6701355  47.0398598  54.0681381  86.7563400  47.0384407  53.1148300
  85.9886398  47.6880493  54.2460403  55.6228523  15.5023508  57.0402679
  55.3343925  16.0816383  57.7455673  55.0450363  15.7121754  56.3065567
   7.5942597  26.6478481  29.0602150   7.3428822  25.7602558  29.3156033
   8.5488634  26.6559219  29.1302013  14.0752964  24.6946697  27.9172897
  14.2835064  25.1582127  27.1061115  13.2456217  24.2535381  27.7348766
  23.7940235  66.9814758  14.2117014  24.4102364  67.3717575  13.5918665
  23.8803883  67.5137329  15.0025711  61.4651947  28.4962311  68.2763290
  61.9422722  29.2906322  68.5162354  61.7071953  28.3378563  67.3638687
  10.9075985  33.1235046   5.9933691  11.7795591  33.5165520   5.9555421
  11.0507746  32.2598305   6.3804078  58.7560196   2.0833595  46.3044090
  59.1074791   1.2163601  46.5069427  59.3630867   2.4427521  45.6574669
  44.2812881  10.1445475  66.9180298  43.7481079  10.4925184  67.6327744
  43.6762047  10.0753794  66.1795731  86.3722458  46.3208618  30.7872353
  85.9412918  46.8803978  30.1411476  86.4583664  46.8739929  31.5636749
  33.9849281  58.5448608  30.3177376  34.8706665  58.8960686  30.2263546
  33.4154434  59.2457695  30.0004883  82.0325165  59.2115898  53.5640831
  81.2395630  58.6803856  53.4914589  81.7127762  60.1113281  53.6309433
  68.8728561  42.4702110  44.6146011  69.5184021  42.2179909  43.9543877
  69.1352615  41.9919472  45.4011383  77.6664429   0.7412328  11.5568504
  77.4022675  -0.1781148  11.5921068  77.6993790   1.0162795  12.4730902
  81.4081726  49.1382713  10.4620628  80.7581635  49.6853867  10.0211725
  81.0488739  48.2524490  10.4125309  78.9396973  30.4026260   3.1280677
  78.7401123  29.6146469   2.6226108  78.3447342  30.3639202   3.8769042
  15.9867048  57.6980171   4.8680205  16.5444660  57.4420853   4.1334238
  16.4780941  58.3887901   5.3125448   2.9120708  23.2261181   2.0214438
   2.5106363  22.4451904   1.6403491   2.3777025  23.9518051   1.6988591
  11.7663326  32.8409462  11.7538967  12.0477362  33.7026749  11.4465408
  10.8509741  32.7766457  11.4814711  66.8133621  46.8277512  38.0496788
  66.1513214  47.3181992  37.5624390  66.7470551  47.1601295  38.9448662
  58.1379623  60.9472046  81.5212173  57.8842392  60.0344696  81.3842163
  57.4643288  61.4537468  81.0674973   9.0615549   5.3488374  30.0599480
   9.2493601   4.6075025  29.4842892   9.8370180   5.4225802  30.6162300
  46.8657799  33.5715179   6.7226472  46.9085045  34.5070763   6.9204693
  47.7776680  33.2810440   6.7405090  74.3917618  27.8345680  27.7511539
  73.9546661  28.6071701  27.3930149  74.6412659  27.3224182  26.9819450
  24.6920815  58.7277870  71.3843231  23.7416801  58.6670418  71.4806519
  25.0309906  58.6057587  72.2711639  11.7128448  15.7249050  77.9980316
  12.2620115  15.9020357  77.2343140  11.9478760  14.8350000  78.2608261
   1.4908473  59.0297623  76.4048386   1.8431542  59.8869705  76.6442184
   1.9099834  58.8233452  75.5694046  43.3267822  61.9633713  40.8666344
  42.6602211  62.2710037  41.4808731  43.9753990  62.6669693  40.8448715
  37.4418526  60.3395042  12.5878811  36.8319893  59.6515465  12.3213902
  37.0232468  61.1529388  12.3062353  38.8081284  61.7743721  31.0514584
  39.7373886  61.5878716  30.9175625  38.7451782  62.0291176  31.9719868
  31.1585751   9.9932432  73.2410278  32.0953255  10.1812124  73.2993088
  30.9660587  10.0235558  72.3038788  17.5628853   1.7546867  33.2905960
  17.1013603   2.5226927  33.6273346  17.3173523   1.0472198  33.8867798
  50.9516830   1.2222197  24.9008198  51.6271286   0.5579752  24.7637634
  50.3878517   1.1529847  24.1304111  65.9087601  70.5086517  18.4986858
  66.7921677  70.1420288  18.5363064  65.8310852  70.8556213  17.6099739
  73.7146683  39.9383736  38.2947350  73.1535568  40.6047554  38.6913719
  74.3608856  40.4364166  37.7941513  84.8088379  36.5773964  83.2894592
  84.3713760  37.3219604  83.7023544  85.4692001  36.3043098  83.9263077
  12.1991663  70.7946472  66.6821671  12.3804083  70.7338867  67.6200867
  12.4951887  69.9568329  66.3262558  14.7770929  47.0455780   8.3121004
  15.1947708  46.9850197   7.4529676  14.2254457  47.8257980   8.2557678
  11.7171764  61.2633820  82.8271408  12.0530815  61.8094254  82.1163406
  12.4261436  60.6472244  83.0113831  58.7463417   4.6215587  78.9350586
  58.9976807   3.8116341  79.3789978  58.1693916   4.3370605  78.2262421
  63.5760498   5.1296949  15.1980276  64.0801315   5.7911377  15.6719751
  64.0671844   4.3179421  15.3248272  24.0644245  54.2623100  56.0757904
  23.4207077  54.9706841  56.0840225  23.9120083  53.8097992  55.2461929
  48.1015511  55.6715469   8.0582676  48.9496536  55.4799194   7.6579800
  47.4605446  55.4192390   7.3936734  17.4416313  41.9353294  61.9126892
  17.7594757  41.0522308  62.1006889  16.6077728  41.7990570  61.4628639
   9.3603802  45.4518929  32.1977730   9.8336105  46.1029129  32.7159042
   9.8093729  44.6268234  32.3818893  49.7480316   6.7346420   8.4378567
  49.7480125   6.8600678   9.3868036  50.4457321   7.3079891   8.1204939
  65.0873947  39.5304947   3.7414539  65.8012619  39.7383881   4.3442879
  65.4159241  39.7930107   2.8815784  27.9952526  37.1796646   0.0528922
  27.6983109  37.9890175  -0.3630444  27.6580238  37.2322578   0.9471754
   0.5323611  27.2072144  56.9517593   0.9722529  26.5340919  57.4710236
  -0.2395699  26.7679729  56.5947990  54.8631363  30.7672157  68.9123688
  54.5142899  29.8844299  69.0357590  54.5880203  31.0121479  68.0288849
  41.0155907  63.0735321  58.0342712  40.7341766  63.8958626  58.4352913
  40.2534103  62.7762375  57.5373535  14.0046463  34.0130920  54.0541420
  14.4376860  34.7261772  53.5848694  13.3325615  33.7009850  53.4482384
  17.5141182  11.6668577  17.0248661  18.3801994  11.8715668  17.3773289
  16.9104729  11.8710413  17.7391167  70.7331085  46.5660057  19.3932152
  70.1204224  46.8774300  18.7269802  70.3740845  45.7242966  19.6740437
  29.2049122   2.1153018   7.6839180  29.2235203   1.4519291   8.3737173
  29.7631149   1.7582680   6.9931450  75.6290894  25.9727097  46.8183899
  74.8880081  26.4631748  46.4627533  75.7833099  25.2758274  46.1805801
  46.5856400   0.3367331  36.0935097  46.9714050   0.6984485  35.2956505
  45.8045311   0.8689972  36.2444916  24.2096577  43.8030472  88.9324570
  23.3078365  43.8540649  89.2492371  24.3135395  44.5775909  88.3797226
   3.1542373   8.9862785   9.7965345   3.9595664   9.3240929  10.1884003
   2.4685545   9.2138662  10.4244480   7.8370199  25.1408768  25.2295170
   7.9783444  25.7110176  24.4737396   6.8877344  25.0239391  25.2671375
  86.3761978  36.8476219  19.0443344  86.5148239  36.2472382  19.7768345
  87.2447586  36.9580536  18.6574955  23.3322773  66.3803024  54.3567619
  22.6842480  65.9449234  53.8029289  23.5236378  67.2005463  53.9019928
  67.0758514  23.1236649  44.5707169  66.4323654  23.0453854  43.8664207
  66.5930481  22.8895397  45.3633804  53.2868423  36.0334778  21.0907021
  53.8000298  36.5864792  20.5015812  52.8534164  35.4054680  20.5127964
  86.2321320  58.4433403  83.3457718  85.8785629  59.3247681  83.4653702
  86.5783005  58.2053986  84.2058792  41.3866501  59.4843903  22.8656979
  40.4772644  59.3434067  22.6023045  41.9034386  59.1090317  22.1527710
  68.2027130  63.7295876  26.8416424  67.5509186  63.6289902  26.1479053
  68.0294952  63.0030098  27.4402294  71.0783615  41.5124130  14.2814827
  70.1249084  41.5502014  14.2058401  71.3767166  41.2377739  13.4144258
  60.1218758  41.5546608  81.8190002  60.3542328  41.3389130  82.7221603
  59.2797775  42.0042953  81.8892136  43.3145447  33.4637833  61.2756805
  44.0341530  32.8661194  61.4786301  43.5585747  34.2857132  61.7012558
  75.0811844  38.1503143  39.9574242  74.6102600  38.6596031  39.2978172
  75.9527664  38.5448723  39.9873772  59.8124924  42.9391747  59.8796921
  59.1950760  42.7786484  59.1660690  60.6531143  42.6283340  59.5435867
  86.2253723  51.8838921  77.4253235  87.0317078  51.3834763  77.5504150
  86.4987335  52.7988853  77.4908447  62.5121689  38.3977051  19.8696079
  62.1682968  38.6396294  20.7295246  62.0565567  38.9762039  19.2580585
  66.5423737  53.0043106  74.1476898  65.9907303  53.7676239  74.3187790
  67.4377365  53.3365707  74.2122345  25.5008869   1.7666509  34.6140556
  25.5535374   2.2153141  33.7701607  24.8217964   2.2397828  35.0949020
  82.9299316  24.5327053  46.1552582  83.1235962  25.3954983  45.7887726
  82.9330521  24.6687412  47.1027374  42.5780296  41.6248932   6.5788999
  42.1059418  42.2893715   6.0770717  42.6469421  40.8788834   5.9831214
  68.2022781   6.2772045  75.5764847  67.8629150   6.6786985  74.7765656
  68.3866653   5.3708625  75.3299484  85.6803055   8.9611149   0.6970041
  86.3146286   9.4515676   0.1742014  86.1073837   8.1212769   0.8658395
  72.2101974  49.4484253  19.0053444  71.8678970  48.7982140  19.6187649
  72.4293365  48.9455910  18.2208900  48.4759521  37.3128166  76.8460693
  48.2551498  37.8768959  77.5872192  49.4306221  37.2477989  76.8706360
  49.5011292  34.8125305  24.3675499  49.0905342  33.9534073  24.2698269
  50.3568077  34.7180367  23.9490833  42.2748909  58.1612473  34.4296112
  41.7348328  57.3764992  34.5230904  41.7759094  58.7265472  33.8399658
   7.1619954  40.8454704   7.8486848   7.1525126  40.8445168   8.8058376
   6.8615704  41.7215919   7.6070571  47.7698135  21.4513760  70.6588821
  47.2203674  22.1310024  71.0493317  48.1744156  21.0115662  71.4066086
  52.0890121  58.7423172  37.8793640  51.4992752  58.9162140  38.6129837
  51.7900963  57.9048424  37.5250778  15.0761662  64.4908218  80.3945999
  15.6515322  63.8535995  79.9713593  15.2521715  65.3131714  79.9374390
  27.5049629   0.9251420  82.2858810  27.6599255   0.9004723  83.2301254
  27.5974255   0.0150317  82.0041275  82.0602341   0.9331293  53.2252426
  82.2858887   0.4964357  52.4038963  81.4023514   0.3648069  53.6257858
  66.7095261  13.4306116  53.4846916  67.1405487  13.0088654  52.7413292
  65.7823257  13.2195129  53.3752518  81.3856277   3.1121740  18.8601418
  81.1319427   3.9554620  19.2352962  82.1889420   2.8756900  19.3238163
  49.2278786  27.1772671  68.2333298  50.1845665  27.1485825  68.2458954
  48.9656067  26.3000832  67.9540558   4.5475984  18.5887890  45.5135956
   4.5811920  17.8508911  46.1223717   4.3461394  18.1913757  44.6664162
  78.0778198  62.2226410  27.5562820  77.9565430  61.4623032  26.9875870
  77.9929504  61.8739777  28.4436722  29.4610863  46.2644920  26.3884029
  29.7037907  45.5935478  25.7503090  30.1940346  46.8800659  26.3792152
  68.2669830  40.5966263  52.9927673  68.0131989  39.6981583  53.2038994
  69.0998764  40.7233124  53.4471626  21.0011444  59.9963341  75.5486298
  20.5006351  60.8105202  75.4954987  21.7521076  60.2124672  76.1014099
  56.2087288  10.2837906  20.4034233  56.2314987   9.7578239  19.6040020
  57.1017647  10.6152372  20.4975719  21.5274086   7.9487591  80.7366180
  21.2574539   7.8543334  79.8231430  22.4533710   7.7062335  80.7390137
  75.9051437  62.3102188  84.7604218  76.2208099  62.7268677  83.9585571
  75.3627014  61.5831070  84.4549789  61.3611984  11.9887257  73.0084000
  61.7996712  11.9683218  72.1577835  60.9650650  12.8589764  73.0528564
  11.6476297  10.2346649  67.6667252  11.5556116  11.1682215  67.8570862
  12.4606428   9.9802237  68.1031876  37.5415649  69.0954437  67.0982056
  37.7185440  68.9063416  66.1767120  37.3416214  68.2423935  67.4836502
  54.0706024  59.6407852  47.5670471  54.8046608  60.2408829  47.6984901
  53.3777695  60.1874313  47.1963806  27.8573856  60.8603134  44.3733559
  27.5836506  61.7353134  44.6484566  28.8138847  60.8915176  44.3924866
  34.0036240  29.7756462   2.0229659  33.0535240  29.8909645   2.0385525
  34.3437958  30.6273041   1.7487528  10.2604332   1.3544393   5.5489602
  10.6721315   1.8997999   6.2192721  10.0392647   0.5418289   6.0039115
  23.0114861  45.3902473  69.6692123  22.6001740  45.2178383  68.8222656
  23.2076187  44.5220642  70.0213852  57.2790489  54.4784622  12.2415380
  56.4556580  54.8995857  12.4883432  57.9555054  55.1025352  12.5045490
  67.3421097  48.1803818  15.1293745  67.9805222  48.6486435  14.5914211
  66.5425949  48.7022324  15.0609694  24.2741985  70.5906372  30.1050282
  24.4958611  71.4541779  30.4534454  23.3190689  70.5506973  30.1536503
  70.2279358   4.5680881   6.1574464  69.6923752   5.0467329   6.7901468
  69.7399216   4.6286230   5.3362184  58.1826210  38.9302597   4.3978796
  57.3655510  39.0926437   3.9264362  58.3703499  39.7564049   4.8433819
  38.0765953  57.1208839  82.1784286  38.7660370  57.6822548  81.8237915
  38.0315323  57.3536873  83.1057892   4.1342664  25.2195244  75.8966904
   3.9837196  25.6956024  76.7133408   5.0776429  25.0579300  75.8840714
  83.5004807  70.5385513  66.3009415  83.0309830  70.0496445  65.6250916
  82.8818207  71.2125778  66.5823364  61.3750725  35.0394974  38.1180611
  60.7376556  35.7239075  37.9143105  60.9252701  34.2220116  37.9044533
  63.5948715  61.1198006  55.8069382  64.2768707  61.6113129  56.2646713
  64.0484619  60.7098656  55.0704346   6.8624344  25.3121185  79.6874695
   7.1945496  26.1966381  79.8409424   7.5180249  24.9050331  79.1211472
  86.0181427  56.3018913  44.9180412  86.4064102  56.4669724  45.7772408
  85.5488205  55.4741898  45.0223236  83.7523651  54.0058136  32.2915916
  84.5415726  53.6520500  31.8814411  83.4358978  54.6645660  31.6734257
  46.5681725  42.2164040  34.1739502  46.5368462  41.4766541  33.5673027
  47.2900276  42.7577667  33.8544464  47.0394745  42.2625618  80.7835999
  46.4445953  42.3744583  80.0420990  47.2327309  43.1544800  81.0723343
  63.2875023  15.6562405  20.6480427  63.1120148  15.4703379  21.5704727
  62.9092102  14.9132748  20.1777992  74.3100052   7.2974629   8.9392748
  74.7520905   8.0931377   9.2353973  74.6665421   7.1363492   8.0656872
  42.0598831  36.0356941  77.1915283  41.3614082  35.6630898  77.7296066
  41.9802132  35.5857315  76.3504486  76.1449051  17.6565495  50.8948250
  76.5039902  17.0018597  51.4937172  76.5435562  18.4807816  51.1740150
   5.4201040  49.1739616  16.2248154   5.0770068  49.4626503  15.3791361
   6.3597465  49.0658569  16.0777893  57.1016426  32.1752701  34.1340332
  57.4306412  31.3687458  34.5309105  57.7164383  32.8509636  34.4198532
  81.9294128  15.7558565  13.4127951  81.9925079  16.4924793  14.0207729
  80.9917221  15.6645956  13.2435923   1.7738748  47.3689346   3.8157938
   2.4442816  48.0040321   3.5639248   2.0361123  47.0774307   4.6889997
  58.2877579  25.8123341  64.5896759  58.7433815  25.8036556  65.4314346
  58.2784767  26.7341099  64.3318405  56.1391106  46.2983932  24.3991890
  56.4400940  47.0779037  23.9322796  55.4284058  46.6132660  24.9577446
   9.8684855  48.8435745   7.6136527   8.9562435  48.7982826   7.3273058
  10.3675413  48.9626465   6.8055706   3.2649336  66.6323013  41.1519470
   4.0734034  66.9787445  41.5295525   2.5935807  66.8233109  41.8069534
  27.5963688  55.3272285  86.2510834  27.9126110  54.5393181  86.6931458
  28.3918266  55.7989159  86.0041199  24.5226822   7.2718363   6.6796503
  23.8502941   6.5936222   6.7440810  25.3346348   6.7899489   6.5223265
  35.9654350  60.1585388  54.9872513  35.9644814  59.9462318  54.0538940
  36.3731422  59.3999405  55.4050217  69.0549622  41.6769676  27.6942558
  69.2375717  40.7411957  27.7792358  68.9306335  41.9793968  28.5938721
  62.3486900  69.0804291  38.9667282  62.2126312  68.5788345  38.1629143
  62.6363449  69.9422455  38.6654625   3.8749442  29.4413509  23.0469742
   3.8868353  30.0472584  22.3060532   2.9457304  29.3191376  23.2415447
  76.7468491  59.9243393  17.6078587  76.9633942  59.0157127  17.8169956
  76.4962540  59.9043503  16.6842594  69.1976471  57.7172165  68.9303665
  68.7595444  57.0329590  69.4364243  69.5099487  58.3386803  69.5879974
  77.9397049  49.4718819  73.5145111  77.4333496  50.1100731  73.0119705
  78.8526688  49.7102890  73.3535919  38.4981728  41.1312943  76.1516800
  37.9203835  41.6225929  76.7356491  39.2002182  40.8146477  76.7200928
   9.2695322   2.2078099  86.2913208   8.9134388   2.6748559  87.0471573
  10.2177181   2.3126941  86.3699036  65.1461105  17.1887627  72.5351257
  65.5067368  16.7695312  71.7538223  65.1228104  16.4924030  73.1914597
   9.3622255  70.2801208   0.0618983   9.1552753  70.5310593   0.9621386
   9.2929506  69.3254395   0.0574223  70.0484009  60.1523819  30.9002228
  70.2095413  59.8649101  31.7989025  70.5822067  59.5676079  30.3623390
  61.9984589  50.7319870  25.1575375  61.7135811  51.3938370  24.5274334
  62.4828415  51.2247353  25.8199596  65.8667221  28.4731503  34.5309601
  66.7579117  28.7160797  34.7819710  65.5123520  29.2591076  34.1151199
  29.5136795  20.2893066  10.8605976  30.1450405  20.1815758  11.5719404
  28.8117847  20.8172188  11.2412319  58.8534508  59.6387444  71.1585236
  58.1530533  59.2441292  70.6389542  59.3516693  60.1620560  70.5307007
  17.8064709  63.4095726  32.6732635  17.0596790  63.9293671  32.9704971
  17.6814098  62.5540199  33.0839043  10.0969696  39.1444397  85.6745682
  10.2940531  38.5171928  84.9789047  10.9078436  39.2045555  86.1796494
  46.8060265  63.8056641  45.0564156  46.9547234  63.0313263  45.5991135
  47.3222771  63.6469955  44.2661362  33.8012314  61.4142952  56.3889236
  33.0333786  61.4663277  55.8197784  34.4043274  60.8335419  55.9249878
   4.6061645  66.8620224  13.5571432   3.8987391  66.9718933  14.1925249
   5.1691823  66.1889725  13.9395599  12.3695669  13.1965151  72.8628006
  12.2977419  12.3573008  73.3175430  12.3221378  13.8512468  73.5594406
  23.6559448  13.0883427  80.6112976  23.9312553  12.2434597  80.9671173
  24.1942406  13.7301674  81.0744705  65.3328934  11.9607344  62.1864471
  65.7103195  12.4781017  62.8978615  65.3133240  11.0657768  62.5254135
  76.8514481  45.9032669  71.4358139  76.7832718  46.4689484  72.2049637
  76.5358734  46.4442177  70.7119217  16.2315254  64.0228577  72.9933853
  15.9821730  64.1094055  73.9134750  17.0112019  63.4677658  73.0077286
  21.9143448  23.5346203  10.3993397  21.1633320  22.9851398  10.6235762
  21.5672626  24.1712112   9.7744255  56.8128052  64.4142609  57.9622498
  57.5937767  63.8963394  58.1573830  56.9157600  65.2092438  58.4853439
  77.5517044  13.4828739  59.9592819  77.6878662  14.2930622  59.4680748
  77.0760651  12.9132719  59.3546753  51.7058105   5.2581038  77.3040771
  52.5270615   4.8678727  77.6032486  51.5414658   5.9720354  77.9201355
  18.9481449   5.9840603  68.6798630  18.9398022   6.9409986  68.7006378
  18.3715153   5.7238636  69.3982162  60.1441841  21.4694767  63.3286705
  59.4321938  21.3750744  62.6959114  59.8966064  20.8972301  64.0549393
  10.6659489  50.3072662  54.4629250  10.7730331  51.1134758  53.9581528
  10.6101112  49.6167526  53.8023949  54.7142372  55.7204475  80.9124374
  54.2486382  55.5860863  81.7379074  55.6174660  55.4672432  81.1029510
  83.2476425  20.2629013  87.7349319  84.0453568  20.5547333  87.2936630
  82.9894104  19.4707317  87.2637482  61.8370399  15.3391476  53.3177490
  61.5619240  14.4806881  52.9958954  61.5496521  15.3560486  54.2306328
  46.2568092  68.4896317  50.4707870  46.1765976  69.2859268  50.9958687
  47.0847092  68.5943069  50.0018959  23.0456181  25.5773964  66.2170715
  23.3107433  24.9454098  66.8852997  22.1298256  25.7693310  66.4188538
  27.8053341  62.4069748  85.1097488  28.6521816  62.1556358  85.4784088
  27.3547306  62.8528633  85.8269501  53.1544800   9.5045156  47.5663033
  53.2639580   8.7635851  46.9702606  53.1194344   9.1083488  48.4369698
  62.8420525  24.0150986  23.1888599  62.2868118  24.6967602  23.5673771
  62.7084923  23.2553139  23.7555370  31.1936493  41.7625389  72.8747177
  31.3473835  42.3540688  73.6113892  30.4748859  41.2007675  73.1645889
  62.8938332  48.8000069  31.5215569  62.4984818  48.6774139  30.6584797
  62.5747414  48.0602417  32.0384331  41.9996872  17.3208351  62.2108955
  42.3531952  17.6166439  63.0498009  41.2279358  16.8051033  62.4446754
  60.2272644  22.3608646  13.5729189  61.0140266  22.5083694  13.0480537
  60.3327484  21.4745808  13.9187603  10.0395441  60.6480827  86.7719116
   9.6268511  61.0512543  86.0081253  10.2525196  61.3841629  87.3455505
  16.9724464  34.5983543  54.8673592  16.6684818  35.0572472  55.6504631
  17.2229939  33.7294121  55.1810417  36.4636688  33.3628578  83.3940125
  36.4081230  34.2112923  83.8336792  36.7295647  32.7532883  84.0824585
  61.3022270   9.8539963   1.9537479  61.3929749   9.5140963   2.8439524
  60.3573112   9.9321098   1.8223634  60.4868736  13.5540085  21.5108166
  61.2264404  13.1746101  21.0361309  59.8069992  13.6645908  20.8461533
  18.8026543  34.3668365  10.9625244  18.3779106  34.0549049  10.1634464
  18.6464157  35.3111992  10.9638338  10.6320000  39.7094955  31.8359814
  10.2088633  39.3392906  31.0612965  10.8588247  40.6037064  31.5807056
  38.7556801  44.5742950  26.6037483  38.2251015  44.1435089  25.9335651
  39.6584244  44.3584747  26.3698654   7.1061606   1.2625431  69.2633514
   7.6968994   1.1426617  68.5197830   6.7557106   0.3883421  69.4341965
  63.1539917  49.5914612  34.3256187  62.6893730  49.4554176  33.4998741
  64.0706406  49.6955261  34.0703506  34.9529152  28.9256649  81.0079880
  34.7028275  29.1358414  80.1082535  34.9240799  29.7651768  81.4669189
  78.8640671  55.5182571  71.4113922  79.1681442  54.9065170  72.0818634
  79.1253891  55.1153908  70.5833588  11.2688112  71.1691437  76.7771149
  10.4541988  70.8088303  76.4266663  11.7213011  70.4149704  77.1548920
  68.6749039  11.1849470  20.6584473  68.7792053  11.9419460  21.2349072
  68.1936035  10.5470934  21.1854420  23.0371323  69.5886841  47.0899391
  23.1340256  70.5351868  46.9852066  22.7970695  69.2745819  46.2181892
  86.4172211   1.0257565  21.6023121  85.9438248   1.7597984  21.9938564
  86.8837585   0.6235096  22.3349590  44.5875015  68.3292847  56.1056404
  45.3411636  68.9053497  55.9776993  44.8008156  67.8268661  56.8919640
  68.6077042  46.1761475  30.9963017  69.4940186  46.0396767  31.3310604
  68.5194397  45.5405731  30.2860279  45.8894348  66.4173965  64.6196747
  45.9056702  65.8042603  63.8848114  46.8043556  66.6719666  64.7394638
  23.9011097  62.9178886  35.1410980  24.6560116  62.3372498  35.2370872
  23.1552181  62.3901329  35.4263268   8.7489700  53.8513145   0.2431544
   8.5036964  53.6046143  -0.6485919   8.0736446  53.4569435   0.7950956
  58.7487030  35.0909920  23.6051521  58.0956383  35.1614532  22.9088917
  59.4107170  35.7445259  23.3796215  11.9514952  61.0922241  79.2627563
  11.0669909  60.8979568  78.9526901  11.8193951  61.5404243  80.0981598
  73.1094437   0.8481073  55.7307701  73.7362213   0.2292863  55.3560143
  73.5162354   1.7056581  55.6068497  47.8338013  10.7225275  75.4323425
  48.6387672  10.5670481  75.9263992  47.8212967  11.6684475  75.2863617
  27.5700150  64.4878616   9.3382406  28.0570240  64.7375641   8.5529356
  27.2065639  63.6269302   9.1310368  63.3790817  36.3003654  40.1155281
  62.9268532  35.4579468  40.0701752  62.8781052  36.8727303  39.5344505
  78.1917572  66.0059052  51.2217827  78.5322189  65.2211914  51.6513634
  78.8400803  66.6837845  51.4125557  57.8375206  14.5183344  67.3432541
  58.5459824  14.6632433  66.7161026  57.0581779  14.3981457  66.8006592
  60.7019424  50.7441483  40.5573120  61.4230499  51.1279831  41.0562172
  60.1315498  50.3560257  41.2208214   0.9562462   5.7394996  61.9697723
   0.6694955   6.5222340  61.4993095   0.1514533   5.3703861  62.3334961
  63.5490952  49.1756706   8.4758224  63.6336250  48.2868309   8.1307821
  63.9295235  49.7332458   7.7971339  55.4421768  36.4898338  87.1595306
  55.0850792  36.1498413  86.3390961  55.8421631  35.7287636  87.5802689
  66.8995132  29.6965504  58.1670761  66.4310684  29.6906967  59.0017929
  67.4428482  28.9088898  58.1918182  51.9415054  61.8233032  37.3664627
  51.4262085  62.1512947  36.6294937  51.8350677  60.8727798  37.3289299
  25.5260506  53.5885086  71.6675644  25.7779388  54.5075607  71.5774307
  25.4804077  53.2633820  70.7684326  49.7863045  57.1412125  58.0925980
  49.0852737  56.8583832  57.5054054  49.9653969  56.3753319  58.6381149
  27.0842819  16.6357269  84.7258530  27.0593319  17.5888805  84.8101578
  26.1657696  16.3682938  84.7582092  32.2792473  30.3653069  68.5660553
  32.0909958  31.1420403  68.0392990  32.9577026  30.6498566  69.1783981
  18.3291492   7.1799173  75.9427948  19.0215721   6.8570490  75.3661346
  18.4532471   6.6968908  76.7598114  55.6450500  64.2526321  22.1870918
  56.4057083  63.9734573  21.6774979  55.5200920  65.1708755  21.9474068
  66.1785355  10.7182531  44.9640350  65.8403473  10.5411320  45.8418083
  67.0848618  10.9909153  45.1070633  44.9221611  47.3990898   0.5530148
  45.4307442  48.1093140   0.1616547  45.3813934  47.1965714   1.3680764
  37.3292885  67.5080490  84.5160599  37.5684586  66.9460831  83.7790146
  36.4277534  67.2614441  84.7225952  71.4362946  44.3082085  46.9657173
  70.7159653  43.9326172  46.4594612  72.2262650  44.0194969  46.5087547
  66.5431595   5.2391124  14.0118637  66.7553177   4.6881604  13.2584219
  65.9398270   4.7097268  14.5333729   1.5548586  23.9009266  62.0751877
   1.5456295  24.7101669  61.5640373   2.0174243  23.2726307  61.5206528
   8.8133488  45.0529022  34.9776878   9.0009499  45.9363365  34.6605415
   8.5271683  44.5747681  34.1994057  83.8453522  58.3186569  27.1776543
  84.1291504  58.1366539  26.2817974  84.6463470  58.2626114  27.6987057
  52.5141029  27.8338680  19.4526501  52.3992195  27.4809704  20.3349743
  51.6662064  27.7003517  19.0290108  72.6716080  69.5189667  52.8415947
  73.4617310  70.0246048  52.6511383  72.1805725  70.0643463  53.4561501
  77.1755600  23.5397644  21.7561302  77.1471710  23.7264404  22.6945229
  76.2671661  23.6264706  21.4670925   6.0553279  17.2178421   3.7792594
   6.2866397  17.5487347   4.6471519   5.4138293  16.5280075   3.9490802
  56.5973587   6.4305019  83.8661270  57.5103149   6.1429586  83.8581314
  56.4586563   6.8115363  82.9990616  54.7457314  27.9635315  85.6937256
  54.3358574  28.7856712  85.4247971  55.0950241  27.5935993  84.8829346
  36.8010521  59.0478134  49.7271461  37.7400398  58.8779488  49.6517906
  36.6658974  59.8639717  49.2456398  76.3525391  52.5130272  74.6654892
  75.5792160  51.9878082  74.4596710  76.9010010  51.9344025  75.1952133
  60.1479492  45.0177574  35.8170815  60.3740311  45.8127327  35.3342438
  59.1913147  44.9903564  35.7988548  58.4529152  65.5761795  54.3807449
  58.1423798  64.8614120  53.8249512  58.1160545  66.3685226  53.9624710
  30.5484409   5.8016820  75.3850708  31.3038673   5.2624531  75.6191559
  29.9144745   5.1819940  75.0240936  81.1982880  27.9669952  35.6059723
  81.9242554  27.3852329  35.3806801  81.2101288  28.6395664  34.9249878
  12.6712885  48.3259048  38.5748215  13.2132168  47.6574364  38.9939842
  11.7860670  48.1517677  38.8946533  39.3338432  68.6452942  40.3327332
  39.5932770  69.2709045  41.0091476  38.4947510  68.2987442  40.6361504
  62.7117996  13.9645767  12.5045414  62.3687592  14.5134277  11.7993336
  62.1477432  13.1912317  12.5021391  54.7167664   2.5386133   0.2114727
  54.2017174   2.0347042   0.8415781  54.8857574   3.3715219   0.6518561
   1.6316484   0.7546293  33.9243164   1.4159492   0.8541538  34.8515701
   1.8728021   1.6357861  33.6385918  24.9581413  55.6378326  75.9756317
  25.8561344  55.6995659  75.6500092  24.7427235  54.7075539  75.9092712
  47.5748329  43.2227974  77.5240479  47.3275146  44.0943985  77.8328705
  47.1766548  43.1542397  76.6563034  64.2415466   6.8563237  47.4012299
  65.0656815   6.5194130  47.0497665  64.0969696   7.6760993  46.9286842
  58.9044724  23.7274666  71.7460785  59.5994987  23.1184292  71.4965897
  59.2298470  24.1494770  72.5412369  25.0354233  53.8023415  12.1135015
  24.9277821  54.2611771  11.2803659  24.5385513  52.9912720  12.0061913
  54.5044518  13.0511017  16.1502895  53.5536385  12.9523630  16.1009045
  54.7644615  12.4999886  16.8884621  86.1946564  54.7286644  76.4753723
  86.5712204  55.5096245  76.8809967  85.4334259  55.0523300  75.9936981
  33.8926849  10.1828127  80.6047745  33.4568939   9.9539976  79.7838211
  33.6812592  11.1067057  80.7387619  35.7456665  38.3157616   9.1802769
  35.8761597  37.7193451   8.4430599  35.8478127  37.7639847   9.9557362
  74.7476501   2.1470308  60.7334900  75.2117844   2.3291202  59.9163895
  74.7409973   1.1919941  60.7974625  80.8346176  37.5161629  34.9418602
  80.5557861  37.9036179  35.7715378  81.6338806  37.9903984  34.7126846
  70.5553513  26.9464645  48.6038475  70.6013412  26.4802246  49.4385567
  69.7298355  27.4292831  48.6443634  85.8769989  20.2638378  56.1330338
  85.6747971  21.1100082  56.5322113  86.3707047  19.7938499  56.8050461
  47.9445877  60.1375923  51.2775269  48.1590614  59.2057533  51.3212204
  48.6510429  60.5687675  51.7584000  70.9161835  66.4116211  35.1964264
  70.6858368  66.1775742  34.2973213  70.4351425  65.7855759  35.7376213
  38.3915710  63.1743088  56.7848625  37.9209328  63.7538223  57.3839378
  37.7729912  63.0127640  56.0724754  35.4786835  70.7842712  88.0847473
  35.6890030  71.3129654  88.8544693  34.5766335  70.4986725  88.2295456
  26.1796436  31.0050201  71.4366760  26.2825317  31.7635269  70.8619461
  27.0141010  30.9416485  71.9013214   7.9583387  60.9724159  67.7781754
   7.9302516  61.8276367  67.3491821   7.6585164  61.1424370  68.6711655
  76.2905579  27.8583050  10.3328228  76.8948135  27.2007103  10.6773224
  76.8122253  28.6591949  10.2811117  80.7012558  31.4425621  49.3096199
  81.6155396  31.2263260  49.1264305  80.2334366  30.6141663  49.2040977
  13.9466782  37.5910530  13.6367588  13.6686916  38.3512230  14.1477318
  13.3959074  36.8751297  13.9535227  58.4105873   1.3263777   7.8864045
  58.5908127   1.8847184   7.1300936  57.4773750   1.1246346   7.8182197
  52.3693275  68.8510361  43.1966400  52.6020508  68.2435837  42.4944458
  51.7295685  69.4421539  42.7997475  55.1599388  29.4715233  48.6502686
  54.7075920  29.4559288  47.8068428  56.0363197  29.7978306  48.4460335
  21.2121658   1.7287157   8.8971148  21.4191952   0.8136081   8.7075138
  20.5277138   1.9548782   8.2673454  53.2926750  44.5650520   7.2924604
  53.3305206  43.6298447   7.4929242  53.6499176  44.6348877   6.4071736
  63.3263016  68.6766434  21.1979370  62.7385101  67.9354248  21.3439693
  63.2167740  68.8902435  20.2713242  69.6185608   1.3026204  29.7912731
  70.5202560   1.0987519  29.5430489  69.1048660   1.1102396  29.0068378
   1.8495973  32.7163048   7.6588469   1.1157440  32.3082695   7.1992846
   2.5113783  32.0268593   7.7130928  81.3644409  18.0284195  15.0671234
  81.3234482  18.4157619  14.1927567  80.5095520  18.2183399  15.4535437
  82.3893661  12.7784595  73.2023392  82.5177689  13.7193995  73.0824356
  81.6443939  12.7125969  73.7997513   1.6731329  24.2711678  39.7281075
   0.8068314  23.8726139  39.8112221   1.5691547  25.1489887  40.0953331
  52.5711975  36.3804398  83.7248459  51.9988556  36.5275192  84.4778595
  51.9736595  36.1696129  83.0074005  63.4049873  19.8373718  47.3810196
  62.7238274  19.3959179  46.8737030  64.0995560  19.1845570  47.4684067
  54.3633308  54.6322784  67.3337708  54.2804222  53.6815414  67.4076614
  53.5010071  54.9676781  67.5789948  24.5578518  12.0168381  23.9248447
  23.6196327  11.8273821  23.9156628  24.6379566  12.8525324  23.4650288
  77.3598022  24.5533161  73.2380905  77.0800705  25.2917480  73.7790985
  78.0876694  24.1636848  73.7224808  64.8009567  61.9778671  18.1930447
  65.4703369  62.6557770  18.1003056  64.8540039  61.4760284  17.3796730
  48.2504845  42.9940033  85.1934586  47.8623543  42.4300003  84.5245132
  48.8759918  43.5378532  84.7147141  36.0358467  15.2365847   3.8756320
  35.7800407  14.7552166   4.6624479  35.2143059  15.3830042   3.4067364
  14.4773245  25.7017727  25.4935627  13.8284006  26.2239513  25.0219078
  15.2636232  25.7486515  24.9497166  80.4745865  40.0473480  71.7789917
  80.2648773  39.1177216  71.8687134  79.7917328  40.3924942  71.2038193
  81.1878128  50.1569519  87.9391327  81.0704803  50.1532364  88.8891068
  80.6989517  50.9237747  87.6404114  29.4234524  61.4831352  10.1480751
  30.3495655  61.4267960   9.9127626  29.3243752  60.8726120  10.8786049
  30.8265476  39.2527657  12.3582096  29.9730320  38.9913521  12.7037630
  31.4436989  39.0402565  13.0583496  24.0839672   1.6219242  77.9557953
  23.8654327   1.6144304  77.0239029  24.8225918   1.0180748  78.0334549
  30.6831684  10.0742712  70.5507584  31.3155041   9.6292124  69.9865723
  29.8645592  10.0547180  70.0550537  55.3337021  17.0739727  59.3603592
  56.0951729  16.4955425  59.4029884  55.6828957  17.9441910  59.5527534
  44.4903374  36.1815491   4.1108370  44.4976196  35.2333260   4.2414060
  43.5939789  36.4451027   4.3189526   9.7088919  43.2605362  40.9470024
   9.0338793  42.7489662  40.5010376  10.4499950  43.2589188  40.3412018
  29.4889336  52.8563461   2.7657249  28.5701485  53.0760574   2.6114736
  29.4644489  52.1980438   3.4601829  61.8622208  53.7525215  51.8964157
  62.1443481  53.1139374  52.5512810  61.3835335  54.4132881  52.3968964
  36.0903053  23.9226513   8.1982565  35.1418571  23.9768143   8.3154802
  36.3863144  24.8327389   8.2169724  80.1661606  42.5729485  15.7303019
  81.0058746  42.7807770  16.1400814  79.5119019  42.9347267  16.3280411
  67.5344162  15.0594816  75.0466385  68.3418808  14.7147064  75.4278870
  67.2459793  15.7316685  75.6640549  84.0098648   9.8885946  35.8052444
  83.1697311   9.4490070  35.6742210  83.8982391  10.7459154  35.3944244
  60.0209465  66.3786469  73.6290588  59.6069489  65.5445709  73.8507843
  60.8439217  66.1327133  73.2066040   3.0957522  11.5982122   1.8147459
   3.7180843  12.3229980   1.7545791   2.6238654  11.7549772   2.6326575
  63.9289780  38.6247787  84.8791351  63.9222946  38.9885788  83.9937820
  64.1189499  37.6949272  84.7545624  58.1896095  60.6687050  39.2371635
  57.9899826  61.3600960  38.6060066  57.3849220  60.1530304  39.2900314
  46.1288414   6.4073434  42.9677773  46.8736038   6.3544087  43.5667419
  45.3658409   6.4845901  43.5405693  72.8862839  21.1594200  14.1043053
  73.3996201  20.8944530  14.8675251  72.0534515  20.6982288  14.2039652
  37.8563423  51.7488899  66.3791122  38.8073883  51.8567047  66.3680496
  37.6883430  51.1815987  67.1315689  21.6900043   3.9267240  65.9768677
  20.7563972   3.9076664  66.1872177  21.7504635   4.4915895  65.2064743
  77.1231842  43.9913483  52.5447578  76.6034698  43.7481499  53.3109093
  76.6112976  44.6771851  52.1159935  84.3191910  51.2381172   8.2964315
  83.5646515  51.7903137   8.5013113  83.9535217  50.3586807   8.2009802
  42.2205009   3.0242937  24.4687901  42.6583061   2.2452722  24.1257362
  42.8776550   3.7171044  24.4024715  22.1358452   3.9339097  38.0737190
  21.4096451   4.3538651  37.6127396  21.8258801   3.0456328  38.2501259
  63.6586876  21.0721321  78.5609283  63.4276466  21.8778057  79.0232468
  63.4865532  21.2668495  77.6396866  69.3877258  49.6982498  40.7554474
  69.6966171  49.7623215  39.8517265  68.5728607  49.1996460  40.6952667
  64.0387878  11.2188520  10.6601191  63.9433250  12.0103588  10.1303682
  63.1693382  10.8185883  10.6515303  78.9179230  68.5960541  48.9508133
  79.2049484  67.8315201  48.4514732  79.3854370  69.3308411  48.5536346
  79.1128693  18.1520233  52.0735207  79.2763748  17.9235020  51.1584930
  78.5936584  18.9550304  52.0307465  10.3227043  16.9780178  84.8759842
  10.8144264  16.8334942  85.6844101  10.9129906  16.6863270  84.1812134
  69.4296265  65.8374634   3.7580411  70.2473831  65.4148331   4.0205131
  69.7059402  66.6420593   3.3192799  17.3805485  61.0568466  10.6917820
  17.0306072  60.7999268   9.8386908  16.8368034  61.7973404  10.9605608
  19.5384483  46.8519745   7.6200924  19.9735870  46.0045471   7.5265379
  19.9427357  47.4040031   6.9507294  65.8613739  22.0230370  85.2268066
  66.4302673  22.7404022  85.5060577  66.4641800  21.3374386  84.9390259
  68.9731216   2.1869724  87.8737640  68.7102585   2.9738367  88.3512421
  69.9273376   2.1697688  87.9472885  85.3846741  67.3045425  34.6877899
  84.7740631  66.7958069  35.2212448  84.8238678  67.8511581  34.1373863
  64.1145325  33.5896149  83.1041794  63.3229027  33.1931763  82.7403259
  64.7449722  32.8705711  83.1460648  50.3296318  14.7135677  80.1143341
  50.6091766  15.6055775  79.9084091  51.1457825  14.2316828  80.2481918
  67.2593079  37.3727837  37.0543365  66.6121979  37.4504318  36.3533020
  66.7387848  37.2511864  37.8483810  13.4615593  30.0046940  61.6204834
  13.3017988  29.2337170  61.0761452  14.0684662  30.5384083  61.1076050
  66.2452850   1.9902776  85.8552551  66.2155151   1.9763799  86.8118896
  66.4330826   1.0847536  85.6082916  67.1632080  13.3519506  72.2213821
  67.6536331  13.2367382  73.0352936  67.6917572  13.9626675  71.7076797
  25.0921898  22.3063583  61.4621315  24.8057346  22.9523106  62.1078262
  25.0054989  22.7541847  60.6206055  65.7823715  24.5614948  51.1736374
  64.9755325  24.9678955  51.4900055  65.8761749  24.8819504  50.2765656
  57.9399071  37.8880234  86.9348068  57.0049896  37.7476158  86.7849808
  58.0213814  37.9638977  87.8855133  53.2954750  63.2089462  65.4026413
  53.2909012  62.2646179  65.2462692  54.2150192  63.4611740  65.3186798
  69.3965149  13.3656540  76.2864227  70.0750504  13.0802345  75.6745758
  68.8149567  12.6098452  76.3687592  58.9653168  60.2055817  84.3811646
  59.2287560  59.5667496  85.0435257  58.4508705  59.6999321  83.7519608
  56.9225044  68.8553314   0.6178566  56.0886230  68.8516617   0.1479004
  57.0332184  67.9526138   0.9162948   6.1302309  26.6468105  73.5828247
   6.6976304  27.4029140  73.4325104   5.8590136  26.7288952  74.4971237
  41.9321823  48.6640739  53.6137962  41.7714157  47.8196030  54.0348129
  42.6370964  49.0577087  54.1279755  78.4419632  66.3763428   7.9293122
  79.0005341  65.9240265   7.2971396  77.6884460  66.6690903   7.4167256
   5.4930701  70.1566391  68.6920776   6.0507960  69.6904984  68.0692825
   5.3493328  71.0134201  68.2902069  71.4899292  10.3667192  85.2811279
  72.0299530   9.5958529  85.4554214  71.7013245  10.6083279  84.3793716
  26.2337399  56.8538170  15.4519196  26.4542198  56.5807838  16.3424664
  26.4359970  56.0908165  14.9104805   2.6132488   0.9275272  80.7782593
   2.6538324   0.5101953  81.6387405   1.7001309   0.8307131  80.5079346
  22.5897102  50.5785103  63.7541885  23.0183983  50.3950233  62.9182510
  21.6941185  50.8185844  63.5164642  83.3557358  13.3131170  80.2798233
  82.8888397  12.7157764  79.6955032  82.9882202  13.1369572  81.1459274
  11.8303471  26.9631538   8.4466476  11.9876394  26.8362961   7.5110207
  10.9439993  27.3214378   8.4940968  59.6576118  20.7393303  55.9657097
  59.4505501  21.1517944  55.1271210  59.0369682  20.0139675  56.0355721
  55.4275436  44.4680328  76.0282974  54.5802269  44.1825562  76.3700333
  55.2834473  44.5730057  75.0878448  67.5804977  54.0677338  46.3897858
  68.0058594  53.3329277  45.9477844  66.6492844  53.9556274  46.1986885
  24.9622498  33.4874001  76.6990662  25.8206768  33.4070549  76.2832870
  24.6182289  32.5942650  76.7127914  63.4070816  37.2203293  72.0073700
  62.5971680  37.6126137  72.3335342  63.1948547  36.9372330  71.1179581
  36.3909264  67.1388779  27.9204350  36.3431091  66.7551956  27.0448017
  36.2063599  68.0683136  27.7850780  40.6675835  25.9653168  85.9408875
  40.9338112  26.8216362  85.6061172  40.6442833  26.0764008  86.8913345
   3.4103456  47.0996094  60.0427933   3.5764008  48.0023613  60.3142624
   4.1608071  46.6074867  60.3757401  64.1012955  35.3950500  77.9375916
  63.3352356  34.8238449  77.8818359  63.7595444  36.2214317  78.2789536
  38.6654549  71.4266357  15.5524454  39.2287521  70.7351456  15.8999624
  38.6412392  72.0866470  16.2452850  21.1787739  45.2493782  64.1689072
  20.3863831  45.0339622  63.6770287  21.8879433  44.8435593  63.6702843
  46.8960686  54.4234962  27.5801907  46.5291824  55.3075905  27.5827160
  46.8102531  54.1259804  28.4859219  63.0500717  65.1926956  76.2022095
  63.9465675  65.3199310  75.8918228  62.6327858  64.6667175  75.5199661
  11.2876205  62.0779877  73.2865219  11.7833033  62.3473244  72.5132217
  11.2884560  61.1214714  73.2503738   6.7707944  41.0597878  89.2151031
   5.9004192  41.3218269  88.9150772   7.3270998  41.8152275  89.0251923
  64.9886856  55.3653755  74.5443344  65.5787125  56.0006104  74.1386566
  64.4488449  55.8858261  75.1392593  13.8611879  27.1314201   1.7212048
  14.7560110  26.9979897   2.0338070  13.7758293  26.5348663   0.9775186
  60.0981293  68.8255615  71.6315231  60.1914062  67.9629288  72.0357513
  59.3401222  68.7385178  71.0535278  83.8706284  48.4317398  86.3026047
  84.4183884  47.6467590  86.3040085  84.4830246  49.1513939  86.4552612
  79.5006104  27.7233467   2.3705668  80.4163589  27.9086552   2.5786619
  79.2567062  27.0181828   2.9701362  15.9169655  20.3865871  21.5420666
  16.6414433  19.7951889  21.3380737  15.9584217  20.4973907  22.4919281
  26.9772549   4.4291964  65.4485550  27.1167583   5.3683577  65.3271255
  26.1478920   4.3695889  65.9227219  55.6623650  61.1974106  49.8774223
  56.4325294  60.8100243  50.2933655  56.0100822  61.6654015  49.1182709
  44.3541222  63.7511826  53.7039528  44.9289284  64.4987946  53.5399208
  43.5484848  63.9602242  53.2312164  56.8763618  28.0460758  71.3548813
  57.5938187  28.2863979  70.7686005  56.5278473  28.8828449  71.6624298
  63.4644737  20.5108509  88.3176804  62.9537163  19.7884636  88.6830826
  62.8085022  21.1353359  88.0079269  82.9585648  27.4912186   7.5565624
  82.1107712  27.4443703   7.1146584  82.8721390  28.2265682   8.1632118
  75.3631516  38.3514595   0.8145586  75.8540039  37.6240349   0.4322573
  75.9925156  39.0716972   0.8518679  69.6793900  45.5415535  23.5828342
  69.6951447  45.3508415  24.5207100  69.5171204  44.6939468  23.1687546
   7.6140966   1.8988839   1.8019249   8.2059565   1.3784616   2.3451505
   7.1085181   2.4175975   2.4276710  81.7587051  17.3021469  53.0943108
  81.9638519  17.8493977  53.8523750  80.8218765  17.4349251  52.9495506
  33.3396492  65.7674561   1.7665031  33.4602203  65.5090561   0.8527615
  34.1824150  65.5824661   2.1809282  49.8819008  19.8134518  10.9540386
  50.5195389  19.8895664  10.2442093  50.4046707  19.5823040  11.7218361
  27.9655037  62.6819191  26.9508152  28.7866421  63.0726624  26.6520119
  27.3288956  63.3950043  26.9011211  40.0496368  62.7294006  46.9471130
  39.8384705  63.1515121  46.1143684  39.5027084  61.9440002  46.9629936
  62.2949257  65.3067398   4.5018830  61.8855133  64.4433746   4.4452009
  62.8082352  65.3816833   3.6974404  15.0388231  50.2928581  17.3334332
  15.5430794  49.8594856  16.6448498  15.4168949  51.1703415  17.3909855
  10.6612492  37.4189949  15.2855749   9.8944025  37.3221855  15.8502026
  11.4070091  37.2699547  15.8668327  28.3838043  14.5386877  74.1149445
  27.8596992  14.1052265  74.7884827  28.9549942  13.8496275  73.7755737
   7.1665277  70.0708160  76.3634567   7.1751385  70.8597183  75.8214417
   7.9838772  69.6223145  76.1466217  74.6683197  58.4222183  42.1448708
  75.0469360  57.7652397  42.7290497  75.2299347  59.1899300  42.2518120
  63.9641533  67.2990799  12.0765448  64.4775467  67.3122711  11.2687788
  63.2674637  66.6648941  11.9072151  37.8130035   6.5803409   8.2449636
  38.3536949   5.8075733   8.0815182  37.6292839   6.5498829   9.1838732
  84.2791824  19.5953846  77.4444885  83.4884567  19.5383987  77.9809036
  84.2716599  18.7941303  76.9208832   3.9741011   6.2678800  81.3871078
   3.7723064   5.3424459  81.2489700   3.1466527   6.7204504  81.2235870
  31.8444767  69.8377533   8.0552454  30.9829483  70.2499390   7.9911766
  31.7308044  69.1451111   8.7060575  37.2334137  62.3265228  54.3292694
  37.8668823  61.9419365  53.7234268  36.6990852  61.5868797  54.6185112
  36.3271179  52.1406822   4.4736915  36.4566765  52.4634552   3.5819161
  36.9326401  51.4034843   4.5519204  27.0656147   1.6954988  63.1951256
  26.4039860   1.6480434  63.8852158  27.8992538   1.5990458  63.6555290
  37.5777588  68.0929642  17.0268726  38.2572899  68.7599258  17.1249943
  37.2112541  68.2506409  16.1567879  73.5032043  20.0633011  25.6900330
  73.4704590  20.1272202  26.6445351  73.2919846  20.9451656  25.3835449
  12.4779215  56.0896301  16.7406940  12.6823788  57.0239868  16.7781200
  13.2589989  55.6594086  17.0886326   0.8349512  12.5067120  23.7640018
   0.9747723  12.9691734  22.9376793   1.2977351  13.0342331  24.4149895
  82.1084213  22.0516338   1.2010148  82.9261856  22.5342655   1.3216584
  82.3531036  21.2953110   0.6677823  29.6660709  44.5874863  46.3502388
  29.0200024  45.2771683  46.1980286  29.3285789  44.1055527  47.1052666
  82.6668549  40.4778709  43.9366035  82.2948837  39.6317482  44.1854935
  83.0048141  40.3399696  43.0517311  71.4756165  62.8413010  49.6881218
  71.0088425  63.5783730  50.0819283  71.0984268  62.0676308  50.1069336
  47.9754791  13.8178720  11.8815298  47.0257645  13.7028294  11.8492785
  48.1477127  14.5535908  11.2939205  15.9522762  42.5739708   0.5537205
  15.4236021  42.6638527   1.3465991  15.8163424  43.3950386   0.0808534
  45.2864380  59.6201744  50.8438454  46.0886803  60.1039276  51.0403709
  45.5379410  58.6995010  50.9168777  64.1619263  69.5286102  32.0551262
  64.5804520  69.4829102  31.1954861  64.6413956  70.2152023  32.5187492
  62.2148323  56.8190422  28.0679836  62.7050476  57.2482605  28.7691917
  62.8073959  56.1420822  27.7411461  83.3646851  33.1119652  20.2782841
  82.6843872  32.5067940  20.5735741  83.8041000  33.3891182  21.0822315
  25.8182011   3.7348063  20.2063580  25.6270161   4.0053959  19.3083267
  24.9966698   3.3596647  20.5235138  60.0025749  12.5172319  37.0540695
  60.4381790  11.6662741  37.1025314  59.4615631  12.5546227  37.8428307
   8.5022278  69.4232712  65.3145599   8.8656607  68.6135483  65.6730194
   7.5648632  69.3679352  65.5003433  74.6838531  29.6664181  20.8936195
  75.2640305  29.6942425  20.1327991  74.7253799  30.5501881  21.2589397
  32.0369263  68.4835892  78.8350372  31.9478970  69.4293976  78.7177353
  32.9156837  68.3687744  79.1967545  15.6359835  15.7799635  20.1140347
  14.9079037  15.2185793  20.3804531  16.1982574  15.8260908  20.8873081
  23.3551140  57.4231033  50.0738258  23.8759594  56.9102936  50.6918678
  23.1152458  58.2121544  50.5597229  49.3141022  26.8715267  28.1273842
  49.2600861  27.4087086  27.3369732  48.9355087  26.0303936  27.8716545
  75.5749283  23.2728691  49.1502914  75.0197220  24.0525723  49.1565170
  75.3604736  22.8326912  48.3278046  78.8943710  27.9563446  57.9202766
  78.7045288  27.2857971  57.2641106  78.0570297  28.1056347  58.3593674
  19.6834946   0.3962826  46.3815498  20.5447216   0.4606231  45.9687805
  19.8693218   0.3666117  47.3200684  51.5087624  65.9872894  33.7556992
  51.8007088  65.6638031  32.9034309  50.6010475  66.2550201  33.6121368
  22.8927174  42.4343681  69.5473328  22.1666927  42.5559235  70.1591721
  23.3918819  41.7027168  69.9103088  18.2237453  48.1190071   0.8054379
  18.2403297  47.2976303   0.3142188  18.3630314  47.8567352   1.7154076
  72.2416458  13.1383047  88.6735382  71.3410873  13.0141449  88.9732056
  72.6807175  12.3149214  88.8868256  25.3096695   5.2578549  27.6990662
  25.2568226   4.5344567  27.0744591  24.7596893   4.9818802  28.4322720
  81.3293839  19.5077381  47.0470238  81.9244995  20.2016792  47.3307762
  80.8651123  19.8817310  46.2981491   2.3269031  39.2042809  42.4625626
   3.2215855  38.9170113  42.2802086   2.4134271  39.7988052  43.2077370
  45.4163208  37.8045807  53.9512444  46.3548546  37.8626213  54.1301804
  45.1920967  38.6537399  53.5706100  74.2252960   7.1046762  55.5102959
  75.0408783   6.6101909  55.5911598  73.5842896   6.5915165  56.0022469
  11.7813883  43.5052071  39.1538010  11.4992933  43.7002563  38.2601509
  12.5816174  42.9912491  39.0455589   0.3226513   1.1617402  45.8625336
   1.0538878   0.7211165  46.2954025  -0.3793183   1.1563685  46.5132599
  85.0044708  67.3807526  70.3736954  85.4227142  68.0176468  70.9530716
  84.0713348  67.4500809  70.5754089  34.1608925  51.2874146  70.9492188
  34.4548378  52.0216141  71.4884567  34.9568253  50.7855949  70.7734451
  22.9952221  52.5591240  58.4339371  22.9183064  53.1896706  57.7178879
  23.7834835  52.0569725  58.2272491  59.6694260  49.3376236  86.3080063
  60.5572357  49.2810211  86.6613083  59.7757607  49.7714005  85.4613876
  61.4393997  51.3755264  80.5276718  62.2359962  50.8687630  80.3700333
  61.5227852  52.1373901  79.9542236  13.2288609   2.2071302  -0.2185407
  13.2329512   2.7712064   0.5547854  12.7376938   1.4317786   0.0531498
  13.7791147  46.6027870  74.8107529  13.7126799  45.6958008  74.5121002
  14.4001856  46.5704727  75.5383911   8.2932844  47.7580643  41.8123817
   7.9800901  47.0472984  41.2529564   8.3063965  47.3820839  42.6925507
   4.5343781  50.1745110  88.1613007   3.7238152  50.3362122  88.6440811
   4.8934827  51.0465050  87.9972839  14.1527691   1.3660419  48.7810822
  14.4812880   0.7909657  49.4721642  13.2462130   1.0884970  48.6493340
  42.0386429  17.9906979  11.9358511  41.5828857  18.7804966  12.2269478
  41.4581146  17.6078568  11.2780876  49.4454498  47.5640564   1.9644667
  49.3464317  46.6924057   1.5815115  49.2322807  47.4446793   2.8899610
  68.9548950  55.7070198  48.0480919  68.4967575  54.8890305  47.8551445
  69.1103439  55.6775551  48.9921265  32.0035706  67.4774017  61.7176132
  31.2208595  67.2935791  62.2370415  32.7026711  66.9950256  62.1589890
   2.9995897   3.4499881  68.3958664   3.7270186   3.3214998  69.0046158
   3.3988893   3.8601112  67.6286697  27.3035793  68.3595886  25.3296642
  27.8238487  67.8033066  25.9094086  26.6807442  67.7604065  24.9182186
  13.4464569   9.3467569  13.5738802  13.4897804   8.3930244  13.6427927
  14.3131132   9.6037626  13.2591000  46.2672577  12.3839378  88.9301300
  45.7888069  11.6166954  88.6160355  46.9695969  12.0232344  89.4712906
  18.0523529   6.8843045  51.8787689  17.2819366   7.4301243  51.7213821
  18.7455158   7.5063634  52.0996742  34.5303917  56.3865395  36.4289742
  34.9649315  56.9935226  37.0281219  34.3741951  56.9018288  35.6375771
   9.7366285  40.3403282  43.8472023   9.1212215  40.0754395  43.1635780
  10.0072193  39.5188370  44.2572784  55.9827576  13.5786123  34.5144501
  55.1058273  13.2015848  34.4432030  56.1762733  13.9028091  33.6348610
  62.7005386  54.6885414  42.5378990  61.8984680  55.0130119  42.1284676
  63.3166161  55.4178772  42.4689598  42.0581360   2.4221518  71.1685715
  41.7045517   2.0936520  71.9951935  41.9479179   3.3715186  71.2213593
  79.6262741  61.1466713  60.1271095  79.9472198  60.2467232  60.0695190
  80.4190521  61.6815491  60.1675987   7.7160630  34.2484512  21.1410637
   7.1626096  34.5092812  20.4049320   7.8014054  33.2992325  21.0520077
  80.0679016  32.0015373  30.7368927  79.3898239  32.6215401  31.0052834
  80.8694458  32.5235825  30.7017994  43.0118599  61.4435844  23.5159683
  42.3043327  60.8567772  23.2489605  42.8459930  62.2536621  23.0337906
  68.3312912  42.3544731  38.6323318  67.9586334  41.7612839  39.2846222
  68.9728394  41.8214798  38.1626778   2.4726963  27.1593018  53.5477600
   2.1016679  27.4798832  52.7256927   2.2898538  27.8541985  54.1801529
  22.7226925  55.1172905  33.5466499  22.7432060  55.6723480  32.7670822
  22.3116150  54.3048286  33.2514381   1.3648820  69.9566574  12.5942593
   2.2978165  69.7832870  12.7199936   1.0734143  70.3177643  13.4314432
  84.9261932  27.4602356  83.4786301  84.4064026  26.7989082  83.0217972
  85.4160614  27.9013100  82.7845764   5.1340985  27.3361511   7.7094336
   4.7736149  28.1969547   7.9222717   5.9502583  27.5260067   7.2467551
  29.9616394  49.2051277  30.0279350  30.4418373  49.7404404  30.6596642
  29.4768162  48.5782394  30.5647659  61.3024712  29.5498924  65.3406067
  60.7414703  29.0666637  64.7339706  60.7337761  29.7518044  66.0836029
  72.1851501  23.2036266  74.4895020  72.4691086  23.3690128  73.5904770
  71.3162994  22.8125038  74.3981247  76.0120544   9.8716135  81.0780411
  75.3377762  10.4211531  80.6785583  75.5827179   9.4808893  81.8391113
  74.0540543  25.2754478  17.4438133  73.3185501  24.9329681  17.9517326
  74.0694275  24.7376842  16.6521034  67.3247528  63.2061615  24.2931900
  67.8184509  62.4379234  24.5800858  67.6379471  63.3739281  23.4043732
  32.4891968  53.6690063  17.9029160  32.2212410  53.1605873  17.1374474
  32.5591164  53.0237846  18.6064987   3.2999902  64.1910019  72.4543152
   2.5623453  63.5809975  72.4559631   3.9115195  63.8256187  71.8149719
  21.8592129   2.8841937  48.9121513  22.4453468   3.5750518  48.6032906
  20.9889336   3.2823060  48.8933716   0.2298662  67.8323517   5.8395820
  -0.4060334  67.5128326   6.4797149   0.3034948  68.7690887   6.0221481
  57.5120010  69.6614761  23.0001545  56.9500465  70.0705414  22.3420448
  57.0330811  68.8780289  23.2704945  65.1366272  15.1741123  66.0730515
  64.8032455  14.2905989  65.9165421  65.5062637  15.4430923  65.2320709
  24.8017063  59.2073784  68.6322479  25.6897717  59.3378372  68.2997589
  24.8969364  59.2286224  69.5844650  48.7085381  20.5443993  61.9425240
  49.5074997  20.8768349  61.5334015  48.0085182  21.0828457  61.5733643
   5.0250349  46.6553726  24.6941395   4.7370639  47.1355095  25.4705238
   4.4145370  45.9212494  24.6264076  73.0570908  67.7091293  36.7169113
  73.8041763  67.1214676  36.8298187  72.3778839  67.1604309  36.3246765
  65.5970306  11.1383648  14.7731199  65.1029510  11.0414362  13.9590406
  66.4891129  10.8773813  14.5443983  58.5704765  46.6062927  50.9663162
  59.4708176  46.5602112  51.2880211  58.2449646  45.7088470  51.0361137
  13.7482777   9.0822563  82.8679810  12.9745913   9.1716204  82.3115158
  13.4462395   9.3347816  83.7404709  42.2505493  63.7240028  64.8616333
  43.0299263  63.7526970  65.4165955  42.5671425  63.9661942  63.9913788
  61.7495918  63.3786011  74.4982376  62.0892372  62.8255882  73.7946320
  60.8176384  63.4719620  74.3008194  33.7678528  10.5958233  70.6147385
  34.3426361   9.8372278  70.7166672  33.8064384  11.0410099  71.4612350
  36.4256554  20.7796001   7.3820810  36.4601326  20.7915173   8.3385859
  36.3356628  21.6997509   7.1341753  77.5736847  32.6057510   2.2967565
  77.3602676  32.5528030   1.3651559  77.9933319  31.7684288   2.4943020
  54.6626816  36.8086739  69.9313507  54.4679375  36.4130135  70.7809143
  53.9883575  37.4786644  69.8189468  78.1190872   1.8764127  23.2153454
  77.1750259   2.0262022  23.2658100  78.2236481   1.2445236  22.5039978
  47.0463142  60.9151840  42.2478943  46.9687843  61.8218422  41.9509163
  47.9893875  60.7572670  42.2915497  22.2260723  61.1905174  81.9207687
  22.4668102  61.9292221  82.4798660  21.4765148  60.7906456  82.3617859
  54.4156227  66.1092453  45.5219879  54.3791695  66.0381775  44.5681267
  54.3129196  65.2099152  45.8332672  80.8141861  14.9704189   8.0701838
  80.7231979  15.4862556   8.8713493  80.5566940  14.0844765   8.3252039
  14.2812853  60.9706497  32.5416756  13.7802601  60.1551056  32.5318909
  14.9161663  60.8532486  33.2483406  34.8627357  33.0135002  14.5378532
  35.0352783  32.1070862  14.7925463  35.4794083  33.5296898  15.0569839
  84.6627350  36.6146545   2.1047714  83.8924713  37.1433258   1.8963505
  85.2945938  37.2408829   2.4580729  24.1946106  16.1162777  84.6631851
  23.3408070  16.0069256  85.0818634  24.1641808  15.5365295  83.9021301
  11.9896650  10.7069569  19.5412159  11.2566729  11.3027401  19.6961250
  11.6738205  10.1099157  18.8629723  40.5337601  60.0127029  47.9517212
  40.5063362  59.0706825  48.1192894  40.8158073  60.3956261  48.7824135
   9.7426062  56.6899376  44.1815758  10.4649162  56.0825653  44.0215797
   9.2330256  56.6747971  43.3714371  16.8080425  43.9141083  76.1203613
  16.9069843  44.0263023  75.1749191  17.6385307  44.2188759  76.4859238
   2.9746790  10.5415182  31.5510979   2.8600090  11.2149849  32.2215652
   3.8670969  10.6721716  31.2305489   8.7942038  53.5476494  14.4989576
   9.0544682  53.5143394  15.4194927   9.1387033  54.3828430  14.1827278
   8.2793341  29.3684273  18.0665970   8.3561306  28.9952316  18.9446964
   7.3378496  29.3842735  17.8945827  22.4458694  60.4145508  14.0989170
  23.2850094  60.2247200  14.5184917  22.5758171  61.2637787  13.6768341
  75.9393616  12.3848782  74.5600815  75.9204559  13.3311405  74.7031326
  76.8370209  12.2025318  74.2822647  68.4992294  56.8957939  19.2097721
  68.4383850  56.0616226  18.7442722  68.4596481  56.6567574  20.1357994
  61.6494675  66.2334595  45.5905457  61.2590370  65.9918060  46.4304237
  62.5189362  65.8334656  45.6066742   1.3013588  53.8682594  79.1986008
   0.9392639  54.0268669  78.3268433   1.6638998  54.7132263  79.4647293
  11.7550688  62.3175697  88.4505539  12.1883049  61.7423553  89.0811615
  11.3357258  62.9895172  88.9880142  20.7025928  32.6952629  69.5075760
  20.9264336  31.7653599  69.4700623  21.5357685  33.1476784  69.3757858
  31.2973156  10.1075029  84.1816559  31.2138100  10.5109367  85.0456619
  30.3949986   9.9698944  83.8933563   0.9475087   5.6310067  83.5434341
   1.7315320   5.6268206  84.0925446   0.3258594   6.1831226  84.0177307
  24.0842762  42.3192329  80.6681976  23.2457256  42.7785034  80.6219940
  23.8595066  41.4403915  80.9737244  74.0372772  39.5940132  62.4768448
  73.5505371  40.2243690  63.0078545  73.9431686  38.7639694  62.9441757
  19.0230198  46.5783348  35.4670525  18.4510174  45.8303947  35.6391869
  19.7058735  46.2306137  34.8934364  42.9019089  65.2668839  26.7069511
  42.1649971  65.8770676  26.7363968  43.6771965  65.8242111  26.7743816
  68.4860382  20.2042141  87.5713730  67.5396881  20.1817665  87.7133560
  68.7988434  19.3648930  87.9088974   0.0802384  34.5159874  78.1734390
   0.4911715  34.1213951  78.9426346  -0.2950617  35.3352699  78.4961700
  73.2658005  69.0858231   4.8454714  73.0426865  68.4188919   4.1961260
  72.4222641  69.3657608   5.2008634  33.3205070  58.1175537  26.9972382
  33.6863785  58.9531860  26.7072659  33.7554932  57.9423027  27.8316879
  39.2840195  56.7227898  24.7499599  39.6047821  55.8307190  24.6174889
  40.0754013  57.2607002  24.7745209   3.0158818   2.5360477  55.9491615
   2.9942806   3.3047402  55.3791809   3.4171650   2.8499467  56.7595139
  78.5228271   1.5459347  65.3634415  77.7935867   2.1526811  65.2357712
  79.2954254   2.1083007  65.4187469  62.2245979  52.3018608  62.1193047
  61.9950829  52.2345924  61.1924667  62.9242325  51.6598511  62.2400055
   7.2089458  67.5385513   8.8929873   7.1876040  67.9681931   9.7480783
   6.4021411  67.8214722   8.4625797  58.8193665  16.8495197  36.1489334
  59.6426506  16.6021881  35.7279091  58.4435692  17.5121555  35.5693474
  23.3452091   7.5695033  71.0879211  22.5519962   7.1131320  70.8072662
  23.0318508   8.2503672  71.6832886   1.5362535  58.2876129  85.4110107
   1.9981302  58.7624130  84.7200241   1.8156300  58.7128906  86.2217636
  25.4737244  21.4158573  87.5769730  26.3821011  21.1205978  87.6394501
  25.0230160  20.7082119  87.1161804  18.4121571  46.6610718  31.4458046
  17.8829288  47.1428528  30.8101654  19.2535763  47.1173744  31.4517765
   5.1894927   3.1138263  82.8894882   5.8287249   2.5544710  82.4481964
   5.6834779   3.8971057  83.1317291  19.0810661  39.7497940  62.5004921
  19.9327106  39.3186378  62.5714569  18.4682808  39.0396881  62.3095093
   8.7954063  57.8131180  70.0637360   9.6936417  57.6579704  70.3558578
   8.7254982  57.3327599  69.2387543  71.2435989  41.0624123  59.1370163
  70.5216217  41.6906929  59.1213989  71.8401184  41.3659859  58.4527435
  32.2080078  50.5459747  10.4559126  32.2202415  50.3761444   9.5139780
  31.4057579  51.0483170  10.5983162  68.3750839   4.6280227  81.7847137
  67.9677048   4.9660335  82.5822296  69.3155289   4.7117052  81.9421692
   2.3277106  59.0093994  54.2183037   2.2240214  58.4405212  53.4555054
   2.7662368  59.7891121  53.8777504  55.9869728  50.1280251  59.0599289
  56.7743340  50.4929810  58.6560745  55.4499321  49.8411446  58.3213348
  40.7009315  63.4407387  39.5477028  40.7415657  64.3416443  39.2268562
  41.5703850  63.0830193  39.3679161  82.8370514  70.0388794  63.2184029
  83.1673965  70.7599106  62.6824799  81.9447479  70.2994537  63.4467468
  75.3556442  63.4794769  67.6173782  75.2492599  63.8591232  66.7451477
  75.6571884  62.5857468  67.4544373  47.3913994  62.3600273  47.8881493
  48.0033188  63.0504608  48.1432686  46.5301361  62.7034645  48.1258621
  38.9092255  59.8474007  28.0118237  38.6130104  59.8347855  27.1016979
  39.8208847  59.5585365  27.9710121  83.0179977  31.3326015  58.4223976
  83.5019989  30.8762493  57.7341270  83.3405838  30.9479427  59.2373886
  50.4765625   1.2482719  41.3660965  51.0219154   1.1096672  40.5917473
  50.6288338   0.4740635  41.9079857   9.6397457  58.6925621  51.6277008
   9.6009274  57.7513351  51.7974548   8.7234716  58.9648895  51.5775871
  23.4730453  13.4677553  86.4022980  23.5225430  13.2482347  87.3326721
  22.5943737  13.8298569  86.2880707  63.9541016  34.7046013  53.8581009
  63.6093674  34.1450577  53.1621857  63.9326134  34.1540604  54.6408386
   5.0637307  31.0189705  25.4403572   5.6973243  30.7118416  26.0887890
   4.7309065  30.2191772  25.0331841   5.4010258  41.6274796  57.9898376
   6.2978225  41.7132072  58.3133163   4.9726114  42.4420128  58.2529488
  57.7179031  55.3158798  33.3169174  57.2933540  54.5031433  33.5915985
  57.0008087  55.8660202  33.0017128  85.1565399   7.5800872  75.7731323
  85.4261017   7.4755898  74.8606339  85.9493103   7.8682680  76.2255630
   2.2230275  21.8864937  56.4382477   2.8061957  21.1502514  56.2536011
   2.0857370  21.8517189  57.3849144   0.4573852  55.1716576  58.9777641
   0.6880782  55.1128311  58.0506439   1.2751256  54.9880524  59.4401741
  79.8528290  61.6984863   9.0513840  80.5512695  61.7045746   9.7058849
  80.1983414  62.2208748   8.3275309  12.6477499  33.6602974  18.5882397
  13.4682016  34.0760460  18.8532772  12.7529221  32.7422066  18.8378048
  42.1648407  42.2949677  82.0230789  42.5010109  42.8031883  82.7612686
  42.9483681  41.9736443  81.5769119  44.8090096  44.3767967  52.5528831
  44.0573196  44.9378624  52.7436638  44.4262352  43.5209084  52.3600883
  61.0263481  32.4257240  18.2862644  60.6254997  31.9399929  17.5654202
  60.6012001  32.0823364  19.0721169  85.2033615  10.4170847  39.0090332
  85.2992096  10.2603674  38.0696259  84.9157028   9.5759859  39.3640480
  14.5841236   3.4949298  79.5822220  14.5691319   2.5646710  79.3572235
  14.5995312   3.9453766  78.7377777  63.6146660  22.0532112  82.2874374
  64.4129410  22.3884392  81.8792496  63.7705917  21.1135769  82.3823471
  48.6424866  66.9529648  65.3245163  49.5537033  67.2043304  65.4752731
  48.5650177  66.8927841  64.3723602  12.5493279  15.0557404  20.0267868
  11.6558485  14.8440065  20.2971458  12.6227551  14.6985884  19.1417542
  68.5920486  17.8772011  62.9049683  68.1746750  17.6869469  63.7451096
  68.1635742  17.2865543  62.2854691  40.8019333  43.9459076  24.5513515
  41.4820709  43.2777290  24.4665909  40.1087456  43.6588249  23.9569511
  63.4893723  31.3925552  50.6290779  64.4420471  31.4288158  50.7146568
  63.3401299  30.9098778  49.8160706  60.7213631  17.5513287  21.4325523
  60.1018677  18.2687263  21.2991409  61.5305443  17.8538513  21.0203190
  73.8913269  13.7697411  82.3557892  74.7223969  14.1166916  82.0314713
  73.3877411  14.5455685  82.6022110   9.0138540  42.5715103  18.5027237
   8.9997559  41.6388245  18.2879429   9.8873272  42.8640327  18.2425213
  82.4670181  66.0256042  28.2555351  82.0885849  66.8647156  27.9930325
  82.8869095  65.6935196  27.4620323  26.6040859  53.3426208   2.1887300
  26.2180710  53.4786835   3.0540113  25.8828182  53.0104713   1.6542370
  73.5118637  15.2182932  26.3709660  74.4327011  15.2874031  26.1189461
  73.3625107  14.2788181  26.4773254  78.1429443  25.5818615   0.4990028
  78.2430420  25.1147099  -0.3304430  78.1146927  24.8911057   1.1610368
  76.9138107   2.6941981  72.9026794  77.8322678   2.4771829  73.0626068
  76.4244308   2.0943227  73.4656143   6.8898358  50.6486549  54.1550064
   6.5519505  50.1957130  54.9276085   7.1705933  49.9457970  53.5690002
  23.0878181  45.4147377  74.5458984  23.8189278  45.4166031  73.9280777
  22.8487167  44.4918175  74.6312485  77.1822815  47.5597687  28.7437878
  76.8060989  46.8511505  29.2658787  78.0981750  47.5998650  29.0190277
  18.1832199  29.5518570   9.9209471  17.3423805  29.7226944  10.3452520
  18.1935463  28.6047916   9.7824059   9.0596743  10.2979689   8.8585348
   8.5040493   9.5389957   9.0359392   9.6670542   9.9973803   8.1825418
  84.9564056  27.9242954  74.9381866  85.2501221  28.8291264  75.0442200
  84.8638306  27.8118382  73.9921341  67.9976196  14.6115131  22.5608654
  67.3700027  14.4931669  21.8479023  67.4630814  14.6004066  23.3548260
  29.0802383  61.6749001  17.7919159  30.0159245  61.8362732  17.6707420
  28.6996441  61.8092766  16.9239750  52.6629448  15.1604481  48.6201248
  53.1017342  14.3467016  48.8681412  51.8982658  15.2048120  49.1941719
  67.8592834  22.8632565  11.6993961  68.3850632  23.4571705  12.2351694
  68.1646729  21.9888649  11.9410744  63.1178360  58.2088509   0.1774275
  63.2652550  58.7139664  -0.6221715  62.4667740  58.7147255   0.6636794
  30.7583809  61.2088432  88.8042145  30.2789059  61.6991234  89.4720154
  30.5101547  61.6237335  87.9780884  38.7942085  60.2190132  52.6674118
  38.7918472  59.6886978  51.8705482  39.6976395  60.5245895  52.7490807
  13.4251051  65.7797623  53.0372505  13.9205675  65.5039139  52.2661133
  14.0897741  65.9187851  53.7118759   4.7462468  19.1435318  71.8509369
   4.0198674  18.7839813  72.3601837   4.3433223  19.8142757  71.2995911
  74.1960983  67.0386200   0.4818889  74.5459900  67.6436081  -0.1721694
  74.0031052  66.2401199  -0.0094267  39.0188675   9.6982450  12.9218016
  39.5334396   8.8911800  12.9314365  38.6200218   9.7383909  13.7910213
  63.0449982  57.5867157  73.0222321  63.1973953  57.7591743  72.0931091
  62.3516273  56.9268990  73.0327759  67.4989243  24.4596405   9.5259247
  67.1577225  25.1382809  10.1083870  67.6280823  23.6996975  10.0934067
  15.5957232  56.6477814  65.5673676  16.3394756  56.3969536  66.1152267
  14.9899311  57.0801773  66.1692657  24.5247307  11.9333668  88.7000885
  23.7531319  11.9170179  89.2663040  25.0573711  11.1966715  88.9997635
  45.2244453  10.5758457  56.5188293  45.7037277  10.7546825  55.7097931
  44.5509109   9.9453287  56.2638168  42.1437874   3.0704100   0.5706946
  42.2524643   2.9556777   1.5147593  41.2410774   3.3718741   0.4684021
  60.1473427  44.4132652  16.2763233  59.6556053  45.1349564  16.6682243
  59.4865189  43.8943291  15.8177900  56.9420738   1.1829875  79.0985870
  57.5573044   0.4503028  79.1285248  56.5159531   1.1731033  79.9556503
  10.7897110  48.3859940   5.1752625  11.7057076  48.1210251   5.0917549
  10.4638615  48.4083366   4.2755098  53.0908089  50.6614952  84.2791290
  53.0778656  49.9998016  83.5875854  52.4720688  51.3292389  83.9833069
  23.1741219  27.1261940  73.0471039  23.4913120  27.9311161  72.6375656
  23.8095531  26.9430828  73.7391510  40.9032745  25.4615631  88.7061081
  40.9099617  26.0640297  89.4498978  41.2645683  24.6466064  89.0547409
   5.6222725  58.9947777  21.4959602   5.3177257  58.5124969  22.2646542
   4.8920360  59.5708389  21.2698250  78.0424652   5.2418733  35.8732452
  78.1792221   4.3217468  35.6476440  77.4008942   5.5523372  35.2343102
  61.2689629  23.1845226  53.4741898  60.5866127  22.5214081  53.5786476
  62.0517731  22.7843742  53.8527679  70.4110718   1.0662572  47.3882980
  70.0284348   0.1953062  47.4944305  71.3157806   0.8997739  47.1236801
  77.0774994  56.3961868   5.0761328  77.7738190  55.7409935   5.0304251
  76.9610901  56.6855125   4.1711621  80.3291245  45.7855263  76.8149261
  79.6213608  45.1417313  76.8437729  79.8930130  46.6117477  76.6066132
  44.8782654  37.0154800  11.5821590  45.4124031  37.5961494  12.1241455
  44.5018425  36.3895073  12.2007818  64.6772308  64.3728561  35.7865829
  64.5265045  64.5004044  36.7231979  63.8155975  64.4917221  35.3869667
  47.5595016  46.1883774  57.2565651  47.6895752  45.2450562  57.1593285
  47.8206367  46.5545197  56.4115906  53.1231232  52.5981331  86.4754562
  53.6614609  52.0689812  87.0640335  53.3246078  52.2641106  85.6013489
  47.1176338  70.5878372  59.7660904  47.5799789  71.1897964  59.1828957
  47.8111610  70.1646729  60.2722359  47.1007042  60.0152817  57.5180779
  46.9608116  60.6376419  56.8044052  46.2408524  59.9245682  57.9287567
  84.5454941  69.1260223   7.8007078  83.8988953  68.5632935   7.3747096
  84.2395172  70.0162735   7.6273131  66.6320877  32.3816986  60.5537300
  67.5559082  32.5450478  60.7437401  66.3191757  31.8756542  61.3035545
  53.8621368  36.1834526  72.5696335  53.9146881  36.5063477  73.4691925
  53.2398186  35.4573822  72.6117554  59.6065331   1.2712270  42.7043228
  59.8504524   1.9757971  43.3045845  58.6570129   1.1946895  42.7980690
  65.0343781  10.8163671  59.5559311  65.2893372  11.4215755  60.2523155
  65.8067856  10.7593641  58.9934616  78.5473557  31.8672047  74.0556870
  78.8420486  31.0320072  73.6925964  77.6252136  31.7237911  74.2685623
  70.2779312  54.6314316  71.6588593  70.1488876  54.0910263  70.8794098
  71.1970825  54.8954315  71.6177902  44.4097099  36.6630402  70.3068771
  44.4280243  35.7592316  69.9921875  44.4479485  36.5855637  71.2601700
  23.6287861   1.1997260  21.5152378  24.4026737   0.6645573  21.6910915
  23.5186024   1.1566632  20.5653763  30.9678249  55.2573051  40.8739243
  30.1121483  54.8359718  40.9547234  30.9367046  55.7022285  40.0269852
  82.5642242  25.4631767  48.8524780  83.0086136  26.3035297  48.9645462
  81.6380844  25.6909561  48.7711563  78.7302628   4.7060814  47.5492287
  78.3138657   4.1122584  48.1739082  78.1413651   5.4594431  47.5058365
   9.1116438   1.8038067  50.8442116   9.7184944   2.1267588  50.1781273
   9.3638325   0.8897314  50.9749756  63.1355247  53.7696533  82.6489258
  63.8739052  53.3163681  82.2420349  63.1869202  54.6633720  82.3100128
  80.5062943  32.5850716   4.3878565  81.3841934  32.2602158   4.5878477
  80.0140839  31.8043575   4.1339874  29.5799065  58.8930855  80.0357513
  29.8968639  58.3059883  79.3493958  30.3285065  59.0021133  80.6222229
  63.9814873  16.9597759  26.2720337  63.3820877  16.4184837  25.7582664
  63.8997345  17.8345089  25.8920498  77.4090729  36.4017792  20.7466106
  77.7488098  35.8601875  21.4589939  77.6964035  37.2890015  20.9622746
  84.6862717  41.6625175  67.8934326  85.0438614  41.2742538  67.0949326
  85.4534225  41.8406830  68.4374695   5.5110335   9.2116356  11.3271980
   5.7867084  10.1281538  11.3120108   5.4446402   8.9968815  12.2576303
  47.5462952  64.3335037  53.6186867  47.1895790  63.8677444  52.8623428
  48.4894028  64.3643799  53.4579887  35.0407143  71.4197693  29.3357258
  34.1323814  71.4397507  29.0344524  35.0787392  70.6723557  29.9325085
  59.1794395   1.0431273  65.2821274  58.9518852   0.8501522  66.1916428
  59.2087860   1.9989583  65.2402039  35.9058533  18.1475086   6.5000296
  35.8260918  18.0366116   5.5526271  35.8916397  19.0954247   6.6322570
  12.7434521   9.8504496  85.4216385  12.5623560   8.9749794  85.7636719
  13.1994534  10.2967548  86.1351547  12.5260401  26.6106510  67.6911621
  12.9246216  27.0883446  66.9637146  13.0746260  25.8333511  67.7964706
   0.5078383  53.2605286  51.4854317  -0.4064237  53.4529495  51.2772713
   0.5976639  52.3213158  51.3240738  40.0369148  27.3233757  12.2353811
  40.0588303  28.2624683  12.4193830  40.5675354  27.2216797  11.4452333
  70.6096878  12.2906704  51.3268242  69.9448853  12.2432804  50.6397820
  70.3438187  13.0352430  51.8664131  79.8063965  22.5368671  86.1231461
  79.4419098  21.7837658  86.5881500  80.0748444  22.1868458  85.2736511
  63.2665901  15.2756920  40.6560631  62.3259850  15.3988647  40.5283127
  63.3781929  14.3267908  40.7140579   5.8943801  38.6740303  37.0213928
   5.3433914  39.0690002  36.3456421   6.6023569  39.3048363  37.1520996
  67.9257202  27.2191467  25.2853680  68.3174896  27.4943256  26.1142368
  67.8231049  26.2714062  25.3719196  85.4694214  16.7831268  17.6506157
  84.6802139  16.2521553  17.5435715  85.2827835  17.5893002  17.1694870
   2.0857863  61.5985947  72.4717560   3.0303087  61.4433289  72.4731064
   1.7045658  60.7540207  72.2317657  49.2127686  18.8003426  27.3000298
  49.4899178  19.7124386  27.2134247  49.7367744  18.4585495  28.0244789
  22.1452522  25.2998295  80.5439835  22.4544964  26.1171589  80.9345932
  22.8838825  24.6975002  80.6326218  23.8683739  35.7503128  19.1252804
  24.0947132  36.3978081  18.4576359  23.2936382  35.1319504  18.6741257
  62.4147873   1.7997802  21.6969299  62.6922722   0.8837622  21.7089157
  62.8492889   2.1915944  22.4545059  74.5133972  55.4499741  84.3051147
  73.9358063  54.6907845  84.3841553  74.1657562  55.9387703  83.5591507
  56.0981522   2.4261496  41.2164383  56.4911194   1.7108527  40.7162781
  56.1227608   2.1250796  42.1247215  19.9569054  34.0856514  18.6180363
  20.0345898  34.4923706  19.4810410  19.2121181  33.4900131  18.7001419
  54.1361465  20.6901379  12.7231245  54.6324387  20.4420376  11.9431410
  54.5839691  20.2461338  13.4432268  23.9610252  13.5388117  27.2320461
  23.8196011  13.3950558  28.1677628  24.1714745  12.6716719  26.8856220
  55.1583290  52.6858826   9.7341499  54.7465630  53.3284645   9.1564226
  55.9261589  52.3845100   9.2485142  37.6842041  61.4310799  23.7692947
  37.9810181  60.6304016  24.2017860  37.0385628  61.1321869  23.1289520
  83.5184555  45.7554474  25.2523460  84.0378723  45.2398224  24.6354485
  84.1669159  46.2082291  25.7915287  74.2321091   9.0827627  60.3373299
  74.3497772   9.9032364  59.8585701  73.9547424   9.3537693  61.2124596
  13.7132540  54.0146484  67.9849091  13.2106256  53.8960114  67.1789780
  14.3610802  53.3101616  67.9690552  60.7164574  27.8883667  74.5765915
  60.0780792  28.2678986  75.1804657  61.5451279  28.3067646  74.8100052
   4.6234512  11.5546150  24.5822620   4.3276467  11.8996658  23.7398415
   3.8161414  11.3495941  25.0539074  39.9443665  58.4924812  44.4518242
  39.6321754  59.3692131  44.2279701  39.2081184  57.9163475  44.2463036
  56.8001328  22.2677174  64.9612656  56.3300705  21.8105564  64.2639313
  56.5475922  23.1852894  64.8587189  38.8167038  68.9927597  37.7851944
  37.8905754  69.2241898  37.7147980  38.9012222  68.6053467  38.6563988
  85.0693665  37.2190475  65.1117020  84.9337540  37.5784187  65.9884491
  84.5034561  37.7453766  64.5469360   4.4023881   0.7014204  78.7180023
   5.0206676   1.4266466  78.8074951   3.9700079   0.6487318  79.5703506
  78.9968185   8.5818281  64.8182907  78.3556442   8.9639845  65.4175262
  79.7918243   8.4918356  65.3437347  65.6128922  58.3001900  62.3754463
  64.9532166  58.4173851  61.6918335  66.3908005  57.9959297  61.9079857
   4.0675039  41.2505875   0.5001780   3.4493778  41.3792381  -0.2192664
   3.5867105  40.7224693   1.1374861  86.4194641  55.0525818   1.1122392
  86.1859741  54.2003517   0.7442474  86.3139648  55.6648979   0.3841124
  29.1762390   1.2849975  53.4513092  29.3556271   1.8984724  52.7387772
  29.8206902   1.5043831  54.1241989  65.7908401  67.4723206  80.8554993
  66.7098618  67.5682602  80.6056595  65.3075485  67.5783920  80.0361023
  77.7901688  39.5801506  39.0614777  77.5637054  39.0733948  38.2816429
  78.6864548  39.3147926  39.2676163  53.5117531  55.8792496  58.6476440
  53.9470596  55.0519676  58.4418678  52.5856209  55.7126846  58.4722214
  42.7887039  43.4754448  35.5258102  41.9029121  43.3743057  35.1774178
  43.3609734  43.3143959  34.7756081  57.6146889  37.0722771   6.5033541
  58.5374718  37.0608444   6.7574635  57.6258125  37.2858658   5.5703545
  40.4795723  69.8813324  70.9303894  40.3739433  69.2297974  70.2371521
  40.2504387  70.7125854  70.5147629  30.7620049   4.9924412  59.0055313
  30.9718781   5.6120915  59.7042580  30.1975327   4.3422041  59.4236145
  62.6240273  19.2202911  53.5465622  62.2168999  19.5068493  54.3640938
  63.0548515  18.3952141  53.7698822  49.2256317  62.9012299  84.6088791
  49.5526314  62.0286102  84.8276062  49.7500877  63.4951134  85.1459808
  86.3234634  46.1816483  81.7950668  86.9243698  45.5356827  81.4237671
  85.8156128  46.4944611  81.0464249  62.1628609  37.4091949  62.6413307
  61.6347885  36.8831444  62.0407944  62.3426132  36.8242798  63.3773956
  11.7274179  50.5185242  32.3011627  12.3738918  50.4965630  33.0067253
  11.9228678  49.7444839  31.7730579  10.5818777  61.2094307  23.6404934
   9.9751472  60.8659630  24.2963448  11.2318726  60.5156784  23.5289288
  80.7723694   4.0408726  78.0145950  81.0845490   4.8801599  78.3527832
  80.7517776   3.4668350  78.7802887  26.3734112  46.4965897  36.9521980
  26.1143093  47.2237816  36.3862572  25.6703529  46.4339943  37.5987434
  28.4978905  41.5104027  11.2192287  27.8727417  42.2307396  11.1383982
  29.0192738  41.7312202  11.9910002  29.9555035  26.2767010  12.3358078
  29.1745281  26.8001690  12.1561108  29.6995525  25.3811359  12.1151657
  59.2395058  56.3672333  20.8821850  58.4546928  56.9147911  20.8601112
  58.9848061  55.5650978  20.4261856  35.8519249  64.3708191  19.8083477
  35.2281990  64.9963379  19.4396667  36.6517868  64.5017395  19.2991199
  62.7387886   4.1207337  68.2281952  63.1912270   4.5570025  68.9501343
  62.9271660   4.6650176  67.4636688  85.1726227   4.3697052  63.1133194
  85.3769913   3.4417145  63.2286453  84.3445129   4.4920759  63.5775261
  21.4793491  49.2317581  60.3436356  20.9218998  48.5893784  60.7827568
  20.8706856  49.8964615  60.0212479  62.3227348  16.7135658  71.7796707
  62.1440468  15.7836018  71.6401367  63.2733841  16.7623405  71.8802414
  68.9204483  30.8142090  46.9770050  69.7349548  30.5523987  46.5477486
  69.1654510  30.9518814  47.8920212  59.0353584  56.1337776  17.5672989
  58.3295288  55.4914742  17.4932747  59.8017044  55.6905174  17.2033367
  18.3606968  70.2600708  76.5509338  18.1116352  70.1239395  75.6367874
  18.6934624  71.1571732  76.5774765  82.2074661  22.3768291  44.8429832
  82.6290283  22.7214012  45.6302528  82.1838989  23.1193676  44.2393990
  44.4306602  32.5676613  88.6229324  44.9051971  33.0493698  89.3004303
  44.6200676  31.6474514  88.8061447   1.8412273   5.0774078   2.8039482
   2.0461671   5.4989738   3.6385219   1.9454139   4.1416421   2.9763410
  47.6698570  14.1144218  81.1463242  47.8106461  14.1833344  82.0905991
  48.2822075  14.7443495  80.7662582  75.9710083   3.7084806  47.4782104
  75.5184860   3.2412810  48.1804771  75.5531616   4.5693545  47.4552155
  76.7317200  71.2934113  86.6634216  76.9113312  70.5932312  87.2908936
  77.5161667  71.3317108  86.1162415  81.0413284  23.9004269  40.3120079
  80.8461456  23.4924545  39.4683876  81.9903488  24.0250282  40.3039436
   3.7432783  41.9709702  20.9295330   4.5095506  42.4192276  21.2874737
   3.7262526  42.2253532  20.0069103   4.2258229  44.1110916  57.4777069
   4.6593170  44.9393806  57.2721519   3.7922652  43.8588867  56.6624451
  73.2405014  25.5383949  48.7614212  73.5393219  25.3400383  47.8739548
  72.5081024  26.1422424  48.6381874  85.2092590  58.7649422  63.2093925
  85.9932938  59.3003883  63.3310928  85.0335236  58.8077354  62.2694397
  39.3866310  41.6132164  11.9700050  39.6060905  42.0666275  11.1560717
  40.1091003  40.9999619  12.1048546  49.7105980  13.5510950  22.2384987
  49.6509743  13.5634069  21.2832355  50.5623856  13.1540213  22.4202156
  -0.2150774  48.6185341  32.6280785   0.4521372  49.2365150  32.3294868
   0.2602794  48.0050049  33.1883011  66.4936676  35.0533981  33.7178116
  67.3042831  35.5162163  33.5058594  66.7812576  34.2657394  34.1794586
  28.9209270  60.1609840   2.1035619  28.5237160  59.2914810   2.1527121
  29.7845631  60.0526352   2.5018411  42.0075607  52.9368935  77.6214676
  41.4560547  52.1879196  77.8475494  41.4112396  53.5541687  77.1976700
  72.5898285  12.5688591  59.4349594  72.4190063  12.3466167  60.3502007
  71.8767471  12.1529894  58.9503975  77.6381607  39.1853104  82.8102036
  77.0037918  38.8669930  82.1679611  78.4323044  39.3491592  82.3015594
   1.7657325  50.9661446  21.9828167   2.4457622  50.3983421  21.6203327
   1.5401939  50.5642166  22.8217564  51.4918785  31.3602867  29.9150333
  52.3069267  31.8465614  29.7906818  51.5726929  30.6045647  29.3331547
  78.9403000  63.8382683  60.5973740  79.2645493  63.8448715  61.4979591
  79.0364380  62.9287758  60.3148651  78.4767227  44.5215263  26.3550224
  78.4517365  44.8027763  25.4404163  79.1058960  45.1116142  26.7699566
  83.2872543  31.6162968  49.0629997  83.7746658  31.0332012  49.6449471
  83.5400620  32.4970398  49.3397903  19.0524120  43.1489143   3.3511362
  19.9037476  42.7579994   3.5477173  19.0801697  44.0078354   3.7727020
   7.8335433  32.7943954   2.0365639   7.3267975  33.1246758   2.7784231
   8.7342663  32.7589951   2.3585520  18.1578121  49.1403084  78.9922638
  18.9389381  48.6050262  79.1320648  17.6511154  49.0396614  79.7980881
  54.2422714   8.5608892  62.1817284  54.9510193   8.8825150  62.7389221
  53.5369072   9.1969929  62.3003235   0.6962638  44.2570686  79.9529648
   1.2915653  44.8484001  79.4923401   0.0527099  44.0022278  79.2918091
  28.8826294  55.7392883  62.8347931  29.2299309  55.9722862  63.6957932
  29.5663013  56.0064888  62.2204399   1.6853647  45.9910049  88.7605667
   0.9738705  45.6263847  89.2869339   2.4747839  45.5692291  89.0999146
  50.0046806   1.8134668   1.5706677  49.2790642   2.2442410   2.0224938
  49.5925331   1.3551291   0.8383475   5.7890801  66.5742874  52.6945610
   5.4799652  66.1526794  51.8927345   6.6281085  66.9655457  52.4512978
   6.9882298  21.2060375  87.6598511   6.9810767  20.9254875  86.7447128
   7.3248353  22.1017036  87.6331558  71.0425415  41.0580559  86.8955383
  70.5413361  40.3882179  86.4304123  71.2663269  40.6515350  87.7327347
  14.2396393  67.1044769  13.0004282  14.4072828  67.2603073  13.9298601
  13.4366941  66.5836105  12.9859190  60.3500786  34.8745461  68.9502029
  60.9895515  35.1035614  68.2757721  60.8765030  34.5351791  69.6740417
   1.1349105  11.7464790  19.0586853   1.4152119  12.5619373  19.4742451
   0.8616128  11.1882925  19.7866745  51.9317551  41.9601173   5.0655084
  51.9870224  41.3047791   4.3700156  52.6225357  41.7149162   5.6810813
  13.6430750  65.1160889  23.8672962  12.8545341  64.5826569  23.7678375
  13.9160872  64.9733200  24.7735596  49.2066498  36.4887390   1.7355584
  48.2620811  36.5025864   1.8899217  49.4888458  35.6313324   2.0540755
   7.6709347  56.1610870  52.2714767   7.5929933  56.7659836  53.0092125
   6.7961755  55.7840004  52.1774826  19.0846519  18.0427513  12.0123711
  19.3480377  17.5550842  12.7927818  19.8134670  18.6406307  11.8462362
  85.9979553  71.1079178  65.6998596  85.1597977  70.7302094  65.9664154
  86.4875717  70.3708267  65.3348846  68.7433548  14.7204590  34.3748398
  68.9137115  14.2877064  33.5382195  68.4532318  14.0159225  34.9542274
  22.6537838  17.5315189  81.9091797  22.8080330  18.2478962  82.5250015
  23.5051403  17.1026611  81.8225327   7.8407111   7.0092125  56.3401871
   8.7174435   7.3817024  56.4341278   7.3694172   7.6402144  55.7961731
  75.9930954   6.4683599  32.8746681  76.9071274   6.7201734  33.0064583
  76.0221252   5.8214741  32.1697388  52.9482079  38.8277397  79.5439377
  52.9499779  37.8707809  79.5224533  52.0407143  39.0697784  79.3592606
   1.7605590  11.3989334  28.2361755   2.7154257  11.4158831  28.3007812
   1.4682823  11.0816002  29.0906372  78.7697906   4.6674995  31.1776772
  78.7972031   5.5854955  31.4474258  77.9386292   4.5796847  30.7110939
  25.9402561  36.9295044  72.9592285  25.6312656  36.0239525  72.9862976
  26.2408867  37.1067352  73.8505478  47.7686234  15.4052343  65.8995132
  48.4444008  15.9498253  65.4958038  48.2503777  14.6765232  66.2908173
  70.8048782  38.9356041   2.8913434  69.9175873  38.6078377   3.0380042
  70.9510727  39.5580482   3.6036773  54.4025726  63.6892090  68.5973129
  53.9082756  63.1633530  67.9685211  55.3160324  63.4454002  68.4477310
  32.6890945  50.8553467  21.9743176  32.4934845  51.3168411  22.7897835
  33.3633728  51.3884888  21.5531979  15.8980503  59.8225670   8.5400124
  15.2617416  60.4394798   8.1784000  15.5897770  58.9636459   8.2511330
  30.4683552  63.8085213  65.9346008  29.6538372  63.5819397  65.4857635
  30.6674538  63.0413857  66.4713440   7.1135240   7.2834535  59.3991089
   6.2118087   7.5844636  59.2871513   7.5620275   7.5693774  58.6032906
  66.7099380  51.7681122  17.9893436  67.0976028  51.4619484  17.1694603
  67.3320160  51.4968910  18.6643906  21.4824829   7.2021189  88.5901108
  21.8871727   6.4155974  88.9559555  20.8353081   6.8709750  87.9674225
  15.9963341  49.6690102  61.5369682  16.2361050  50.5082893  61.1440887
  16.3903637  49.6914978  62.4090157  16.2775707  21.7862568  14.2478504
  15.6734419  22.4985123  14.0382042  15.8105202  20.9919453  13.9886847
  18.8966579  61.8950157   3.3915725  19.5998936  61.9100647   2.7423701
  19.0296268  62.6904373   3.9071894  36.8559380  45.7817955   6.6419635
  36.5910416  45.0244560   6.1199470  36.7398262  45.4997406   7.5492654
  29.6273270  43.7154617  24.7725067  30.2380905  43.0851898  25.1545506
  29.4543781  43.3787041  23.8933506  25.0813293  62.9946556  38.8995247
  24.4468555  62.2780075  38.8901596  25.1647663  63.2286148  39.8239326
  81.5734024  40.5701828  19.3835659  82.3695984  41.0917969  19.2824345
  81.6111526  39.9344864  18.6689358  18.3469830  54.1405678   4.5591636
  18.9837837  54.7200699   4.1409574  17.6639729  54.0194855   3.8995662
  16.3701038  39.4240952  57.9990692  17.2752209  39.7032661  57.8610039
  16.1355343  38.9646339  57.1927795  61.4350357  15.6323967  74.8558121
  62.3439827  15.7497883  74.5796509  61.2812233  16.3408394  75.4808578
  26.8574772  26.0945950  86.1614685  27.1923561  26.7853622  86.7332458
  26.9709587  25.2895222  86.6666565  77.1129532   9.1360960  35.1857109
  76.6391907   8.5295744  35.7548409  77.4905853   9.7806721  35.7841644
   5.9526734  42.1259422  25.0107555   6.7066932  41.8543015  25.5341072
   5.2333603  41.5779266  25.3246002  26.7311134  15.5015392  79.2287369
  25.8325863  15.4565535  78.9018478  27.0745945  16.3211784  78.8731537
  25.0732994  66.1869278  56.9290047  25.8204784  66.7106476  56.6397362
  25.0371132  65.4584351  56.3091583   2.3100634  14.1020298   9.6169224
   2.7289703  13.4755554  10.2070732   2.0530951  13.5801029   8.8567963
  73.7100143   6.3819475  59.5189056  73.5623474   7.2434320  59.9091263
  74.6599350   6.3254976  59.4154778  62.9192924   1.7690507  26.9884720
  62.3865929   2.5049696  26.6870022  63.7514801   1.8706796  26.5265541
  21.0308533  50.1441917  77.1088638  21.5619678  49.5373955  76.5931625
  21.0716209  49.7995491  78.0009384  86.8731918   8.7826376  34.9982491
  86.9145508   7.9141607  34.5979118  85.9490280   9.0264921  34.9464378
  70.3994751  12.9838371  73.8921738  70.7753754  13.2126808  73.0421448
  70.4110565  12.0268612  73.9093704  75.6379013  33.1920395  12.0386629
  76.4340286  32.8956261  12.4797449  75.9494019  33.5995331  11.2304888
  53.1822968  51.4879608  56.9715538  53.7438889  51.8856239  56.3061905
  52.4550934  51.1104317  56.4766960  10.4976110  27.7504559  69.5467758
  11.3245525  27.6551208  69.0742188  10.5208426  28.6427078  69.8925705
  13.1001387  69.2609940  69.0504684  13.0018101  68.3876038  68.6713181
  14.0438089  69.4211121  69.0415726  74.9185638  70.0178604  72.6808167
  74.9365845  69.1058807  72.3906326  74.7252274  70.5177765  71.8877640
  30.7695675  47.1942139  72.3818741  31.6562176  47.4286232  72.1077652
  30.3913021  48.0151863  72.6967621   8.1976433  22.8961315  74.7429581
   9.0806360  23.2610970  74.8008804   7.8590908  23.2195530  73.9080811
  60.9377213  61.1342201  38.1145477  61.1959991  61.9551315  38.5336266
  60.5854530  60.6017113  38.8276901   4.1150556  23.9037685   4.5616632
   3.6767685  23.5675640   3.7799332   3.4662640  23.8097401   5.2591300
  59.9223862  11.0467405  41.6982002  59.9047165  11.9665489  41.4338684
  60.6061363  10.6545639  41.1551361  61.1765633  67.3657455  14.1902437
  60.5410004  66.7739334  14.5927925  61.7655258  66.7893906  13.7032471
  33.0470619  69.6928101  21.5476818  32.9438744  70.4423676  20.9613819
  32.1583061  69.4962387  21.8438282  64.7082138  68.3937683  55.0240364
  65.4285736  67.9895172  54.5404015  65.0746384  68.5794983  55.8885994
   0.5743442   5.4668574  23.5497169   0.3010212   4.8751397  22.8487206
   1.0471729   6.1676893  23.1008301  11.4635696  28.0996113  76.5739441
  11.9125481  28.6420002  75.9255142  10.8237076  27.6001339  76.0666656
  62.3493385  37.1704140   8.4002371  61.6059761  37.7597466   8.5280361
  61.9962463  36.2980843   8.5751629  15.2091742  11.4749918  72.3332062
  14.7872000  12.1900902  72.8094482  15.8984785  11.1686869  72.9225006
  58.9552078  50.1916885  28.2509995  59.2645302  50.5297813  29.0913830
  58.1882401  50.7262344  28.0454445  18.8356876  43.4224739  57.2886620
  19.2086315  43.6932144  58.1276169  19.1750774  42.5382919  57.1498566
  33.2723236  68.5767365  86.5593491  32.3344345  68.6756897  86.3956451
  33.4576454  69.1911926  87.2695084  38.0194511  59.0875664  25.4486294
  37.1240082  58.9780884  25.7686729  38.3356209  58.1945724  25.3114204
  67.3759308  26.0834980  41.1589203  67.3906708  27.0005379  40.8849640
  67.5066986  26.1145191  42.1066399  49.0534019   0.3765106  52.6672897
  49.4326401  -0.0403480  53.4410057  49.7239418   0.9938769  52.3749352
  50.0206795  40.2027512  30.6256828  50.9297256  40.0019341  30.8482456
  49.7146378  40.7557335  31.3445568  64.3773956  14.7558708  23.3160553
  64.3971329  13.8616266  22.9752197  63.6283264  14.7686253  23.9118500
   4.7954540   7.7985315  29.5350208   5.7293830   7.6919479  29.3543320
   4.7460179   8.5778332  30.0886250  25.7331295  56.4474716   1.8320665
  25.4453182  57.3376541   2.0344725  25.3825836  55.9143524   2.5456016
  63.7238655  31.8169937  35.6331253  64.1990051  31.4231796  34.9014244
  62.8165283  31.8641491  35.3318863  14.9356356  40.3675652   3.3405662
  14.7950487  41.1318207   3.8994751  14.2534180  40.4309196   2.6721375
  81.6115341  70.0546570  86.4039841  81.3413696  69.1929398  86.7213058
  82.1310806  70.4212875  87.1194458  16.7908516  57.6253204  86.3437119
  16.3388557  56.7922363  86.2099152  16.8234005  57.7301369  87.2946014
  86.4501419   4.4044433   1.1493410  87.2140808   4.8204665   1.5487778
  86.5249557   4.6105795   0.2175994   0.8435196  20.1711159  58.4975548
   0.7973532  20.0660515  59.4478493   1.6546053  19.7289562  58.2468224
  14.6870165  30.7287750  84.2929306  15.0943470  31.5546722  84.5540924
  14.0756979  30.9724808  83.5978546  67.2820511  66.8875122  56.2469711
  66.7069016  66.7040176  56.9897766  67.8332062  67.6115799  56.5439491
  65.5601807  29.9808693  67.9019928  65.0302963  30.6022987  68.4012680
  65.2206497  30.0398960  67.0089798  82.1457901  52.5165215   9.2970457
  82.0637894  53.1370544   8.5728579  82.1600800  53.0646248  10.0816545
   1.1384194  30.0230923  58.5548477   1.3286642  29.1738682  58.1562805
   1.8386258  30.1494045  59.1951523   4.2792974   3.1934731  36.1261940
   3.4115684   2.8689616  35.8854256   4.5425987   3.7433829  35.3882904
  64.2439041  10.9254322  36.1972198  64.5805054  11.7344160  35.8118896
  64.9151688  10.2708788  36.0043526  60.9166946  48.2755318  20.2623215
  60.7146034  47.3513031  20.1167526  61.4810181  48.2784195  21.0354710
  68.1366959  56.7995529   2.3568180  67.1993179  56.9926529   2.3732245
  68.3465042  56.5542068   3.2579381  82.5383759  10.8070822   1.8232802
  81.5841217  10.7560091   1.8782301  82.7906113  11.3703451   2.5549526
  56.8997231  50.8000298  64.7489166  57.1107407  50.2084503  65.4712296
  56.0131264  50.5517120  64.4871597  78.4644775  63.7442131  33.0198250
  78.0519409  63.5344696  33.8577118  79.1636200  64.3582993  33.2441559
  64.0312500  52.8596764   1.0152518  63.4489975  52.6015892   1.7298169
  64.8404236  53.1278572   1.4506196  75.7586746  29.4867001  33.8398209
  76.1033020  28.6568184  34.1696014  75.2730942  29.8546810  34.5780830
  55.4332886  19.4533482  66.1016617  55.9322701  20.2701778  66.1080856
  54.7117119  19.6182404  65.4947281  71.1889267  22.6605320  33.1988831
  70.6242905  21.9003811  33.0588951  72.0014801  22.2942905  33.5479546
  62.6925583  68.0332184  50.0975304  62.9982414  67.7810287  49.2262154
  63.0872498  67.3892212  50.6855125  38.0721092  47.0826836  84.8556366
  38.0034943  46.1800766  84.5444717  37.8151588  47.6156158  84.1031876
  70.2113876  11.1698256  70.8115082  70.3765259  10.2676535  71.0854568
  69.2829666  11.1833906  70.5789642  76.2545929  22.3064423  12.8315802
  76.4592056  23.1550579  13.2242851  75.7873077  21.8310604  13.5185213
  50.1690102  52.1330795  72.4227905  50.6249771  51.4503136  71.9307022
  49.2821770  52.1362305  72.0625839  25.6376305  63.1362152  70.2623596
  26.2532597  63.7376480  70.6812973  24.9815769  62.9573135  70.9360199
  27.9416466  30.9670658  12.0408297  27.6112213  31.5730267  12.7040501
  27.5396061  31.2632713  11.2242165  59.8556366   0.8518498  30.9520664
  58.9780312   0.9087112  30.5741634  60.1713982  -0.0144585  30.6950893
  21.3918247  50.1655960  80.9854813  20.6318874  50.6850357  81.2479858
  22.0750980  50.4080162  81.6104584  50.0094795   5.5312233  67.6156769
  50.7500381   6.0045590  67.9948273  50.0344543   5.7533393  66.6849365
  21.9250355  27.1294422   1.1108171  21.3759689  26.4729748   1.5395468
  22.7332420  27.1375999   1.6236196  66.9896317  27.8502941  82.0857697
  66.0329132  27.8447266  82.1154327  67.2507629  27.1158772  82.6413574
  27.3098240  50.1177635  31.5612125  27.9572105  49.6126747  32.0531540
  26.5110378  49.5923271  31.6068897  48.3054504  37.7199287  30.7474537
  47.4755287  38.1798820  30.8735466  48.9628029  38.3038712  31.1257782
   0.8224717  29.6580257  48.7690468   1.4488719  29.6704464  48.0453720
   0.7781638  30.5678577  49.0631104  74.3607101  34.1762390  46.7956696
  73.8590393  34.3856239  47.5835266  74.1786957  34.9001007  46.1963997
  62.8698387  58.8781624  24.4362411  63.2018127  59.0452805  25.3183403
  62.3333893  58.0906715  24.5274200  24.2637768  64.4545746  61.1035347
  24.9965954  65.0218811  61.3430519  23.6411171  65.0379333  60.6696968
  81.9082870  42.4978752  48.2527771  81.8185043  42.6986580  49.1843643
  82.5699387  41.8069801  48.2193527  61.8202515  43.2208633  11.6727657
  61.6178818  42.3209419  11.4169941  61.9209366  43.6886063  10.8437233
  33.8647957  20.1768818  80.1094284  33.2340469  20.3443642  80.8096695
  34.6458168  19.8581047  80.5617828  66.0938797  64.4028244  18.3262825
  66.0623856  64.7153931  19.2304630  65.8008804  65.1497726  17.8043079
  40.3221741  54.2919884  62.1469116  39.8886147  53.4722481  61.9096832
  39.9114380  54.9509010  61.5871239  37.6735878  56.2465057  54.4985123
  37.6956291  55.4019241  54.9484291  38.4616852  56.6988182  54.7994156
  32.1441994  66.0273514  54.0229950  32.9069939  65.5115356  53.7616386
  32.2126465  66.0903320  54.9756622   5.0056930  53.8844223  30.3483257
   5.0351048  54.0018234  29.3988075   4.1698494  54.2695656  30.6115036
  17.5362034  70.1810379  20.3080673  17.9563808  69.5471497  19.7267952
  17.7098866  69.8498459  21.1891918  84.6039734  64.0876160  13.6759882
  83.6487274  64.1430511  13.7016420  84.8094254  63.9176140  12.7566843
   5.7229600   5.1084538  27.0918217   6.0566940   6.0054345  27.1085262
   5.9724317   4.7761025  26.2295341  64.1375427  62.7547913  23.2548580
  64.9467545  62.8901482  23.7478886  63.9747276  63.5951080  22.8263798
  63.9168358  38.3362808  33.2356415  63.3927765  37.7959213  32.6443672
  63.2729874  38.7881126  33.7811127  64.6788635   2.1579099  75.5171127
  65.1430588   2.4419434  76.3045654  64.1592560   2.9188333  75.2578049
  44.8347969  12.3066702  69.0735321  44.7113953  13.2553425  69.1055374
  44.5275307  11.9962969  69.9252853  84.6642303  58.6984062  54.3741646
  83.8088989  58.9315414  54.0132103  85.2094498  59.4688797  54.2149925
  45.4891930  51.0211678  49.9817505  45.8747482  51.0718727  49.1071014
  46.0066795  51.6312370  50.5073471  39.6921425  47.3321609  72.3845901
  40.0191498  47.2850418  71.4862137  40.3260994  46.8302689  72.8968735
  17.9972267  32.5209618  84.6472244  17.2420559  32.8576317  85.1295166
  18.4184418  31.9135685  85.2554092  17.9903259   7.3167610  85.0890121
  17.6382465   6.5025725  85.4486923  17.2435875   7.9154606  85.0758972
  19.2738380   8.9660006   3.9002275  19.1434174   8.2191763   4.4845867
  18.5834503   9.5831528   4.1425476  19.8992558  56.3872375  58.4409142
  19.8959675  57.2932281  58.1320381  20.3639812  56.4209366  59.2770500
  61.9678764  25.8812943  85.4885330  62.3125114  25.0637741  85.1291962
  61.4453964  25.6097622  86.2432022  13.1676884  64.4658966  26.7283497
  13.8671379  64.4348526  27.3810654  13.1628113  63.5907211  26.3407059
  26.6823807  11.7966537  86.6472855  25.8889141  12.0326681  87.1278534
  26.9466038  12.6056480  86.2091675  50.0715218  61.0022354  30.0756588
  50.0643921  60.9320107  29.1210651  49.6473923  61.8409004  30.2572937
  53.3189163  35.9843292  50.5627632  53.4110680  36.0217209  51.5147858
  52.5974464  36.5825729  50.3682899  32.0974770  22.9541817  58.8689079
  32.8133850  23.3800049  59.3404770  32.5098763  22.5897408  58.0857468
  46.0378189   2.1840899  14.6816721  45.5070953   1.4785063  15.0514240
  45.7098999   2.9775007  15.1049948  78.8598480  60.8049927   5.3664794
  79.7261276  60.4612045   5.1482840  78.3319321  60.0271645   5.5468025
  81.4535828  21.3901787  22.2638741  81.3302231  21.7250347  21.3756809
  81.3749390  22.1623592  22.8240376  49.5545273  61.1693192  27.2699394
  49.0930328  61.2244797  26.4331532  50.1644211  60.4398956  27.1594715
  80.5499954  37.0951004  15.1736879  81.2679825  37.5850105  15.5745907
  80.8393707  36.9386330  14.2747927   1.4359099  66.4169159   4.0766940
   2.2613750  66.9015198   4.0775805   0.9318655  66.8010941   4.7940340
  33.5257492  54.0227509  40.1611824  32.7023315  54.2218018  40.6068230
  33.3886719  54.3187027  39.2612610   2.2523811  52.5880203  54.0009651
   1.4739410  52.6529503  53.4477501   2.3046937  51.6608353  54.2329483
  79.7089767  67.2668839  70.8789749  78.9318848  67.4773026  70.3612137
  79.5820923  66.3552322  71.1417084  48.4433022   7.4787140  35.1578140
  47.8178291   7.1284862  34.5235023  48.7918358   8.2665434  34.7405815
  19.6106014  66.9321823  48.5467758  19.9136982  67.8401260  48.5457115
  20.4125175  66.4119186  48.4969177  14.6214628  21.3712978   1.8275452
  15.0372620  22.1318798   2.2335708  14.9307795  21.3842926   0.9217934
   1.0104543  17.8715687  81.0863876   1.5563480  18.3754807  81.6899643
   0.1133916  18.1163807  81.3134918  80.4789963  38.6545830  39.5930138
  81.0447235  39.2569084  40.0761147  80.5070648  37.8422012  40.0984612
  65.9275665   1.5755000   2.0489402  65.6263885   2.0624659   2.8160043
  65.4800339   0.7315774   2.1100998  43.1674232  45.7217216  54.5568123
  43.8122787  46.0353699  55.1908646  42.5434723  45.2176666  55.0791588
  35.8599052  44.5077209  30.5141640  35.9622078  43.7303429  31.0632076
  35.4090157  44.1906090  29.7316208  46.2095795  31.6510258  61.4885521
  45.9962616  31.0212708  60.7999763  47.0855675  31.3989487  61.7806702
   1.7087122  67.0345535  17.8036404   1.5421778  66.1122513  17.6090679
   0.8760483  67.4713058  17.6243324  48.3415604  31.5219479  25.9231758
  47.9153252  31.9217377  26.6812820  47.7420540  30.8275890  25.6498737
  53.6249313  40.3234177  73.9772415  53.4373131  39.7324562  73.2480011
  54.3563995  39.9115601  74.4371948  34.1054878  50.6601753  60.4276428
  34.8134079  50.0170555  60.3891754  34.5383224  51.4785614  60.6708069
  35.5062370  44.7899017  51.0892487  34.8251953  44.2851067  50.6447372
  36.2952309  44.2546883  51.0039787  53.7387314  15.2301693  87.8881912
  54.1372452  14.3883848  87.6672516  52.9741287  15.2908497  87.3155365
  33.0595207   9.4991503   7.0737123  32.4653130  10.2107401   7.3120122
  32.7261848   8.7389755   7.5504241  68.2068634  35.4173279  67.0418777
  68.1843491  36.2105827  66.5066452  67.4063416  35.4585876  67.5650406
  70.9064941  52.0596657  81.6670609  70.7867737  51.9462013  80.7241821
  70.3273468  52.7864990  81.8962860  37.0781097  37.5255585  78.4830093
  37.5600433  36.9340477  79.0610199  37.7123680  38.2042503  78.2520905
  44.0717049  65.9872131  13.7822247  44.2773285  66.6707230  13.1444454
  43.6606293  65.2938156  13.2660398  71.3068542  40.6788330   5.1320448
  70.8998184  40.2548752   5.8875670  72.2446518  40.5263100   5.2482462
  61.0952187  11.5497837  45.6684189  61.1902504  12.1690750  44.9447632
  60.5939102  10.8234434  45.2978058  48.3829727  12.6706896  62.0004883
  49.1509399  12.4455719  62.5256386  48.5791893  13.5392570  61.6493149
  78.5487289  20.7220478  26.4257984  78.2048492  20.4708939  27.2830601
  79.1217499  19.9971943  26.1758652  51.6392822  32.2697296   1.1800388
  51.3613205  31.9401169   0.3254486  52.0375977  31.5132523   1.6105241
   2.6641977   8.5279522  49.3119888   3.0505712   7.7014480  49.6015396
   2.1769960   8.8441305  50.0728416  55.6722145  33.3823891  83.7120438
  56.3988190  32.8347054  83.4148483  55.2343521  32.8567772  84.3815536
  19.2933407  55.5191727   6.9968901  18.9759293  55.0592766   6.2197318
  19.8484859  56.2182579   6.6514564  79.5613022  59.1822357   8.4069653
  80.3741226  58.8425446   8.7813511  79.6489410  60.1334953   8.4674349
   5.0321598  18.1032925  55.7914543   5.0052061  17.5579662  55.0052452
   5.9650607  18.2416916  55.9550781  73.5356369   4.6323667  67.9184036
  74.3384628   4.9677591  68.3174210  73.8128510   4.3018208  67.0639343
  31.9365101  28.1360950  64.7455597  31.6191216  28.3793945  65.6152191
  32.8095284  28.5249100  64.6917801  59.0169106  40.4601173  69.2028122
  58.9428825  41.1258354  69.8866043  58.1548386  40.4469643  68.7870102
  73.6650925  22.2421665   6.0146861  73.3807144  22.6840744   5.2146354
  72.8515549  22.0164318   6.4657249  61.0491371  62.9748154  68.1547928
  61.2859344  62.2770844  68.7658005  61.2036285  63.7834587  68.6431274
  42.7020798  69.3846512  51.9331970  42.3315277  68.5762634  52.2873650
  42.3299255  69.4536514  51.0540085  64.5737839  64.3159409  28.1355000
  64.7933273  65.2445374  28.0597191  63.8178406  64.2956619  28.7223320
  54.2396278  58.7802353  33.0479164  53.4479675  59.3071365  32.9389305
  54.9484215  59.4212608  33.1019974  16.0438213  68.8698730  74.7692337
  16.5596085  68.8751297  75.5755615  16.6503849  69.1758194  74.0949097
  79.6253128   7.5539780  61.7723198  80.4489136   7.2686992  62.1679611
  79.2446747   6.7544990  61.4087563   4.0854249  60.8055687  53.3983269
   4.9632516  60.4978600  53.6240883   4.1274338  60.9807320  52.4582291
  76.7905502  56.5080833  52.8337555  77.3814621  56.7985344  53.5285187
  76.2610245  57.2794418  52.6316719  30.3937969   0.6953694  81.4389114
  30.4861774   1.6244682  81.6498032  31.1455860   0.2783350  81.8597794
  27.1834679  55.8553658  11.1737604  26.8193264  56.2814827  11.9496851
  26.4175148  55.5797844  10.6701717  62.3984566  67.6328583  41.2684517
  62.2031097  68.4404678  40.7932281  62.4737968  66.9657364  40.5861778
  53.6645241  52.5106125  25.5182037  53.7283974  51.6495628  25.9314175
  54.3983879  53.0059013  25.8820248  26.4802570  19.1192913  41.5101700
  26.1100731  18.2951431  41.8263588  27.4130917  19.0572853  41.7156105
  42.2283173  64.7735825  44.0841179  43.1121559  64.7867508  43.7168503
  41.8114929  64.0136032  43.6780167  74.9025726  52.7572517  10.2083511
  74.7550354  52.9626808  11.1315327  74.0261383  52.7392464   9.8239498
  77.7878036  35.2359924  76.0162354  77.0125351  34.7275009  76.2541962
  77.8169174  35.9437447  76.6600266  75.3527451   5.5922389  19.0826092
  75.2536392   5.2475104  19.9700623  74.9929352   6.4780684  19.1281891
  74.6771851  44.6567993  73.4620895  74.0956192  45.3244171  73.0983582
  74.0879364  44.0227661  73.8707733  65.0057831  28.0217800  41.5858650
  64.4843826  28.7618656  41.8967476  65.7620544  28.4241848  41.1588364
  52.0332031  21.7043819  68.4944916  52.6214142  21.7518787  67.7408447
  51.3699951  21.0625610  68.2406158  45.6415520   4.3564863  81.0653076
  46.3861008   4.1275721  81.6216125  45.8636360   3.9950626  80.2072372
  69.6802979  50.8489037  46.2128716  69.9173889  49.9671211  46.5000648
  68.7570267  50.7813797  45.9694557  10.2996025  54.6363716  16.6869469
   9.5774393  55.0777626  16.2398605  10.9714079  55.3116570  16.7812729
  16.6391964  67.0924988  41.3891945  16.3541183  66.3713837  40.8279915
  17.5919132  67.0067520  41.4239388  74.2737122  42.4508781  39.8157501
  73.9721146  42.9253273  40.5904541  73.5508575  42.5254555  39.1927338
  41.5413055  67.9697952   3.6951201  40.8130035  67.3702545   3.8574567
  41.2416191  68.5203705   2.9717309  52.8468018  44.0170975  48.1633682
  52.1630363  43.6496620  47.6032906  53.5684128  44.2104073  47.5649185
   9.8750172  34.7556190  37.8843956  10.0406494  34.4952202  36.9783096
  10.0735769  35.6917763  37.9046745  62.7359314  13.8883228  87.0759048
  63.1710548  13.8691969  87.9282761  62.7308922  14.8134546  86.8302689
  37.2057228  59.1691055   7.3540864  37.7484016  59.2375946   8.1396065
  37.8008881  59.3746414   6.6331377  59.3978195   1.8058900  77.0569382
  58.8833618   1.7314749  77.8607025  60.1245461   1.1952523  77.1803207
  51.2049980  18.5464630  81.9900360  50.3094254  18.6544838  82.3102112
  51.1045647  18.1333275  81.1324463  11.7996941  34.1081200  64.0888290
  12.2647066  33.8865891  63.2820282  12.1453934  33.4975204  64.7398987
  50.2091675  48.7255898  70.8871613  49.4285431  48.4118690  70.4306107
  49.9882164  48.6547165  71.8158112  80.1390686  34.9901123  28.9557133
  80.4242935  35.7262154  28.4143887  79.3198242  35.2872658  29.3516521
  48.3554344  49.6463280  63.4324036  48.5086250  50.5782700  63.2766762
  49.2118301  49.2382317  63.3048134  74.3553543  33.6003418  21.0505772
  73.6309509  32.9774933  21.1099701  74.1463089  34.2733269  21.6983566
  51.2086182  65.1112976  62.4050980  51.5824966  64.2826385  62.7047043
  50.9548607  64.9452209  61.4972115  23.0951557  52.6685982  84.5565262
  22.4102688  52.0009956  84.5181961  23.7092876  52.3441620  85.2151718
  66.9694595  70.7256165  30.0366230  66.9569702  71.5470505  29.5453739
  66.6161041  70.9551468  30.8960953  51.2120018  14.9419622  71.7834244
  51.9130287  14.6911669  72.3850021  51.2662468  15.8964987  71.7370529
  85.4938965  67.7111816  12.7351284  84.5544968  67.7934036  12.8994389
  85.6794968  68.3735504  12.0695086   2.7963073  31.2812366  86.7939835
   2.3547974  31.8086948  87.4596329   3.3674910  31.8996410  86.3384018
  34.9989014  55.0240326  81.8856049  35.0499535  55.9670486  82.0416412
  35.8555641  54.7940865  81.5257645   3.9470818  44.7242393   0.5606140
   4.5287156  44.3883591  -0.1213813   4.3269987  44.4037247   1.3786385
  76.5441360  48.6669807  48.4489098  76.6537094  49.5308113  48.8464279
  76.1705856  48.8460617  47.5859947  77.0925674  36.2963295  88.8852615
  77.0102844  35.3458138  88.8079529  77.2818375  36.5935211  87.9952698
  72.3088837  35.7886848  67.2762833  72.4558105  35.3784180  66.4240341
  72.5125656  36.7132759  67.1353073  55.6680145   0.7835631  81.4214096
  55.6910477   0.6626009  82.3706512  55.4206543  -0.0744144  81.0765610
  18.6395912  14.5956516  11.7334557  17.7316589  14.8257914  11.5361624
  19.1442566  14.9725552  11.0126991  63.6642113   0.3032649  29.8054581
  63.3665390   0.9915201  30.4003754  62.8954964  -0.2528591  29.6788330
  35.8090439  54.3341789  34.2760353  35.6682396  55.2335129  33.9800491
  35.4534950  53.7918701  33.5719643  16.2387409  57.6890450  14.7442923
  17.0109844  58.1633606  14.4362411  16.5026302  56.7690010  14.7334375
  39.6160049  57.0557404  69.0353928  40.5364914  57.2273941  69.2340622
  39.2822914  56.6091385  69.8134766  53.2201729  29.1393452  23.4745770
  54.0430374  29.5453472  23.2020187  53.1340523  29.3701572  24.3995323
  66.8723602   0.3825892  16.2830601  67.7647705   0.6113809  16.5428619
  66.9074707   0.3280084  15.3280630  68.6957779   3.7906630  68.9265442
  69.0682983   4.6687560  68.8464355  68.3666916   3.7511055  69.8245239
  82.4978256   5.0842791  85.3691177  81.9892807   5.8935318  85.3169174
  82.9683456   5.1502557  86.2000732  86.1773834  34.2045326  16.9861584
  85.9543991  33.8065834  17.8276730  85.6614456  35.0102921  16.9580479
  78.7089767  31.5660934  57.5378189  79.4697571  31.8076630  58.0661125
  77.9593124  31.7216282  58.1123047  67.2372818  59.4242554  16.4802246
  67.9108124  58.7578468  16.3442421  66.6962738  59.0767975  17.1893177
  57.1732635  70.2216415  13.2294121  57.4805679  70.3190613  14.1306915
  57.9738846  70.1836472  12.7061615   6.4880838  43.3591499  14.1652870
   7.3950315  43.5544243  14.4009695   6.0210247  43.3460655  15.0007010
  63.3897095  14.3303900  77.2236176  62.4823074  14.1741018  77.4852142
  63.8586922  14.4553394  78.0486450  22.2462215  21.8800678  81.6228333
  22.8155060  22.2616596  80.9545975  21.3815384  21.8519917  81.2132416
  25.2078171  22.5953617  58.6334839  25.3419018  23.2689915  57.9667931
  25.1924915  21.7731915  58.1435547  65.4408188  66.8706360  84.7765884
  64.5577545  66.7021027  84.4479141  65.9886856  66.8905563  83.9919357
  24.3924675  60.4477730   9.4912901  23.6112614  59.9321861   9.6915913
  24.0573730  61.3208618   9.2871723  70.5134125  28.3771629  24.4983444
  70.8337173  28.1280289  23.6314144  69.8098221  27.7546196  24.6817436
  69.2239380  45.1818733  14.0401487  68.6449432  44.6797829  14.6136494
  68.9375000  44.9575272  13.1547947   5.2148719  31.0999966  11.8707047
   5.4580197  31.0907173  12.7964611   4.8146772  30.2437019  11.7195854
  85.8012314  60.3715935  80.6026230  85.7443466  59.4966164  80.2186813
  85.3899765  60.2830620  81.4624329  55.6130638  27.2293568  30.9042530
  55.9764137  26.9912262  31.7571907  54.9231033  27.8614521  31.1058617
  18.2108345  16.4566555   2.2359912  18.6761017  15.7159843   1.8471936
  18.6164169  17.2283936   1.8408278  21.1343822  38.2778473  21.1075554
  21.0565434  39.2123985  20.9157448  21.2997990  38.2396545  22.0495796
  60.0827255  57.4935913  45.8990860  59.8440781  56.5694733  45.9717407
  59.8792305  57.7229385  44.9923210  55.6970520   3.6335030  31.3774605
  55.9945259   3.5653653  32.2847099  55.0320435   2.9504168  31.2915058
  83.2769775  21.2085152  48.1713257  83.1928101  20.7795448  49.0228729
  83.8413925  21.9633942  48.3381577  10.4505014  13.0509624  79.6496048
  10.8380156  12.6627111  80.4340363  10.1353235  13.9078264  79.9371490
  13.2162905  47.1085243   4.7240791  13.5528917  46.3553848   4.2385750
  13.7762365  47.1640129   5.4984260  20.6822662   3.8870142   6.7751966
  19.9607143   4.3143568   7.2366853  20.2583199   3.2267520   6.2269673
  67.3470993  35.8065987  21.1784649  67.0568008  36.0160713  20.2907276
  66.7526550  35.1143684  21.4677620  76.5136490  43.4265366  68.4988785
  76.3590622  43.1413231  69.3994293  76.2342072  44.3419495  68.4862518
  37.7514648  24.9350147  72.2592239  37.2204437  24.4148502  71.6561661
  37.2707520  24.9074001  73.0864944  62.4622154  14.3452988  70.4937973
  62.9002075  14.1610756  69.6628647  61.8340912  13.6304417  70.5971069
  21.0406780  41.3527184  55.8683014  21.5051670  42.1528015  56.1139603
  21.5377579  41.0049210  55.1279106  48.2982063   3.8015218  81.8121185
  48.7887878   3.7601321  80.9912338  48.6182327   4.5942521  82.2426910
  33.0517960  68.3811417   6.0103726  32.7048607  68.7018051   6.8428650
  33.9112968  68.0224533   6.2313361  68.8658600  44.3762665  11.5388231
  68.2054138  43.7152786  11.3311396  69.6597824  44.0668716  11.1027060
  63.1069794  37.4468842  87.4357224  63.1083832  37.9203606  86.6038284
  63.3830528  38.0969772  88.0817795  59.9801788  62.0240326  65.5944824
  60.2208443  62.4155807  66.4341278  60.8120499  61.7405472  65.2151947
  65.2126160  27.5334511  24.6892586  66.1152496  27.3848686  24.9710522
  64.9413528  28.3214684  25.1600838  44.8233643   3.4805799  20.7899227
  44.6195183   4.4150338  20.8283329  45.1272812   3.2652922  21.6716919
  72.2560043  42.7316704  22.4730473  71.5734253  42.9672775  23.1013813
  72.5964584  43.5709534  22.1633186  16.9330101  58.9227753  29.8982468
  16.3284187  58.5097466  29.2817192  16.4835491  58.8761902  30.7420750
  43.2486458   5.5300298  65.8833771  42.3305054   5.6276169  66.1358185
  43.6862450   6.2862024  66.2744522  72.1575089   9.2082901  35.4256706
  72.1417084   8.3882427  35.9191322  72.5419083   8.9724073  34.5813828
  74.1513824  60.3725815  76.4152298  74.0864258  61.1645012  75.8814926
  74.3698196  60.6912498  77.2910004  84.8358917  18.9258347  60.7563972
  84.3740387  19.5888729  60.2432709  85.6168365  19.3746891  61.0802650
   9.2420130  15.0945349  14.3587809   9.6138935  15.8079805  13.8401937
   9.1407614  14.3739433  13.7369061  52.0398674  68.1970062  74.6952591
  52.9549713  68.4708099  74.7572556  51.9452362  67.5234604  75.3687668
  81.4713287  30.0910110   9.7288914  81.6052170  30.1918259  10.6713047
  82.3541641  30.1010189   9.3591251  71.2953796  60.6156693  83.7485504
  71.5331726  60.4128342  84.6532822  70.6092529  59.9837227  83.5338058
  19.3545380  35.9831734  81.0256119  18.8798599  36.8047600  80.8994980
  18.6761818  35.3083229  81.0003204  20.9897842  50.9107170  84.5145645
  21.1238174  50.2176247  83.8681183  20.1795273  50.6672440  84.9622574
  67.1771240  24.3885326  85.4758835  68.0842438  24.4046097  85.7810135
  66.8096619  25.2209244  85.7730942  25.0700703  47.2242050  48.1576500
  24.2043858  46.8426628  48.3034134  24.9002819  48.1550484  48.0129738
  55.9716721  11.0617332  73.3163986  56.3191643  10.6495829  74.1073532
  55.0792923  11.3162060  73.5511932  54.9614563  58.9434853  83.6016388
  55.5434761  58.8687973  84.3578873  54.1114311  58.6427689  83.9229813
  73.8236008  16.1877880  55.6028519  73.0175323  16.2505474  56.1152458
  73.8021011  16.9527702  55.0278969  75.1490555  46.4104424  79.7365189
  75.3319168  46.7014618  80.6298828  74.8000412  45.5251350  79.8397217
  33.0272903   1.5023102  60.7711754  33.8586693   1.1745783  60.4281960
  33.2729721   2.2378254  61.3323250  13.9323635  36.2063751  85.9329758
  13.8203821  36.4644356  85.0180511  14.8805571  36.1904411  86.0630112
  74.8192902  42.0933762  86.2781448  75.0428696  41.1982803  86.0231018
  74.0135498  42.2849846  85.7982483  62.3343430  70.2782974  70.2593689
  61.7671280  69.8184052  70.8782425  63.2111588  70.2016602  70.6356049
  12.7068911  45.9108162  33.1575966  12.1407318  45.1821251  32.9032249
  12.9949608  45.6922417  34.0438652  64.6423874   5.7241015  58.2799110
  64.2756271   6.2982664  57.6075630  65.0411758   5.0052776  57.7895050
  36.2060738  61.6757812  30.9118786  37.0440521  61.7262230  31.3717480
  36.2144547  60.8154106  30.4924431  22.7354908  43.1959152  86.3461456
  21.9124203  42.7901382  86.0738754  22.7006664  43.1897087  87.3026886
   9.2900305  32.7452507  64.5477753  10.0703602  33.1922493  64.2198868
   8.7600632  33.4417992  64.9353104  48.2104340  25.4690018   2.7087839
  48.4358063  24.7533436   3.3031518  48.4595871  25.1480217   1.8421084
  79.5577774  37.2966537  78.8210831  78.8198853  36.7558250  78.5395660
  79.6250610  37.1386070  79.7627411  19.1124077  64.3843460  42.7464790
  18.9830036  63.9808998  43.6048012  19.0195446  63.6616821  42.1256981
  53.6401939  55.4104996  17.5133610  53.2517014  56.2792206  17.6164532
  53.7238846  55.0779648  18.4070320  53.5274849  64.5039597  39.1922073
  52.6487999  64.8764114  39.2658844  53.5783005  64.1866531  38.2905617
  52.3318558  45.1116257  26.0740128  52.8065681  45.3553658  26.8686638
  51.9823532  45.9380951  25.7407990  36.9058685   2.4751227  20.9253902
  36.4050636   2.2038581  20.1560783  37.2540970   1.6590168  21.2844734
  14.9993181  26.1357002  69.8702316  15.2830877  25.5052299  70.5322113
  14.3860292  26.7077408  70.3316193  84.4712982  67.2690811  22.3656139
  83.8142853  66.9294739  21.7579708  83.9654770  67.7477875  23.0222836
  27.8850098  32.1724396  50.6774483  28.4211750  31.6655521  50.0676765
  26.9866581  31.9007130  50.4893951   0.2400714  27.5656796  43.1490402
   1.0679436  27.1983776  43.4587975   0.4463118  28.4760838  42.9372368
  62.4409256   2.7982533  33.9108849  62.3460388   2.1072907  34.5664749
  62.5403595   3.6014018  34.4220581  65.7814407  40.0322723  13.3705845
  64.9939041  39.5533180  13.1124849  65.6083450  40.9365883  13.1088943
  26.0778675   5.7987852  62.0790215  26.2153912   6.4733853  62.7440300
  26.9301014   5.3719501  61.9910240  28.1461868  44.8882980  53.3860435
  28.1744518  45.7995491  53.0944138  28.9316597  44.7842216  53.9231033
  57.6380005   9.6530104  84.9715881  58.5914536   9.7203684  85.0228348
  57.4558868   8.7232761  85.1081924  74.9187546  30.0067539  69.3206329
  75.0396423  30.9284554  69.5488510  74.2330170  30.0133076  68.6528320
  61.0878525  39.3564796  60.2395172  61.2165527  40.1180305  59.6740875
  61.6155128  39.5428467  61.0160942  86.2428665  17.7517567  51.3874626
  85.3240433  17.4837017  51.3760338  86.5662842  17.5357323  50.5128365
  47.4861374  66.0988846  42.8995476  46.9449425  66.0242462  43.6855316
  47.7850380  67.0082169  42.9000168  64.2414093  -0.0434632  60.8824043
  65.1671829   0.1876363  60.9583397  63.9297523   0.4600813  60.1303787
  30.2862701  61.3336449  51.0637665  31.2272758  61.2010803  51.1785202
  30.1949348  61.6311531  50.1585732   4.8980145  23.0862656   9.6421614
   4.1251912  23.4070168  10.1070204   5.5739980  23.0224190  10.3168478
  49.3916283  23.2505016   7.0724874  50.0943756  23.3536434   7.7141562
  48.6101608  23.0803432   7.5984035  75.9944458  17.3897762  56.6441498
  76.4661026  17.6970062  55.8699532  75.2596359  16.8867931  56.2930107
  52.4447784  10.3820601  57.9480171  52.0275002  10.8473835  58.6729889
  53.1153450  10.9864740  57.6298027  54.7886620  17.7051659   3.5605638
  54.9779663  17.3166656   2.7064786  55.5765419  17.5404091   4.0785685
  38.4473457  61.0746155  68.5294266  37.9448395  61.7646141  68.0962753
  37.9151268  60.8300171  69.2864914  24.9757595  21.0435867  40.2289505
  25.4226036  21.0329151  39.3825188  25.4636211  20.4185886  40.7652359
  39.6365585  62.3032265   9.8070745  39.2026062  61.4676895   9.9796782
  39.1828537  62.9297256  10.3708878  75.2195053  70.5546722  52.2775459
  75.8333282  70.1805649  51.6454926  75.2534180  71.4973984  52.1152115
  56.8221970  69.4854965  31.7042942  57.4316826  68.9258575  31.2230854
  57.3820763  70.1191330  32.1529312  55.4125175  29.4602604   0.8350942
  55.3494225  29.0573044   1.7010494  55.8274651  28.7920361   0.2896346
  86.5102005  26.2406597  36.3626595  85.9325714  26.6719971  35.7329559
  87.3689041  26.6346455  36.2089195   3.1425021  12.2923985  49.5068741
   2.4386148  11.7538671  49.1452675   3.2287881  11.9967766  50.4131813
  19.5886765  48.6288223  87.5605392  19.4275284  47.8968391  86.9651718
  19.0189915  48.4575043  88.3104324  80.8280563  61.8938141  28.4314060
  80.2370071  62.1273384  27.7156124  81.6158524  61.5691681  27.9952755
  66.4143524   3.2897856  67.5671616  67.1607208   3.8633389  67.7409286
  66.7635651   2.4045019  67.6698837  24.7819233  28.9368706  11.4236479
  24.5375729  29.6205959  10.7999125  25.0674324  28.2048626  10.8769484
  14.8355913  54.6828270  31.2471638  15.0941572  53.7953720  31.4957676
  13.8788662  54.6700706  31.2745018  48.8484039   0.7296926  58.3786087
  48.9712067   1.6766193  58.4455528  49.7042694   0.3955728  58.1101036
   6.2563615  69.3491058  58.9228058   5.5366702  68.9545288  59.4153366
   6.5089793  70.1142807  59.4394569  41.1773682  29.8357983  79.6665192
  41.9015198  30.1128502  79.1052017  41.5951271  29.3329945  80.3657303
  55.4702187  27.0379143  78.1551285  54.7021103  26.4697990  78.2141800
  55.1777763  27.8744564  78.5169373  73.8259048  18.1799755  21.1572247
  73.2438278  17.9738636  20.4258308  73.2817993  18.0645409  21.9362335
   5.9274940  43.0566902  22.0478134   6.1847582  42.7941933  22.9316349
   5.6164551  43.9565773  22.1462231  22.7430573  66.3423920   7.6290212
  22.3785343  67.2264023   7.6724277  22.0798416  65.7892990   8.0418978
  73.8078079  38.1529579  20.8062191  73.5291672  37.9915123  21.7076206
  73.7603760  39.1038742  20.7075329  13.2078667   6.4319124  72.9634476
  12.7375908   6.5382094  72.1365433  13.4193630   5.4991059  73.0005035
   4.3960276  56.7190247  16.9155655   3.9388180  57.5298843  16.6926327
   3.7470791  56.0304985  16.7705421  16.3982086   4.5615525  25.6712227
  15.5441475   4.4584746  26.0909653  16.6329288   3.6785684  25.3857803
  69.0559769  69.9941559  52.5576439  69.7482071  70.5716476  52.8794441
  68.2664185  70.2917480  53.0096092  64.5972977   2.3429024  83.7732773
  65.2348099   2.3022480  84.4861374  65.0888214   2.0750163  82.9968262
   3.7493880  58.4495125  34.8307343   4.4303169  59.1110001  34.9532204
   4.0111384  57.7276573  35.4022598  22.5408630  54.2309151  45.5292244
  23.4791374  54.2304993  45.7186203  22.4341030  54.8959427  44.8490944
  19.5351696  57.6571617  14.2273111  19.9062481  57.2330170  13.4535971
  18.8808765  58.2622871  13.8780928  20.9877892   0.6622434   2.0978427
  20.7493382   1.5849675   2.1870267  20.1836605   0.2344199   1.8036028
  82.5965805   4.3524055  15.0878048  82.9392090   4.6407943  15.9337759
  82.2365570   3.4822204  15.2592592   6.8085070  38.8194962  84.5687180
   6.5727777  37.9407539  84.2712631   6.4319892  38.8843155  85.4463654
  33.8341637  42.2002602  16.7477531  34.3518791  41.7086945  17.3853798
  34.3031311  42.0880127  15.9208899   0.6901890  18.3256512  41.7968445
   0.1392402  18.7494526  42.4549294   0.2695972  17.4800644  41.6408997
  30.7837524  49.0376091  82.8863602  30.9916286  49.0307159  81.9520340
  31.5941391  48.7609100  83.3140793  15.0650587  57.3986549   7.4019299
  15.5382166  56.5804062   7.5530090  14.7565193  57.3335533   6.4981613
  74.4582291  59.5924187   3.1926267  75.1741943  59.0687065   2.8329701
  74.6102066  60.4732018   2.8500531  53.8962364   6.8489265  13.3819952
  54.7777290   6.4776897  13.4192181  54.0302277   7.7576442  13.1127186
  79.7439575  21.1732750  83.6437378  79.7847519  20.3065262  84.0478592
  78.8080292  21.3621845  83.5760880  51.2259026  31.1498375  57.3585815
  51.0678482  30.2061691  57.3857880  52.1155548  31.2338867  57.0155258
   9.0843477  52.9748535  29.5515633   8.9501934  53.1504822  28.6202278
   9.2637329  52.0356026  29.5947666  86.0820923  55.0997620  71.6556473
  85.5837173  55.7714806  72.1211014  86.4448013  55.5543747  70.8953857
  43.8381119   7.5806804   4.2915330  44.5006447   7.0557780   3.8423567
  43.3475990   8.0021820   3.5858669  82.2643509  46.7567101  14.8410816
  82.5033798  47.2085342  15.6503725  81.3084183  46.7993546  14.8163328
  16.4733486   8.9800730  16.6153011  17.1367455   9.5871677  16.9432850
  15.6771364   9.5074215  16.5506458  51.3292618  43.0638199  65.8722305
  51.5547104  43.9491959  66.1577377  51.0862427  43.1635818  64.9517822
  65.5927429  55.0649529   5.4662342  65.3513641  55.5581512   4.6821899
  64.8498764  55.1789017   6.0590205  24.3744259  26.9448452   2.2945302
  24.5378475  26.9495926   1.3513956  25.0857124  26.4175453   2.6582069
  11.1178150  61.3348198  17.6411705  10.1715517  61.3884201  17.5072136
  11.2170744  61.1376991  18.5725803  48.7154007  39.1485062  10.9609365
  49.1592979  38.3671036  10.6314011  48.6172791  39.7103539  10.1922131
  12.4548922  21.3863640  18.4820576  12.7919044  20.5837269  18.8800869
  13.2046833  21.7553310  18.0152512  86.5524750  32.8633308  29.3823490
  86.5953140  32.8279419  30.3379345  86.5917816  33.7970314  29.1752472
  37.0530167  45.7027397  79.2222137  37.2879448  46.0736618  78.3716507
  37.7224808  46.0336838  79.8209839  55.5529327  64.5473404  88.0731354
  56.4200974  64.9339218  87.9514236  55.0655785  64.8006973  87.2892151
  40.6988945  63.5017204  76.3246689  40.9690323  64.4158478  76.2373352
  41.4767151  62.9981308  76.0846100  83.2067871  59.2097778  30.6369038
  82.3216095  59.0849266  30.2947044  83.1945877  60.0877190  31.0180912
   8.5138950  44.9738045  56.7213097   8.3646917  45.6957130  56.1107178
   8.3085155  44.1868629  56.2165604  29.0289040  59.3025703   5.8571334
  28.2186699  59.8062477   5.7792711  29.6518497  59.9109497   6.2546821
  25.6218166  64.3722382  22.8932381  26.5593929  64.4383621  23.0743637
  25.5424786  63.6133919  22.3152275  68.2310104  19.9888020  53.0584946
  67.5726318  20.3851376  53.6291809  68.2693024  20.5689049  52.2980690
  83.7274323  23.7644119  40.2618828  84.5955734  23.3654709  40.2034721
  83.5972900  24.1806450  39.4097977  84.9637070  45.4737740  38.5322533
  85.5977478  44.9340286  38.0601234  85.4892502  46.1678429  38.9301376
  60.7340851  24.4275570  50.8643723  60.4409103  23.7164497  50.2946281
  60.9560890  23.9969826  51.6899338  82.5166702  40.5629463  77.9375839
  81.6851578  41.0307007  77.8599930  82.9920120  41.0316086  78.6236115
  54.6656837  27.3105564  58.0339890  54.5731850  27.9511051  58.7392349
  53.9145050  26.7269287  58.1404724  32.2314529  48.1956139  44.3550949
  31.8838749  47.4998970  44.9131317  33.1797295  48.1490974  44.4769173
  29.7740707   5.7629089  32.8106041  30.1001129   6.2270327  32.0395546
  28.8579693   6.0310473  32.8819618  52.9008636  55.8730240  63.2952385
  52.2768250  55.3202591  62.8248520  53.5150185  56.1669579  62.6224480
   5.4599657  63.1008034  22.7548656   5.2804518  62.2977676  23.2438831
   5.3698335  62.8470840  21.8363152  64.9760132   9.8626757  86.2855148
  64.7070923   8.9601231  86.4567337  65.7930908   9.9657850  86.7733459
  33.8240166  58.7668571  17.4500256  33.8838005  59.4061317  16.7401066
  32.9016495  58.5114365  17.4652920  44.6972198  12.1580133  63.2947083
  45.1190872  11.2996292  63.2568169  44.9727287  12.5233889  64.1354370
  49.6493111  39.9012566  58.2142181  48.7525978  39.5663834  58.2130394
  50.0859680  39.4141426  58.9129906  10.8140087  63.2883873  36.5496445
  11.2407494  63.1172829  37.3891945  10.6993093  62.4223709  36.1583710
  33.8714752  62.9735336  30.3596134  33.5281715  63.5654984  31.0289116
  34.6280174  62.5576096  30.7729912  78.8710938   3.2410626  82.8849030
  78.4976273   3.5400333  82.0558243  78.1124115   3.0892045  83.4484329
  35.1249809  26.5000820  67.0963364  34.4151611  27.1394005  67.0358353
  35.0828056  26.1799259  67.9974213  40.8678932  48.3750916   1.0436884
  39.9768333  48.0327606   0.9725733  40.8885422  49.1166954   0.4388521
  77.5673447  52.3985901   4.1268649  77.1002960  52.0597954   3.3631160
  78.2278290  51.7327957   4.3184853  84.8953629  12.1629725  57.3662987
  84.2122574  12.7335682  57.0141258  85.6975250  12.4537649  56.9324837
  16.8789406  68.6825409   2.0112112  17.2046509  69.5810318   2.0647666
  16.3507633  68.6664200   1.2130874  23.8061962  35.3238640  79.5318909
  23.3282204  36.0333977  79.1025467  23.1542149  34.8986320  80.0889664
  72.2968597  55.5972900  41.7713318  72.8744431  56.0791435  41.1793518
  71.9071732  56.2718735  42.3274918   4.6260819  49.0569916   6.3992839
   4.4247379  48.1414490   6.2057033   3.7817748  49.4441948   6.6304750
  86.6071854  51.1842461  30.8016300  86.2058868  51.9048386  30.3159008
  85.9510803  50.9409447  31.4547482  67.1587296   8.5167036   8.9065924
  67.0015717   8.9691696   9.7353315  67.7707214   9.0832024   8.4367180
   6.2143235  45.1216240  62.7464104   6.4225974  45.6140137  61.9524307
   6.4814739  45.6978111  63.4625587  13.3383617  43.1514015  48.6721382
  13.5775328  44.0673904  48.5307388  14.1736736  42.6840248  48.6787224
  40.7647743   1.4025713   9.4151630  41.6183891   1.5558527   9.0100994
  40.9035606   1.5882148  10.3438759  10.7331467  42.6927681  69.7459946
  11.4752913  43.2970543  69.7629471  10.4717264  42.6602516  68.8257599
  60.1581802  31.5017471  43.6309128  59.8690529  30.6497726  43.9576759
  59.4073105  32.0789299  43.7698059  25.7227974  59.3221970   1.8358830
  26.0209389  59.8661041   1.1068356  24.7885323  59.5157890   1.9127115
  64.9663544  16.8226414  68.2950592  65.2119980  16.1138840  68.8896637
  64.7701950  16.3837242  67.4673462  13.0089083  69.9330673  73.3162613
  12.3240643  70.1155319  72.6728973  13.1761885  68.9946976  73.2284088
  28.0846214  64.4161911   2.2799172  27.3938751  65.0186920   2.0040660
  28.7447433  64.9782257   2.6856105   6.0932589  50.2777863  23.4227867
   6.8961844  50.4297829  22.9243507   6.1422710  49.3573837  23.6810246
  10.6294727  40.0304184  75.9858322   9.9331341  40.6692963  76.1380844
  11.4368191  40.5435486  76.0193329  48.7332306  28.5733376  59.8039398
  49.4782944  28.5161533  59.2057419  48.0940895  27.9547539  59.4502640
  64.6710892  33.9782295  80.2566833  64.8118820  34.6248436  79.5650940
  64.1533051  34.4410019  80.9154510   3.7198474  13.4511890  53.6587410
   3.8559303  13.5553951  54.6004715   2.7803679  13.2914791  53.5687256
  50.4650841  30.2891235  64.9204865  50.0779266  29.9908333  65.7435074
  51.0356369  31.0149021  65.1733704  24.0672398  63.5893364  28.1637325
  24.9629974  63.8576431  27.9591351  24.1550617  62.6968536  28.4983845
   7.6507807  65.9333801  82.7743759   7.4123440  66.6168289  82.1480560
   6.8429232  65.7584381  83.2570724  46.8489418  54.1258316  54.8375511
  47.3402023  53.3362465  54.6107368  47.0499802  54.7432861  54.1342926
  28.7823944  49.6266022  25.8558846  28.9586048  50.2544899  26.5565548
  28.1374855  49.0258293  26.2292385  75.3376007  53.7653427  49.3123131
  75.8050232  54.5365143  48.9913177  75.9967957  53.2714653  49.7999344
  72.0850983  32.0245819   9.6934805  72.1764984  32.9455261   9.9378929
  72.5395889  31.5464592  10.3870745  42.2966423  49.5511665  82.0854416
  43.1610069  49.4884682  81.6790237  42.2114296  48.7439995  82.5928345
  17.4180012   2.4712121  69.1758118  17.2560902   3.2660985  69.6839142
  18.3689384   2.3637409  69.1957550  82.3538895  33.6697617  47.3391151
  81.4402466  33.8220444  47.5805855  82.4538498  32.7182350  47.3679962
  30.7644291  48.5467644  58.1738091  29.9015350  48.7331619  58.5438118
  31.3093758  48.3350487  58.9317284  74.2625885  12.2691603  11.4320011
  73.7290726  12.5559731  10.6908331  74.8938370  12.9770803  11.5608778
   4.8837461  64.8414383  33.5694199   4.1344261  64.4903641  34.0505638
   4.8421316  64.4121628  32.7148895  84.7372131  40.6146126  56.5947762
  85.3850937  40.7571983  55.9047394  85.2326202  40.2146759  57.3095169
  75.5211945  65.1451035  50.1664429  75.6896744  64.8636703  49.2671967
  76.2555847  65.7211685  50.3786964  33.4834175  13.7551651  71.4646683
  32.8390160  13.4353790  70.8332291  33.0710373  13.6188049  72.3176498
  13.0790548  26.4306126  84.0538330  12.4316025  26.6210690  83.3750381
  12.7809753  26.9279461  84.8154373  59.5981445  54.9846115  86.0575027
  59.3842239  55.9170456  86.0253220  59.9485474  54.7891388  85.1884537
  73.9458313  58.5717506  28.3600330  74.8787308  58.7290916  28.2145138
  73.7009964  57.9405136  27.6834049  41.2378922  47.3866081  83.9547272
  40.3566513  47.0416527  83.8110123  41.6355095  46.7766075  84.5760422
  58.6845741  41.2576447   2.1253607  59.6068306  41.1680222   1.8852699
  58.6239166  42.1262131   2.5230341   0.7210060   4.4284201  49.0241890
   1.0769819   3.9475801  49.7713890   0.3796878   5.2391219  49.4016762
  38.3564987  19.8506927  74.1889877  37.9617653  19.8299160  73.3172150
  39.0120277  20.5463734  74.1385727  85.4821396  16.6934891  30.4527760
  85.8456879  17.5490093  30.2244129  85.8040390  16.1061764  29.7689095
  67.9375763  67.7683334  39.1287270  67.0133057  68.0154800  39.1582260
  67.9872208  67.1089783  38.4366150   4.9227653   6.9836679  70.2894516
   4.8692851   7.7359748  69.7000427   4.0601320   6.5727863  70.2322540
   1.6853757  45.5249214  46.0746231   2.5039189  45.9205971  46.3740578
   1.9609213  44.8026733  45.5101242  29.6320839  69.3162994  50.8208313
  29.6030159  68.4488220  51.2243996  30.5054264  69.6481857  51.0290489
  66.0152893  17.9551086  39.0612946  66.2258530  17.0649071  39.3431435
  66.5253067  18.5177670  39.6439934  83.4119644  44.2854996  77.3667221
  82.5137482  44.5549965  77.1748734  83.9566269  44.9517403  76.9475632
  58.7665405  35.7389946  49.6490669  58.8738480  36.2412567  50.4568100
  57.8763008  35.3909721  49.6999092  67.6815720  14.8627777  16.0052929
  68.0161438  15.7320623  16.2258282  68.4537048  14.3742228  15.7200623
  54.4493446  44.3665886  50.4253693  54.5427628  45.3028946  50.2497635
  53.9427795  44.0333595  49.6847076   5.8443923  15.5041065  72.6190872
   6.1684732  16.3683758  72.3656311   5.7333512  15.5588331  73.5682449
  86.1846237  63.7840843  62.9314499  86.0464859  64.5017242  62.3132706
  86.8864441  63.2633324  62.5409470  40.3206444   3.9968784   7.3926935
  40.4123001   3.0664256   7.1875391  40.8292198   4.4427218   6.7153401
   4.8116679  14.7677422  30.0865479   4.5484028  14.7776670  29.1663170
   5.4739399  14.0786123  30.1387825  53.1863327  48.1246376  68.3955612
  53.3991203  48.9557343  68.8200912  53.1359329  47.4945259  69.1143417
  17.1717968  53.2021713  86.7311096  17.0038319  53.2446404  87.6725006
  17.8835716  52.5682373  86.6431732  82.9125977  71.3607788  16.9069576
  82.7496872  70.4193954  16.9659786  82.0758209  71.7636566  17.1387596
  86.6674728  33.0781441  31.9921246  85.7779922  32.7588387  32.1441383
  86.7185287  33.8923073  32.4928818  53.6789780  22.5553989  16.1397858
  53.3708496  23.1540012  16.8202000  54.2968330  23.0750160  15.6255035
   9.3536415  35.7534637  46.1508789   8.8907385  35.7076721  46.9874496
   9.6321859  34.8534508  45.9816933  46.4255486  40.0823898  74.6582642
  46.4006348  39.2119637  75.0557175  45.9521484  39.9822121  73.8323746
  23.3768539   2.0701220  64.9547501  23.8026161   2.5938473  64.2760239
  22.6678352   2.6265426  65.2771225  44.6680984  64.3964539  42.9983749
  45.2755470  64.3894424  43.7380943  45.2163582  64.2090683  42.2364502
  69.2345657  36.3675766  43.3355370  69.4154510  37.2522202  43.6532135
  70.0109482  36.1320801  42.8275871  14.4692688  27.5357494   9.1456842
  14.8418055  27.6285305   8.2688494  13.5555992  27.2943878   8.9934225
  81.3057098   7.1162739  68.5973282  82.1627426   7.4666791  68.3545761
  81.0804520   7.5740323  69.4072342  62.7641716   7.1894369  39.1569366
  63.0057678   6.3539848  39.5567894  63.5607147   7.7179203  39.2065010
  64.3592377  38.6646042   7.6947794  63.7474976  38.1184616   8.1884708
  63.8246574  39.0615654   7.0071220  48.9256935  15.2536545  33.2635460
  49.8355026  15.2885551  33.5589485  48.9346313  15.6847944  32.4089851
  69.7983475  69.2933273  88.5936127  69.4147568  69.8698959  87.9328003
  69.2478485  69.4158783  89.3670273  13.8883581  49.2678833   6.9057670
  14.2123346  49.6006927   6.0688019  13.4601202  50.0207329   7.3132806
  81.5541382  10.6924038  15.0101814  82.4113388  10.3037233  15.1844187
  81.1122665  10.0558414  14.4482431  11.3796263  46.0005798  65.5546036
  11.4985600  45.1118774  65.2194977  11.5543718  46.5657005  64.8020554
  40.0792046  19.6521683  13.3387794  40.2236900  19.4429684  14.2615967
  39.1634789  19.4220428  13.1815500   6.9170070  31.2402191  21.0492496
   7.5120511  30.5142937  21.2368355   6.3113537  31.2510986  21.7903957
  45.6134338  34.1931763   1.2602546  45.5799599  33.6580963   2.0532253
  46.0016365  35.0202751   1.5456324  61.8731499  53.0578918  59.1168060
  61.7832527  53.1845322  58.1722908  62.7094460  53.4692192  59.3350868
  39.8930702  70.9899597  25.3648891  39.4665947  70.1489182  25.2005501
  40.5748215  70.7914200  26.0067825  40.2246590  68.6261368  76.0288391
  40.9641190  69.2056961  76.2119751  40.0329056  68.7681351  75.1018524
  81.2912598  48.1710663  26.1604137  80.3494797  48.0272636  26.2531948
  81.6301880  47.3365746  25.8364010  67.0876694  37.6666183  78.9544144
  66.6291733  37.4444656  79.7647552  67.3523026  36.8221130  78.5897064
  75.8127823   9.8466921   9.7423639  76.5243454  10.2490826  10.2403564
  75.0413132   9.9521685  10.2990866  29.4538994  37.0153046   5.6520271
  29.4076729  36.7641640   4.7295175  29.8486443  36.2592850   6.0865812
  13.9495707  13.1117849  10.5233402  13.3859940  13.7706499  10.9289379
  13.3416948  12.4934454  10.1179066  32.7758369  71.2142181  82.2605820
  33.3663712  71.5566711  81.5895996  33.3568459  70.8356857  82.9204102
  40.1415176  42.5772667   9.4322910  39.4680672  42.4738426   8.7599831
  40.7247009  41.8291168   9.3042116  71.4235611  35.8059540  64.4004517
  71.1372299  36.2447014  63.5993576  70.7736359  35.1176224  64.5419464
  70.2127304  70.4619904  16.3353119  70.4274292  69.9204254  15.5758104
  70.7649002  70.1189041  17.0378990  43.4498978  70.2859116  84.0944977
  42.7036247  70.3836060  83.5030899  43.4426422  71.0838623  84.6231308
  74.9656525   3.7913237  44.1781616  75.7505646   3.2941530  44.4083176
  74.4047699   3.7247076  44.9509544  58.2434120  54.8685608  81.2796707
  59.1164246  54.9380798  81.6660004  57.6554718  55.2101479  81.9533768
  57.3339272  63.2736053  67.8619003  57.5747337  64.1996536  67.8360214
  57.9328690  62.8881607  68.5013809  46.6067276   0.8151763  74.6083603
  46.0233383   1.1008106  73.9052963  47.4263496   1.2813939  74.4437561
   1.6233087  62.2815018  55.3019485   1.6466687  61.4338837  55.7460518
   0.7747692  62.6541023  55.5414963  56.6665916  16.2110138  43.7324677
  56.5181961  15.2890940  43.5220490  56.1915054  16.6909866  43.0541229
  28.6433353  66.1882706  50.2001152  28.5999718  65.8476105  49.3066368
  29.5777721  66.1987686  50.4073563  23.6725731  63.3575478  48.5709648
  24.3892345  63.5595818  49.1724701  23.6543770  64.0968170  47.9631958
  11.1750450  56.9387856  33.4377251  11.9458647  56.3713646  33.4276581
  11.3518333  57.5706215  34.1346893  22.5353775  45.1074409   4.0449600
  21.9747162  45.5286446   3.3934407  22.6045818  44.1993752   3.7502367
  10.7333040  30.6206665   7.2081532  10.2789297  29.8644524   6.8367848
  10.0327559  31.2283249   7.4452529  19.0416431  38.0654678  17.9665813
  19.9754810  37.9130745  18.1113510  18.7157650  38.3755836  18.8114853
  33.4039040  29.9637852  73.7539673  32.9651527  29.3945732  74.3862076
  33.2923126  30.8460045  74.1081848  22.0746937  39.8312492  60.4794502
  21.7081356  39.3976326  61.2500648  23.0166798  39.8610725  60.6468010
  42.3384171  10.4198494  19.8894215  42.8159027  10.7728558  19.1386700
  43.0023727  10.3246250  20.5723038  51.2887878  49.0091782  86.0378418
  51.5764580  48.7302132  86.9071274  51.3168068  49.9653702  86.0716858
   0.7802413  67.0000000  86.5691376   0.3134853  66.5244446  87.2563171
   1.6017995  67.2693176  86.9799271  33.2473488  61.4643402  52.0340729
  33.7171593  61.9002571  51.3230972  33.6956558  60.6250496  52.1381798
   4.5893087  37.3932381  19.5108738   5.0705748  38.1667633  19.2171440
   3.7385416  37.7320061  19.7895584  51.3889923  56.8020897  19.1357880
  51.5357552  57.3214798  18.3452644  51.4423828  57.4352226  19.8516941
  36.7926331  35.7707787  85.1678772  36.2337341  35.1679688  85.6582718
  37.3791275  36.1430511  85.8264084  82.0299377   3.0041454  46.9838409
  82.6636429   3.3149066  46.3372536  82.0048523   3.6950226  47.6458740
  72.6202850  32.9695015  78.6187820  72.7584610  32.9721489  79.5659485
  73.0340271  33.7771072  78.3141174  37.9555244  67.0646896  51.7875443
  37.4984665  66.4405212  52.3512344  38.8376083  67.1182632  52.1553688
  76.0595703  22.4467621  36.7053299  76.5136871  23.2714119  36.5322189
  75.9961929  22.0238819  35.8489494  35.7905655   4.5574708  32.3586998
  35.6898460   4.5179825  33.3097687  34.9364510   4.2939396  32.0162506
  28.0296917  37.7159119  61.0781555  28.1958389  37.2169304  61.8779335
  28.8749008  37.7375183  60.6293945  62.0618896  19.3083687  56.1781998
  61.2236977  19.7682266  56.1313133  62.6142998  19.8719406  56.7199173
  19.8985252  45.1467323  79.4098358  19.3325100  44.7642670  78.7393265
  20.5537186  45.6406822  78.9169159  86.4050064  19.6979847  47.6310616
  85.6521835  19.1247540  47.4865341  86.2042313  20.4880943  47.1294212
  19.1005726   1.2647741  42.4663429  18.5702553   0.9392415  41.7390022
  19.4423542   2.1036220  42.1569099  61.4595146  23.7061615  82.4898071
  62.3348007  23.3332043  82.3848877  60.8706551  22.9532585  82.4387207
  45.6153755  66.2345963  23.5678463  44.8259430  66.5378494  24.0162468
  46.2258530  66.9688110  23.6347885  38.5652847   6.3484402  72.4666367
  38.6314507   6.5679474  71.5373001  38.0283966   7.0473323  72.8401794
  79.0473557   3.6197751  61.3042107  78.5201416   4.4099216  61.1861458
  78.4401016   2.8992772  61.1358147  15.6731739  63.7014198  58.4652634
  15.7888727  63.9019165  59.3940506  16.4158401  63.1381645  58.2475014
  48.5915337  70.0685654  69.1206512  48.5619812  69.2067871  69.5362244
  49.1654472  69.9499435  68.3638229   0.3854939  57.1452675   6.9623804
  -0.0343224  57.5537453   7.7194357   1.3139008  57.3566971   7.0603061
  22.2834587  50.7251968  25.7695045  23.0077553  50.2174301  26.1352901
  22.6692944  51.5755615  25.5591755  23.0124264  21.8108501  44.8405495
  22.9875069  21.5570602  43.9179420  22.3649712  22.5120583  44.9136391
  72.1261826  69.4942093  17.9857731  72.6988678  70.0781326  17.4884815
  72.0264435  69.9231796  18.8356361  62.7053947  63.1142349  44.4571495
  62.4241638  62.8929024  43.5693665  63.0235825  64.0145111  44.3901482
  44.2992096  17.7549763  27.8691788  43.4443588  18.1122150  27.6286774
  44.3884201  17.9541321  28.8011723  33.5147781  21.4269791  85.1433182
  34.1515350  21.2338085  85.8313980  33.3417740  22.3641033  85.2333145
  64.4884186  60.3907967  39.9459801  63.8990097  61.1254959  40.1164169
  65.1304550  60.4293709  40.6548729  85.0591965  63.5946198  11.1757383
  85.4544983  64.4567184  11.0462980  85.5516663  63.0155334  10.5940428
  33.4029541  26.8026981  82.0389786  34.1679611  27.2546768  81.6830139
  32.9182396  27.4834614  82.5057220  19.5076408  68.9970245  38.2512321
  18.8301811  68.4103088  37.9150047  20.1444893  69.0603333  37.5394402
  28.1980419  69.8888931  48.1604118  28.3664646  70.0842133  49.0822105
  27.3042889  69.5464401  48.1475639  68.2653961  50.7075768  35.6471634
  69.1082382  50.8868980  35.2304001  67.9812088  49.8771591  35.2652283
  20.0740814  14.9629707  83.4333954  20.2373924  14.0598431  83.1615143
  20.1429138  15.4723577  82.6259155  16.5509586  45.2480240  40.1276207
  17.3969097  44.8002663  40.1381912  16.7523670  46.1467285  40.3883820
  34.8253784  47.8834343  33.0895805  35.7538071  47.8542213  32.8585052
  34.4420815  47.1323166  32.6366577  61.5311165  13.7861166  43.9672508
  60.7380486  14.3202877  44.0112381  62.1158371  14.1712999  44.6199112
  76.6277313  50.1336670  19.0236664  77.3980255  50.1348915  18.4554367
  76.1577911  49.3336601  18.7883511  69.0595093  22.5208340  26.0550480
  68.9728546  21.8649368  26.7467995  69.1619720  23.3498287  26.5224876
  54.3265266  70.7933426  40.4436035  53.8827133  71.5193710  40.0052681
  55.2582664  70.9947662  40.3568726  37.7169762  53.7329712  19.2258911
  37.2605286  53.0977974  19.7776527  37.4949417  54.5831871  19.6054459
  68.4058456  68.3655167   4.7609267  68.5947418  68.0698090   3.8703594
  67.4910355  68.6456680   4.7312999  21.8331909  27.7826157  68.8367920
  21.4651680  28.2499714  68.0868759  21.2161484  27.9494457  69.5492935
  26.5667229  63.3151703  44.9987640  25.9043808  62.6786880  44.7296448
  26.0645370  64.0850983  45.2656898  19.0044632   2.2797713  55.3420868
  19.3330421   1.4029169  55.1436081  18.2270489   2.1282492  55.8795815
  41.1076851  21.7206001  11.8848991  41.0669975  21.5033913  10.9535570
  40.5249290  21.0874863  12.3041754  73.4539413   4.6564097  75.2447815
  74.1267700   4.6627197  75.9255829  73.1079178   5.5488729  75.2417374
  48.9205093  59.6047935   6.2735357  49.1206551  58.7441216   6.6415248
  48.8867874  59.4590912   5.3280911  34.1538811  65.1425323  15.4030104
  33.2476006  65.2886124  15.6742125  34.6592445  65.2034378  16.2136440
  61.2783356  59.8987427   1.7524974  61.4801140  59.7160988   2.6701891
  61.0496292  60.8281059   1.7379310  21.5048656   5.5471134  55.4730072
  21.6284790   4.6698456  55.8354340  22.1499081   5.6082621  54.7684402
  75.0422974   9.6570282  14.0313044  75.6696472  10.2568588  13.6277323
  75.5334930   9.2355728  14.7365246  45.0499611   3.3993361  85.6207962
  44.9155998   3.9722583  86.3757401  44.8604851   3.9529414  84.8632660
  56.6457520   4.2144122  58.0100784  55.8377113   4.3664975  58.5001488
  56.3520241   3.9977295  57.1252022   5.4796491  57.0106163  69.9364929
   5.7466097  57.8520889  69.5665131   6.1938329  56.4135628  69.7135468
  53.4185677  20.5197773   6.6930971  53.8196449  20.5864830   5.8265409
  53.8783798  21.1727657   7.2207456   9.2979183  14.2499714  66.8779831
   9.5372677  13.7729244  66.0833969   9.5805931  13.6805058  67.5935516
  39.9509048  53.5194016  69.7777023  39.8091393  54.1153030  70.5132523
  40.5568008  53.9877014  69.2034073  58.1022911  41.0526199  17.9108601
  57.8938103  40.3051529  17.3504486  57.3672028  41.6539536  17.7913723
  50.1929054  50.6181946   2.7917602  49.9791756  49.8559113   2.2537284
  51.1490173  50.6613731   2.7768867  67.6503220   9.1180000  26.0206585
  68.3102264   9.7895002  25.8478947  68.1512146   8.3650599  26.3343811
  46.7109489  64.3467941  69.5118942  47.0633850  64.4272461  68.6255798
  45.8555527  64.7742462  69.4692154  61.7774887  65.0861740  12.9617138
  60.8566933  65.1467819  13.2160740  61.8219452  64.3074493  12.4068832
  60.3167000   3.1456425  68.5318909  59.9193764   3.7968135  69.1101151
  61.1630898   3.5229402  68.2920914  56.2823029  58.6732826  86.1018829
  55.5995102  58.4225388  86.7241058  57.0995483  58.4061813  86.5225983
  42.4063797  15.6823416  66.5387039  41.7869835  15.0027933  66.2726364
  43.2652016  15.3257895  66.3117142  78.3160172  71.0094986  38.4538879
  78.5216064  70.7431030  39.3499908  77.5181427  70.5269318  38.2376404
   6.8882031  35.5699425   5.7981429   7.7427611  35.4654045   6.2165146
   7.0232306  36.2576675   5.1461954  34.3443489  50.6436462  51.1508904
  34.6350899  50.9788437  51.9990311  34.0014076  49.7708969  51.3430672
  53.8361320  13.6340628  70.7229538  53.5857697  13.4215479  71.6220627
  54.7546272  13.3716660  70.6617126  12.2767973  49.2587471  17.5355778
  12.4829454  48.3844376  17.8662071  13.1180115  49.7153435  17.5250835
  40.2737923  35.9714127  14.8926125  39.9400787  35.2692909  15.4510889
  39.7989998  36.7515755  15.1792250  33.5518303  -0.0347246  56.5182571
  33.6945419   0.5126856  55.7461128  34.2166405   0.2546314  57.1431847
  49.9893303   5.1034527  49.2918625  49.0830536   5.3535981  49.4716454
  50.5141983   5.7357645  49.7827072  68.3582611   9.5298405  77.6262131
  67.7666397   9.7845192  76.9181442  67.8347626   8.9492550  78.1785736
  25.9253197  53.4314766  48.4203644  25.2276058  54.0145645  48.1213074
  26.6019688  54.0197983  48.7554054  48.8477020  63.5736694  14.4966536
  48.2221680  63.8606949  15.1619005  49.0038490  62.6507950  14.6970377
   7.0855660  16.1237583  60.0994415   6.8473501  17.0351639  59.9296684
   6.9860539  16.0225353  61.0460587  36.8874168  66.7408066  48.5832939
  37.1435204  65.9522171  49.0615997  35.9731178  66.5893478  48.3438187
  56.5488014   1.9186621  12.9929485  57.1077003   2.3527677  12.3484221
  56.1653938   1.1806284  12.5190954  83.9891510  43.2485657  58.1789169
  83.1135025  42.8686829  58.1071014  83.8340912  44.1811867  58.3286209
  29.0636845  50.9625397  28.0873508  29.4112644  50.1225586  28.3871021
  28.8484573  51.4336662  28.8923035  68.4393921  32.3870888   3.8900435
  68.4091721  33.2860489   3.5626400  69.2987442  32.0628166   3.6206086
  44.7197418  64.4380569  36.4202156  45.0814667  63.5874329  36.6688499
  44.4267769  64.3189240  35.5167732  31.4039650  69.9323120  70.2080994
  32.0086594  69.9858780  69.4680252  31.9539013  69.6768188  70.9487228
  77.3785248  59.9326782  26.0487652  76.5062408  59.6492538  25.7748775
  77.9378357  59.1719246  25.8917427  54.5085869   7.2999630  85.3319092
  54.4895287   6.6112814  85.9964294  55.3385735   7.1678181  84.8737640
  22.3518238  10.0549927  12.5961475  21.6729317  10.1334620  11.9259386
  23.0727005   9.6052542  12.1553497  58.3165779  24.0756779  55.6095581
  58.9543800  24.3887138  54.9681129  58.1652832  24.8269005  56.1831474
  72.5886765   6.6529570  86.0218277  72.6475372   6.2122645  85.1741486
  73.2951508   7.2986093  86.0056763  77.4633484  29.5665970  38.2516289
  77.1410904  30.2726669  37.6914101  77.8309708  30.0142879  39.0136375
  79.1890793  44.9310646  50.7364273  78.6512222  44.3095741  51.2270203
  79.9895172  44.4469910  50.5334435  77.1442642  21.7658348  83.3194504
  77.0135956  22.7075920  83.4301453  76.6616669  21.3701324  84.0452271
   3.8498108  70.6803818  53.5727730   4.4006195  71.4601669  53.6418877
   2.9718442  70.9863663  53.8003197  63.6526260  64.5327225  58.2349663
  63.4420052  65.4551010  58.0897255  62.8115845  64.0810852  58.1649017
   2.7934422  63.9602585  34.7710762   2.1812675  64.6925125  34.8437576
   2.2435775  63.2098312  34.5458260  19.5566635  56.5850220  62.6995354
  20.0610962  56.1824226  61.9926414  18.7181606  56.1234818  62.6883659
  62.3441963  42.7701759  14.1495829  61.7521095  43.4193420  14.5293808
  62.2204819  42.8571548  13.2044058  53.5819702  41.3223953  31.9718418
  52.9027901  41.8504410  32.3915024  53.6041374  40.5121193  32.4809570
   3.4498234  12.0887671  11.3400831   2.8924811  11.3796854  11.6607132
   4.0135717  12.3048487  12.0828667  83.2034912  31.4220524  81.8683777
  83.4231339  31.3206367  80.9422531  83.7102737  32.1826363  82.1528320
  13.3907785   3.7960436  73.3461761  13.2806072   2.8508258  73.2429428
  12.6554871   4.0641041  73.8972931  15.9511347  12.8011503   2.3595791
  16.6647739  12.4813166   2.9115365  15.2464733  13.0061922   2.9741056
  10.5716963  36.8208122  77.3561478  10.2905235  37.3122330  78.1279449
  11.3907824  37.2392311  77.0910873  21.4369431  15.1498365  15.6873093
  22.2603931  15.5081520  16.0186253  21.4447632  14.2341890  15.9661636
  20.7810001  48.1072159  79.1474533  21.2862740  47.2954330  79.1033936
  21.1338787  48.5679626  79.9086456  62.7839584  61.2182999  83.5926361
  62.9320335  61.7853546  84.3494415  63.0726585  61.7389565  82.8431015
   7.8494463  53.3975067   9.7227192   8.4482069  53.0033951  10.3570642
   8.4207411  53.7437477   9.0371742  56.6820183  54.5056801  70.1898956
  57.5252609  54.8692780  69.9197617  56.0412140  55.1667938  69.9281082
  37.9626427  55.1866417  74.1422043  37.8317108  55.8498726  74.8198547
  38.8780060  55.2881851  73.8813705  75.0519104  25.0745811   9.4047880
  75.1699677  25.9337425   9.8099279  75.1000900  25.2447205   8.4640636
   3.2708416  15.3940439  41.0001030   3.0643370  14.4657125  41.1086807
   3.5444565  15.4732561  40.0862694  73.9990921  17.9315853  63.7012405
  73.0433807  17.9653664  63.6600418  74.1927185  17.7425632  64.6194000
  79.4004135  16.1484814  55.8966179  79.6269150  15.4449358  56.5048561
  79.3983459  15.7296000  55.0359421  18.0769749  47.3469658  48.1120796
  17.7790375  47.3639336  49.0215721  18.2285061  48.2662354  47.8924980
  81.4230270  44.7958107  86.4986801  81.7282944  45.6839981  86.6835175
  82.1660233  44.3716545  86.0694046  51.4711227  50.2915611  19.2315216
  51.0754166  50.4037514  20.0958500  50.7281494  50.1532059  18.6440868
  83.7787933  56.2572746  10.8166952  84.3441849  55.8074722  10.1888065
  83.2747040  55.5563545  11.2300282  76.4472961   5.5551062  49.9728203
  76.7623901   6.3079023  49.4725761  77.0143356   5.5252881  50.7434120
  33.8717308  56.6787033  56.1477432  34.1798096  55.9832420  55.5666656
  34.5988197  57.3002052  56.1839409  78.8971252  65.1688919  20.4247417
  79.1018219  65.8070450  19.7412987  79.7375107  64.7585602  20.6287518
  15.4101267  60.1591034  34.9518089  14.7262545  60.7101669  35.3324432
  15.4373436  59.3867493  35.5165710  17.3019905  38.2894554  60.5663414
  16.9197998  38.6468582  59.7648277  18.2261372  38.1592674  60.3536568
  42.6307793  67.6967621  69.1391373  42.9784317  67.9567337  68.2860336
  41.6803398  67.7353592  69.0323181  46.0730171  25.0806732   5.3114648
  47.0252457  25.1065750   5.2175293  45.7568283  24.7729836   4.4620051
  68.1931763  62.0063400  56.0918121  68.8872452  62.6639595  56.1369514
  67.9836655  61.8160744  57.0062180  55.0264740   8.3078279  35.3896713
  55.5541649   8.0021839  36.1274796  54.7097359   9.1690025  35.6622276
   5.7820525  29.3522053  36.4869308   6.0812907  29.4009495  35.5790138
   6.4077516  29.8879986  36.9744339   4.8612990  56.8253136  36.6701851
   4.9608092  57.4427452  37.3948250   4.6592832  55.9905586  37.0928001
  15.6164494   0.3141854  43.3912964  15.8345556  -0.5585067  43.7185097
  16.0070248   0.9131119  44.0276680  74.5109100   2.4848883  30.1636486
  74.8508453   1.8534392  30.7976456  74.7298737   2.1095247  29.3107777
  64.9242783  68.4774475  69.4944077  64.5046310  68.9863663  68.8007736
  65.8301392  68.3757858  69.2023010  11.0019035  -0.1289381  37.7326584
  11.0753622   0.8168188  37.8606415  10.1264353  -0.3466501  38.0526428
  53.0811272   6.4613023   1.0826318  53.2402496   7.3745999   0.8443040
  53.8682785   5.9982963   0.7958425  32.8387184  48.2581825  51.9147758
  33.4810028  47.8730545  52.5109100  32.0245094  48.2742348  52.4178123
  35.1709633  12.5334196  59.8672752  35.1328888  13.4827375  59.7507553
  36.0374794  12.3725128  60.2407570  32.5749626  48.5041924  85.3192520
  32.9471359  47.7873611  84.8055649  32.8334465  48.3122482  86.2206802
  13.1764612  34.9175644  14.4722233  12.9805145  34.4829407  15.3022461
  13.7988625  34.3344879  14.0376301  47.6217651  33.6928062  68.7817078
  46.7172699  33.4783287  68.5534058  47.5822754  33.9467964  69.7037506
  80.8496246  29.4554157  30.6813316  80.0942230  28.9376850  30.9598255
  80.5548477  30.3637180  30.7471294  75.4781189   8.7556658  53.9585381
  75.1394958   9.5981979  54.2613678  75.0484009   8.1094465  54.5188713
  86.3061905  25.9541531  15.3643637  86.4886017  26.0095139  16.3023891
  85.8362579  26.7635212  15.1635742  22.1057606   4.7307024  69.2856445
  21.9392700   4.1714153  68.5268860  23.0290203   4.9711103  69.2080002
  23.0980167  63.2566414  68.8261108  23.0627785  63.8046837  68.0421219
  24.0002499  63.3384399  69.1351700  43.6059494  67.4776077  24.4259129
  43.4789619  68.3633041  24.7659817  42.7635727  67.2488022  24.0331211
  28.2355938  19.0184402  81.3278351  28.7966881  19.1585522  80.5650864
  27.7928391  19.8572330  81.4567871  10.9639311  32.9813309  71.6660004
  11.5167017  32.7037125  72.3964844  11.1720314  33.9080048  71.5468597
  42.9911575  70.1003494  35.7966118  42.2092743  69.5971603  36.0239525
  43.6619263  69.4382324  35.6295815  83.1776047  34.3058624  49.8807869
  82.9617920  34.2699242  48.9489288  83.1613159  35.2387352  50.0946045
  83.3122025  36.0495567  76.5911560  83.2041245  36.9768982  76.8023071
  82.7026062  35.5983238  77.1751175  24.8673782  56.0690269  82.3750000
  24.1037235  56.5775757  82.6478500  25.5787220  56.7082214  82.3343277
  83.4769135  27.3954563  56.6260643  82.6533585  27.5105019  57.1001511
  83.2877121  27.7023277  55.7393494  17.0559826  64.1299896  86.3294220
  16.6817894  64.1428528  87.2103577  16.6344833  64.8621750  85.8794479
  56.2517586  63.4678535  29.1195564  56.8899155  62.7716446  28.9637432
  55.4150505  63.0912094  28.8469868  79.1350861  -0.0149270  77.8591537
  79.2640381   0.2133454  78.7797470  80.0105133   0.0345489  77.4752274
  54.4799614  23.4379807  46.0392189  54.7353287  24.2409172  46.4934349
  53.8586502  23.7279072  45.3712730  69.0414429  70.1906433  46.9123344
  68.1616669  69.8276596  46.8099709  69.5916519  69.6479645  46.3475304
  33.7787857   3.2168102  81.2678833  34.0887680   3.9873505  80.7920609
  34.5243759   2.9519873  81.8065796  59.9707680  43.8844719   7.6695032
  59.1124725  43.6672783   8.0333557  60.4452057  43.0531540   7.6623292
  40.8515854  33.5699730  62.4422531  41.3229256  33.8636322  63.2218895
  41.5222435  33.1569901  61.8982887  60.6942024   8.2278624  57.9493484
  61.0691872   8.0584669  58.8135948  60.0329132   7.5449700  57.8371506
  49.5042610  63.3799515  31.2975197  50.1489029  64.0561447  31.0891171
  49.9292984  62.8414230  31.9650249  68.5361786  11.3307228   9.7147598
  68.3444138  12.1306725   9.2253323  67.8132706  11.2516336  10.3371582
  54.9100761   8.7829742  23.1952782  54.6402092   9.3299990  23.9329548
  54.4556580   9.1573944  22.4405956  54.3054848  13.5920620  67.7650604
  54.1602516  12.6540022  67.8882828  54.0792122  13.9823875  68.6092682
  52.6842613   8.0834694  64.9464569  53.6276627   8.2129612  65.0437012
  52.4923744   8.3792515  64.0565567  23.1106148   4.2814813   4.2666178
  22.7773628   4.3664713   5.1598988  23.5144501   3.4139564   4.2431645
   5.8121171  60.7172966   8.7403059   5.9694996  60.1909027   7.9564872
   6.2350988  61.5556679   8.5546980  80.0001602   2.5745945  32.4617310
  80.9059143   2.4152737  32.1963005  79.6989594   3.2718127  31.8791523
  81.2858047  33.1979790  65.7444763  81.8913422  32.4860611  65.5377502
  80.4208755  32.7881584  65.7313004  86.2998810  40.6529770  62.1503563
  85.7126083  39.9018707  62.0655975  85.8444977  41.3649673  61.7009964
  59.4317932  68.4144363  34.9051056  59.8904686  68.5894012  34.0833778
  59.2131500  69.2814789  35.2466698   5.8924460  61.9426804  85.5117798
   6.3160424  61.1969185  85.0867615   6.5511765  62.6368141  85.4897537
  60.3475838  50.8832779  83.9384155  61.1509361  50.4489441  83.6516876
  59.9569740  51.2207718  83.1323395  73.7585754  15.5705833   7.5546989
  74.6054382  15.8675270   7.8876839  73.9608536  15.1694450   6.7094746
  85.3665390  71.1119461  59.9776726  84.6904678  71.7127380  60.2910538
  86.1762619  71.6208954  60.0172234   8.6673479  30.2836399  63.6080513
   8.5775595  30.5586109  62.6956024   8.8117294  31.0977039  64.0904236
  77.6948547  37.0126991  71.1388168  78.2225113  37.2031517  71.9144058
  78.1373444  36.2721786  70.7240219  21.8677654  67.5655136  85.5883713
  22.0169525  67.4768982  84.6470261  20.9567013  67.2994919  85.7125702
  55.8533669  59.1691818  39.6898956  56.1298790  58.4825745  40.2968063
  55.3252487  58.7119484  39.0354805  56.0465508  57.7384338  34.8574104
  55.5081444  57.4804802  34.1092033  56.5989952  58.4448547  34.5227356
  69.1878586  33.1863327  22.6395054  69.7335663  32.4850464  22.9953575
  69.4227982  33.2256393  21.7124195  65.9651108  29.7080612  86.7923584
  65.7074509  30.6247673  86.6949463  66.9201965  29.7197819  86.7298660
  76.2307510  60.4650002  54.7666969  76.2190094  60.1550903  55.6722603
  76.3919601  61.4058609  54.8376045  76.5982361  18.6472397  13.3354130
  76.5966263  18.3933449  12.4125004  77.5035706  18.9031086  13.5118523
  56.4330597  57.7662659  21.9279690  55.6741180  57.2872047  21.5951862
  56.0582848  58.4979324  22.4183140  55.7106018  64.1201859  31.6241398
  55.2588997  63.3541451  31.9782257  56.0049629  63.8446236  30.7560120
  39.2887535   8.5984592  83.5760880  39.0708122   9.5031071  83.8004684
  40.1045074   8.4250402  84.0458755  47.3635635  24.6051693  25.0141582
  46.4688301  24.2672310  24.9757004  47.6541328  24.6180439  24.1022167
  58.3306847   9.5030756  45.3977394  59.0012054   8.9818344  44.9562225
  58.5478745   9.4347744  46.3274689  74.6139069  32.1505775  88.2878265
  75.2350693  32.6002617  87.7149658  74.3754196  32.8057060  88.9436951
   2.3216939  56.4382057  39.7384758   2.5741444  56.5763512  40.6513939
   2.8841400  55.7235222  39.4399605  33.9018250  23.7356930  76.7025986
  33.5947227  24.6422653  76.7094803  34.8227959  23.7928543  76.9571152
  83.3471603  34.5239601  79.9446945  82.8703156  34.1790161  79.1898041
  82.7445984  34.4123726  80.6800079  25.5642033   1.5372443   6.8704758
  25.7538071   0.5990232   6.8753343  25.0901413   1.6900318   7.6878815
  16.0940399  30.3864059   1.9932489  16.3946381  29.6456928   2.5197639
  16.6288490  31.1231403   2.2889400   8.7519073  66.2606049  79.4285583
   8.1784353  66.4026794  80.1816711   9.2674446  67.0646133  79.3650360
  84.8215714  10.5045567  18.6313858  84.8574982  11.4605742  18.6001968
  85.4934082  10.2602663  19.2679291  47.2658310  44.9371567  54.5692329
  47.0698967  44.4945488  55.3950310  46.6612320  44.5460815  53.9385567
   2.0902803  23.6813946  10.4552326   1.2877486  23.2565670  10.1524200
   1.8642319  24.0348129  11.3155985  46.4196892  26.7904377  83.0427628
  46.0859604  26.3265438  83.8106613  45.7710953  26.6204529  82.3596420
  71.4252243  14.9547272  34.9598656  71.4993515  14.4571209  35.7741890
  70.4927902  15.1587048  34.8878517  29.4070911   6.7976975   2.1783097
  28.4959106   6.6207442   1.9444965  29.7083435   5.9906521   2.5956306
  75.3382721  61.9710159  87.5951385  75.5257111  62.2308464  86.6931458
  76.2001419  61.8641815  87.9976349  63.1847382  32.4681587  19.9429359
  62.5907364  32.3773956  20.6880207  62.6230545  32.3645058  19.1748219
   7.9297128  69.7432938  28.1510925   7.4693685  70.3061371  28.7736034
   7.2593622  69.1377411  27.8346004   3.8778932  60.1568909  28.5815430
   3.7321453  60.5683098  29.4334393   4.3815179  60.8030739  28.0865231
  53.3453598  47.3813705  23.3693886  53.4140968  46.4277267  23.3239040
  52.4445076  47.5434875  23.6494179  29.2129116  53.1367149  69.7920837
  29.4250011  52.2687569  70.1354446  28.4482384  53.4136887  70.2968521
   0.3419763  63.0775986  49.3100891  -0.6029519  63.1597443  49.4389076
   0.6161190  62.4268265  49.9562874  40.5462646  56.7272034  19.4556046
  40.3679848  55.9436913  19.9757538  40.3972397  57.4546852  20.0595875
  19.0324249  30.2777157   7.3491793  19.3466930  29.4436321   7.0002236
  18.5743999  30.0424232   8.1560764  84.6809387  57.8717918  79.5570526
  83.7791901  57.6227951  79.7597427  85.1903152  57.5550652  80.3030090
  82.5851517  13.2044859  77.1802444  83.5137558  13.0146551  77.0464935
  82.5622940  14.1305580  77.4212799  64.6974411  47.9829674  69.7211990
  64.6775742  47.9786758  68.7642136  64.9042816  47.0795441  69.9605179
  60.1222916  60.7537804  18.1134262  60.0154686  61.6762505  18.3455200
  60.8280907  60.4441681  18.6810722  33.0774841  53.8357887  30.0823708
  33.3308716  53.8436356  29.1593513  33.3758240  52.9855766  30.4054241
   0.0992834  23.6606407  70.5748596   0.3150549  22.7610016  70.8204651
  -0.1812344  24.0714569  71.3926468   5.6112766  67.4996948  37.0933380
   6.2198548  68.1786652  36.8020287   5.0577135  67.3310699  36.3308640
   9.0157423  63.5042801  67.0373840   9.0824509  64.4584351  67.0003662
   9.9205418  63.2040939  67.1237411  58.9120827  58.4352989  63.5658798
  59.8533592  58.2910881  63.6629982  58.5676193  57.5875473  63.2849998
  12.0451002  11.6579714  70.3701248  11.5669575  10.8515940  70.5634308
  12.4177589  11.9229002  71.2110596   1.6946498  34.6452332  86.0387192
   1.7380697  34.4814072  86.9807968   0.7596582  34.7338409  85.8538666
   5.6842885  10.2216377  30.6261654   5.9945493   9.9522648  31.4906921
   6.0286117  11.1076250  30.5134678  34.1900635  20.7161274  72.9086304
  33.6738091  19.9131107  72.8387833  34.7475624  20.7108936  72.1305542
  50.9231529   2.1732152  46.4142723  51.1400871   2.1635387  47.3465157
  51.7714996   2.1823003  45.9710350   6.5116129  69.7005768  88.7617645
   7.2496209  70.1735077  88.3771744   5.9061894  69.5674591  88.0323944
  42.1755638  58.0824699  52.3814278  42.2723236  57.7878647  53.2870102
  43.0643044  58.0617065  52.0265465  57.6521072  24.4410133  50.3455162
  57.9828568  25.1192780  50.9344101  58.1278419  24.5817471  49.5269203
  41.4617805  37.7919540  88.5643845  41.7070694  37.3479347  87.7526474
  40.6147232  37.4125214  88.7984009  74.2196274  60.3615189  21.9837494
  74.3638458  61.2410469  22.3328342  74.2565079  60.4719009  21.0336514
  83.9298935  38.2835541  33.9933357  84.5556870  38.9004097  33.6137238
  83.3949280  38.8165665  34.5815010  26.3884563   0.4709286   3.1432538
  26.8940601   0.5572039   2.3350754  27.0115337   0.6802855   3.8390820
  74.9853287  13.6016731  71.1837006  75.8437576  13.7102070  71.5930405
  75.0132294  14.1704473  70.4143143  47.8997688  59.5837364  76.0505219
  48.1221695  60.2603302  75.4110031  48.7440720  59.2940865  76.3961868
  13.1800575  28.3766899  11.8393793  13.3080635  29.3047466  11.6430206
  12.6837368  28.0402489  11.0932522  66.5650711  13.5316076  64.0561218
  66.5473709  14.3146849  63.5059357  67.3835373  13.6024837  64.5473633
  14.4549341  46.9782028  86.0653229  13.5564938  46.6584091  85.9830551
  14.4196167  47.6094475  86.7840118  34.1380577  38.7891731   2.6105254
  33.1865349  38.8844872   2.5686598  34.4675255  39.6872940   2.6431773
  65.2390137  15.3523540  59.2051277  64.6173477  15.8318863  59.7526741
  64.7221680  15.0625982  58.4533691  32.4875641  41.5401573  66.4935837
  31.8941078  42.0314217  67.0616531  32.6409340  40.7187843  66.9605560
   1.4972293  45.0343437  38.9711342   1.8491868  45.8449211  39.3389931
   2.2602735  44.5852852  38.6073456   4.4427743  16.3369122  19.3126106
   5.1434474  15.8861589  18.8413239   4.8484268  17.1434059  19.6308041
  82.6239166  20.8213959  69.6119156  83.3461685  21.1485157  69.0756607
  81.8352280  21.0829315  69.1367264  69.6851501  41.1422958  46.8779716
  70.3327408  40.5395050  46.5125847  69.1311340  40.5919189  47.4314880
   6.7087269  28.9599991  22.8894615   5.7942691  28.9240456  22.6089153
   6.6981616  28.6209641  23.7845459   9.7372169  44.3421135   8.3002224
  10.2322197  44.7619858   7.5967221   9.0387859  43.8663330   7.8507118
  44.0260963  51.2902451   0.2143613  44.2065201  50.6475792   0.9004060
  43.8728447  52.1084290   0.6869363  85.1443481  64.4029388  73.8687592
  85.8209763  63.7449112  74.0281143  84.3362885  63.9961929  74.1815491
  73.7658691   0.7036172   3.8469584  72.9458923   0.2997010   3.5628529
  74.2456894  -0.0047500   4.2761722  37.6387939  49.5704498  62.5329514
  37.4266205  49.9814453  61.6949196  37.0576591  48.8113937  62.5813904
  80.8504410  20.2878227  17.1326199  81.4944000  20.1470928  17.8267002
  80.2639694  19.5337849  17.1935425  62.9519463  39.6528625  67.9381180
  63.8061409  39.3504715  67.6296616  63.1539993  40.2329941  68.6721802
  22.2030296  63.6293564  83.4651413  21.9273777  64.4479675  83.0526886
  21.3926868  63.2448387  83.7993927  14.5451479  44.7629166  61.9995956
  15.4727535  44.7929573  61.7653351  14.1108665  45.2858658  61.3256874
  12.8544407  50.6115570  77.9005051  12.6919184  49.7253647  77.5772705
  13.0895910  50.4915390  78.8205795  65.5128174   4.5262947   4.0493717
  65.3257751   5.3243771   4.5436525  64.8028641   3.9281552   4.2826724
  19.6926498  46.6227417  10.9598169  19.4846172  46.3728523  11.8600998
  18.8792591  46.4769325  10.4767370  52.3601036  34.4339104  54.9027138
  52.6064987  34.7547798  55.7702179  51.8118134  33.6689301  55.0771141
  24.9936962   0.5609127   9.6867905  25.4047813  -0.1354074   9.1745615
  24.0695992   0.3146923   9.7274466  68.3599777  18.7007561  34.7049599
  67.7067490  19.0081749  35.3334694  68.2944565  17.7464046  34.7388916
  55.0657959  35.9404221  84.5339432  55.0564995  35.0247955  84.2550735
  54.2576790  36.3080063  84.1760864  64.8146057  20.1576462  19.0379639
  65.6552429  20.6150246  19.0571384  64.1690521  20.8343334  19.2418938
  35.8206139  66.1434708  87.2598190  35.0416832  66.4766159  86.8142624
  35.8866844  65.2314224  86.9769287  77.5137863  31.7821903  67.0967484
  77.8165359  30.9613361  67.4850388  76.9085693  32.1443825  67.7438660
   5.1865482  22.4763145  59.1744385   4.2558289  22.6837387  59.0909615
   5.2465048  21.9647636  59.9812546  77.5569458  51.8643875  41.1023712
  77.8138809  50.9423409  41.1092377  77.1967392  52.0061378  40.2269363
  39.7310371  46.0968361  33.1104622  40.5682983  46.0027390  33.5647469
  39.0737686  46.0281143  33.8029289  26.0150585   3.0523727  81.4780502
  26.5674267   2.3111386  81.7264328  25.1444836   2.6728528  81.3584900
  48.7974472  24.6862564  67.5756989  49.2424202  24.2073498  68.2748947
  48.9612846  24.1674213  66.7881699  31.6057472  38.4481125  71.4480743
  32.5102425  38.3633308  71.7496338  31.4090424  39.3803711  71.5399246
   5.0525112  63.1280403  30.9430790   5.0144753  62.6762886  31.7861118
   4.2067270  63.5702286  30.8699265  27.7187653  28.4636974  87.0677948
  28.0952454  28.9993248  87.7660828  27.8720894  28.9688435  86.2693329
   3.8006251  60.5261002  37.7946091   2.8557582  60.5172539  37.6417046
   3.9920223  59.6628380  38.1611900  27.1260872   6.4598231  25.2875118
  27.6099262   6.3421340  26.1049957  26.6223526   7.2627659  25.4208031
  26.2442398  69.1499329   3.8078110  26.3902283  70.0749130   3.6095140
  27.0893784  68.8380585   4.1314011  60.3050117  64.6864395  87.8492508
  61.1615295  65.0177231  87.5793152  60.2305870  63.8352470  87.4177856
  81.8102570  36.4077225  12.8704853  81.3471909  36.6191025  12.0598545
  81.6389847  35.4760933  13.0082054  61.4345055  38.9299049  27.2003231
  61.8851357  38.3978500  26.5445194  61.5038795  38.4226685  28.0091038
  53.1000443  62.3102913  47.2472878  52.7871475  62.2580414  46.3441811
  52.3595810  62.0111885  47.7749977  44.8806229  59.9989662  61.4076271
  44.0748596  59.8741531  61.9090233  45.5681038  59.6329765  61.9640884
  22.2598038  51.9363899  15.6380577  21.8021049  52.2011909  14.8401709
  21.9973869  51.0259209  15.7737589  45.2029762  69.2561111  63.9500999
  45.0537682  69.2457275  63.0046577  45.1605911  68.3356705  64.2093811
   8.6588736  32.3492546  57.3249245   9.1419859  31.7155666  56.7945747
   7.9629865  31.8364525  57.7360268  12.6659746  40.7187080   6.7359285
  11.7653847  40.4616852   6.9336867  13.2046328  40.0565033   7.1690145
  35.7595100  28.6963043  69.6992645  36.4665985  28.4074459  70.2761688
  36.2071838  29.0646057  68.9375763   4.2911677  28.6660976  11.2974529
   5.0416231  28.1751671  11.6321697   3.6701148  27.9933643  11.0182495
  74.5131912  40.4550171  73.9627151  73.6584015  40.1949005  74.3060837
  74.7574158  39.7469978  73.3666458  22.3513546  42.1297836   3.1845620
  22.6670723  41.3747292   3.6810002  22.3963432  41.8509102   2.2699921
  26.6501007  49.9138908  39.9091835  26.9947300  50.1567497  40.7685318
  26.7138100  50.7156944  39.3902550  85.8108902  30.9704762  24.0525742
  84.8840408  30.9806175  24.2914886  86.2498169  31.4166050  24.7768288
  47.0703621  14.1162119  69.9745407  46.7106514  14.2434282  70.8524094
  46.3865738  13.6414785  69.5019989  84.1069260  23.4305916   1.8256289
  83.8126526  24.1810360   2.3418338  84.2480927  22.7371120   2.4701369
  32.2319641  58.6039429   8.1496582  32.6052284  57.9429054   7.5666213
  31.6142254  58.1191635   8.6970348  82.8254242  21.3343277   9.5756226
  83.2510071  21.6234303   8.7684479  83.3835449  21.6735077  10.2754030
  67.8483047  35.7268715  26.9956665  67.8653488  34.8866196  26.5374966
  66.9179840  35.9073868  27.1303864  25.1072617  55.5431557  28.1216259
  25.9850101  55.1673241  28.0542316  24.6947098  55.3402100  27.2820759
  50.2451973  54.6351395  59.3183212  51.0977936  54.2039528  59.3765030
  49.7647743  54.1285248  58.6635170  46.1632271  44.1851540  39.5290565
  45.7833900  43.8221054  38.7289619  47.0875931  43.9400139  39.4879990
  16.0357857  65.9640350   2.9785776  15.3453970  66.5614319   2.6909723
  16.8483505  66.3822479   2.6938524  23.1931114  37.8747215  14.4103804
  23.9924736  37.3658905  14.5458155  22.4838676  37.2662659  14.6177073
  75.9506531  31.8935776  40.3158684  75.9722061  31.9389076  39.3599854
  76.8446045  31.6587238  40.5647278  63.0820274  64.1396484  18.3584805
  63.7580185  63.6594772  17.8802509  62.5970955  63.4633560  18.8314514
  69.4265594  36.1601372  18.1989746  69.4983978  36.2391510  19.1501999
  69.0088501  36.9755554  17.9217701   6.5101171  36.5337639  50.8836441
   6.1532731  36.0388298  51.6211662   5.7397366  36.8694267  50.4253044
  58.2075729  26.8002663  59.7943993  57.2844810  26.5639610  59.7033348
  58.3170090  27.5622177  59.2254639  44.9716759  56.6600876  84.1902313
  45.2084694  57.4614830  83.7234039  45.2045822  56.8361969  85.1018066
  86.5115967  25.4189930  72.7111511  86.1891251  24.6455917  73.1738586
  87.2973633  25.6763229  73.1934204   3.7900259  19.3018627   3.5926235
   3.4766321  18.7801170   2.8538418   4.3043766  18.6887455   4.1177545
   9.8677464   7.2935815   7.4875164  10.6887989   7.2345743   6.9990273
  10.1380253   7.3549919   8.4037094  40.1654167  62.3466492  80.3178635
  39.6317711  62.1785316  79.5412140  41.0095367  61.9405479  80.1209641
  74.9429550  35.0685921  52.8224678  74.5990524  35.9221039  52.5588837
  74.3188095  34.4377174  52.4637680  85.9393997  26.4422646  69.3459778
  86.6031647  26.9718914  68.9042282  86.4326248  25.7285004  69.7503281
  49.1467285  28.2070274  -0.1208824  49.7722359  28.3480377   0.5898149
  48.7186928  27.3791885   0.0975126  80.6648254   5.3202553  20.5310974
  81.4599762   5.7118435  20.1696644  80.9274902   4.9968576  21.3928719
  59.8738899  58.3135071  15.5777721  59.4085236  57.9707375  16.3407764
  59.3043671  59.0050163  15.2405939   5.7762337  30.7100220  65.3109665
   6.3488417  30.0480118  65.6983871   6.3251595  31.1520977  64.6632919
  45.0816536  10.1019907  79.0300751  45.7355270  10.5544815  79.5629349
  44.2445335  10.4663563  79.3176498  65.3287277  30.0144844  80.7413101
  65.4118347  29.7628746  79.8215179  64.9477158  29.2460938  81.1663284
   3.2206044  46.2033806  75.9102478   3.0619256  45.7466927  76.7363815
   4.0512471  46.6597023  76.0445404   7.4893427  20.4174690  75.8401794
   7.6882200  21.3270874  75.6182022   6.9613895  20.4751968  76.6365280
  78.9857788  19.0666199  10.5900698  79.5666733  19.3160286   9.8713331
  78.2202072  19.6317730  10.4864120  19.9837227  44.2988892  59.7018509
  19.9823799  43.7204552  60.4645042  20.5370808  45.0356750  59.9610291
  64.1477203  62.8437004   2.7123230  63.8407555  62.5914345   3.5831654
  64.7892456  62.1721306   2.4806533  27.1296825  32.6472816  84.8669586
  27.1466141  33.5320702  84.5021362  26.5818424  32.7208710  85.6484299
  57.6364250  14.4216528  79.0479965  57.5306320  15.3678350  79.1468887
  56.9412651  14.1649561  78.4421158  28.5939751  31.2921696   3.4494197
  27.7278690  30.8865910   3.4893968  29.1474667  30.7287693   3.9902146
   1.5341767  26.1880169   3.6803460   1.9777423  26.1930275   4.5285540
   2.2352657  26.3222885   3.0426338   8.9352112  25.6235733  56.9858627
   9.1257792  24.8102989  56.5184212   7.9999785  25.5728226  57.1833382
  85.1520691  18.7864685  23.3652210  85.5985184  18.0054054  23.0383301
  85.7912369  19.4907036  23.2568169  65.7429428   1.3056368  81.5025330
  65.5230026   0.3748727  81.4633636  66.5177689   1.3922259  80.9472198
  51.3038826   8.0722580  21.4992237  51.9069061   7.5334864  22.0113945
  51.7029648   8.1185417  20.6304169  85.2341995  50.3639565  56.6565285
  84.6209106  50.0550041  57.3233528  86.0771561  49.9916954  56.9155235
  27.2109585  43.5104752  60.3018341  27.1634579  43.1322632  61.1798592
  26.3031273  43.7190704  60.0814629  69.4220276  67.1396790  65.3454056
  69.0572968  66.7021179  66.1146545  69.7823257  67.9591522  65.6843338
  75.9444199  20.2861900  57.8533592  76.6323166  19.7808781  58.2865944
  75.9213562  19.9427261  56.9602013  60.3960724  24.1695690  74.4654236
  60.4044876  25.1248875  74.4060287  60.2097206  23.9885063  75.3866882
  79.3011169  19.0309734  56.3767509  78.7226562  19.1669598  57.1271629
  79.1047821  18.1420422  56.0809746  55.3224678  41.9494629   3.8744020
  55.3894882  41.3734932   4.6359787  55.2813492  41.3536453   3.1263773
   9.0015650  42.4356308  81.8771744   8.5247116  42.4175224  82.7069397
   8.9868507  41.5282936  81.5726166  67.7327499  50.8702202  62.8879929
  67.2023239  51.6252136  62.6333008  67.2490158  50.1143646  62.5549622
  58.5622749   4.3637753   8.8603029  58.0495682   4.9053221   8.2602272
  59.2630806   4.0024986   8.3175468  52.9747238  51.6634064  16.4794922
  53.0614243  51.5430336  17.4251270  53.4523277  50.9260750  16.0994053
  73.9254532  60.9286194  83.7693787  74.0487595  60.0183754  83.5001450
  72.9958725  61.0993729  83.6178741  23.3156910  62.2008514  89.2175674
  23.7295399  63.0433998  89.4048462  23.6037521  61.9843712  88.3307800
  51.7072639  64.5439911   4.1431866  52.5956383  64.8938522   4.0751944
  51.3376236  64.9768600   4.9127436  80.4982071  11.7537346  42.6535606
  80.7647171  12.1989994  43.4578896  81.2787170  11.2746801  42.3751030
  16.3407078   6.3384299  79.8981781  16.9395676   6.1937652  80.6307526
  15.6248522   6.8523507  80.2718964  14.8549566  58.9634476  27.8028297
  15.4272604  58.8986588  27.0383015  14.7588091  58.0610352  28.1071968
  81.6321030  34.1915321  77.6994629  81.0133591  33.8101044  78.3222809
  81.2565308  33.9990005  76.8403320  63.5189323   6.4534717  50.0937233
  63.8787727   6.6992931  49.2414818  63.7595901   5.5330009  50.1988411
  12.5749760  20.7389545  81.2575912  13.2914047  20.1054096  81.2178345
  11.8615065  20.3244610  80.7724228  57.0688934  17.5148430  62.9974365
  56.8873634  16.5851116  62.8600273  57.1000099  17.6147327  63.9489021
  81.5898132  29.9064846  75.5603027  80.7349701  29.7285786  75.9525070
  82.0872040  30.3374481  76.2553635  85.2109299  42.2563400   6.5799580
  85.8305283  42.3540688   7.3029904  85.6959457  42.5476646   5.8078675
  48.0595398  29.3309364   6.7259293  48.5506439  30.1516113   6.6866508
  48.1978874  29.0114670   7.6175737   8.6472263  40.9010391  63.2469673
   8.5977440  40.0332222  62.8461266   7.7792573  41.2794647  63.1067734
  59.3013382   6.6712227  65.6637955  59.6924400   6.8555331  66.5177841
  59.5633736   7.4109216  65.1156921  33.2036743  33.2022743   9.7569675
  33.0975380  32.6700249   8.9685030  32.6111984  33.9428520   9.6275692
  86.3368607  31.0310173  54.9723778  86.5511093  31.8636036  55.3932495
  85.3800125  31.0079308  54.9604111  54.2303009  50.3432922  63.5267181
  53.9265137  51.2500534  63.4851418  53.6753578  49.9350090  64.1912308
   2.8614662  21.3552685  61.9257622   3.8082445  21.2613430  61.8207817
   2.7456334  21.6033897  62.8429604  19.3896599  46.0075417  81.9033432
  19.5129013  45.6286011  81.0330276  19.2224960  45.2549896  82.4707565
  17.1372337  58.7007332  46.1973801  17.6939945  59.2655869  45.6614761
  17.3013287  57.8180923  45.8653450  15.2508898   1.5861903  59.9846420
  14.6599216   1.8711654  60.6816177  15.5907707   0.7443851  60.2880821
  56.9170761  52.5907364  60.3322525  57.7538490  52.3908348  59.9126320
  57.1309853  52.6844559  61.2605247  12.9158716  70.1690063  18.5727901
  13.4676456  69.6419067  17.9949150  13.1625109  71.0735550  18.3799438
  85.2094269  39.1139488   6.6631451  86.0428772  38.6943283   6.8764877
  85.4449921  40.0142136   6.4389548  59.3663864  61.3151093  63.0514145
  58.7203903  60.6556396  63.3044395  59.3814545  61.9295425  63.7852249
  67.8028793  54.2217827   3.9746170  68.5853043  54.1296349   4.5182605
  67.0980530  54.3994751   4.5974212  30.7377701  24.1460781   9.5682793
  30.1705227  24.1851215  10.3383045  30.2199211  24.5446720   8.8688593
  41.7326050  40.4252396  85.1651001  41.3789673  40.2185287  84.2999802
  42.5792580  39.9794083  85.1905441  21.6720123  70.5586472  40.1885910
  21.1161652  70.1131897  39.5491867  22.4538651  70.0098343  40.2498016
   5.7777581   4.3561530  85.9149094   6.0036139   3.5744631  86.4190750
   6.2552323   5.0651937  86.3456192  69.5318146  59.5858536   3.1699820
  69.5559845  59.0997391   2.3457601  68.7412109  59.2728691   3.6095450
  27.9944878  51.4675560  67.2973862  27.7499561  51.1731491  66.4200287
  28.5391655  50.7608719  67.6440201  50.9678383  28.2079124  58.1603279
  51.5805168  27.6838951  58.6763382  50.8554382  27.7141380  57.3480568
  51.6623840  65.3111801  43.6654434  51.0013695  65.9620667  43.9013329
  51.7909050  65.4305038  42.7244453  56.9234123   0.8973578  32.5924568
  56.9955444   0.5364560  31.7088394  57.7980804   0.7914373  32.9665756
  17.2673397   2.4531486  17.9443245  18.1886520   2.2612405  18.1192226
  17.0256252   1.8482077  17.2430038  58.2936172  24.3734093  20.0875492
  58.6949158  24.5433369  19.2353077  58.5376129  23.4705639  20.2914333
   4.9724021  55.9346962   2.8304477   4.5780520  55.7092476   3.6729994
   4.2266726  56.0987892   2.2532196  51.0859985  44.7170563   4.1849556
  51.3917847  44.5821381   3.2880032  51.4057922  43.9528694   4.6645246
  59.8682785  25.5397873  12.2846184  60.8138504  25.6536922  12.1889582
  59.6133003  26.1918621  12.9373198   6.2876358  60.2284241  63.5627480
   6.9085293  60.6911621  63.0000763   6.8369641  59.7005882  64.1422806
  17.2254162  29.9213562  79.3040543  16.7771549  29.3991299  79.9693146
  16.6731758  30.6955566  79.1950760  69.7285614  49.8030052  17.6016121
  70.6169205  49.8714600  17.9514122  69.1621933  49.8807831  18.3693428
  35.6176033  15.8604746  77.8394547  34.7029266  16.0754452  78.0221634
  36.0315819  16.7053146  77.6631165  79.0463943   5.6714587  63.7282600
  78.7914200   6.5188527  64.0931473  78.6916428   5.6769776  62.8392410
  81.7872391   6.0467143  27.4782124  82.7065506   6.0401320  27.7447605
  81.5723114   6.9745274  27.3822937  54.1805611  31.6172485  59.1352844
  53.6241074  32.2194252  59.6292229  54.2334366  30.8349895  59.6843796
  28.4011478  24.3732967   7.8228273  28.9855518  24.5830803   7.0943394
  27.8306313  23.6846275   7.4815412  20.5121593  11.9711866  59.1486320
  20.3020420  12.9040213  59.1050224  19.6650715  11.5398712  59.2610626
  31.1967907   5.7490654  28.7907543  30.7566929   5.1914244  28.1492062
  31.7803001   5.1556530  29.2636280  64.4963226  43.7491112  16.1162052
  64.0933838  44.2036476  16.8559818  63.7719917  43.5857849  15.5121298
  86.5942535  54.4040985  67.6884842  87.0165405  55.1548424  68.1059647
  86.5154953  53.7545242  68.3871155   6.5207391  64.8748093  86.7196121
   7.3671699  64.5316238  86.4332428   6.6404114  65.0609131  87.6508865
  21.0735779   4.1728830  77.7099915  20.5760155   4.8797188  78.1211395
  20.5569344   3.9321702  76.9409866  63.3082199  55.7892036  67.2661591
  63.0960846  56.7037506  67.4528046  64.2519684  55.7273369  67.4136200
  22.8600044  34.8439445  21.3800716  23.3535309  35.2762718  20.6831112
  23.4154930  34.1120338  21.6483555  25.9522591  15.0004730  45.9244881
  25.6319122  14.8673897  45.0323563  26.0333881  14.1171150  46.2841110
  46.8098183  48.5431862  51.0285721  46.7326393  47.7664337  50.4745598
  46.2733116  49.2039719  50.5906754  51.3828812  46.5840912  51.3518600
  52.1133423  46.7571678  51.9457512  50.8444862  45.9423637  51.8150482
  16.5604248  52.1176949  60.8311005  15.8681316  52.6481285  60.4366379
  17.3619347  52.4076233  60.3954887  17.0676804  59.7849312   5.7345996
  16.5829086  60.0223427   6.5250845  16.7496548  60.3927231   5.0670037
   4.5282598  66.3636322  44.5496750   4.4853702  65.4349518  44.7775726
   5.1319904  66.4005661  43.8078003  60.5294075  10.9224777  57.5642738
  60.4741325  11.0726805  58.5079994  60.6282234   9.9743052  57.4780388
  62.8742256  28.3710461  55.5486565  62.4125519  27.6752663  55.0807037
  62.3588181  28.5079288  56.3435478  76.8219452  33.1668396  51.6355934
  76.9680634  33.9443817  51.0967865  76.3318863  33.4884605  52.3923187
  19.0763321  64.0620041  68.5869904  19.0482025  63.8936691  67.6451263
  20.0001450  64.2302246  68.7727432  74.9949799  70.4620132  54.9315262
  74.5530319  69.6930161  55.2914696  75.1088409  70.2600174  54.0028381
  86.3148346  49.8278198  28.3026505  86.2243423  50.1998711  29.1799297
  86.0413132  48.9157028  28.3999310   5.5572505  50.8469200   1.8574876
   5.3078809  51.5150909   1.2190545   5.4958053  51.2896385   2.7039254
  58.6365433  48.5010414  80.2384872  58.1515694  47.7276077  79.9506836
  58.5626602  49.1155090  79.5082779  18.4574127  48.7698898  43.5218163
  19.0398273  49.5137177  43.6759148  18.6358109  48.1716614  44.2474403
  57.9321594  54.8093605  65.5772476  58.7284584  54.9636955  66.0855026
  57.2913742  54.5084114  66.2214966  60.4097748  14.3566389  72.6445465
  59.9585609  14.8848562  71.9860458  60.5162544  14.9452076  73.3918610
  74.7917786  27.5120373   7.6183887  74.1968842  28.1547203   8.0047760
  75.5757599  27.5516853   8.1661367  36.6073380  33.7874908   7.4557910
  37.0474243  34.4364662   8.0047798  37.3137627  33.3771400   6.9569845
  51.9169426  54.9091377  27.0270805  52.5652885  54.9548225  27.7297859
  52.4347267  54.9237938  26.2221470  63.4658165  24.1669846  59.0773811
  63.6355438  25.0327702  59.4486504  63.1345749  24.3446198  58.1970634
  75.7520905  12.4960890  22.8568439  75.1445007  12.3267288  23.5768280
  75.4894562  13.3519554  22.5181026   9.9855547  48.4377480  52.6030884
   9.3418236  47.7558594  52.4110756   9.9502077  49.0208511  51.8448181
  76.9130096   4.6344848  16.8095894  76.7769089   3.7092843  16.6053524
  76.4589691   4.7653089  17.6420364  38.1904030  23.3339462  62.3741570
  39.0122604  23.4257545  61.8921204  37.8490639  22.4810333  62.1053467
  29.0729332   7.8587565  61.6826477  28.3536358   7.9442883  61.0569267
  28.8460255   7.0892000  62.2046890  28.8554039  42.3979073  22.2586327
  28.7744141  41.4616432  22.4405231  29.0515060  42.4440193  21.3228722
  51.0724754  61.0692406  11.4970360  50.1309052  61.0699425  11.3247738
  51.1848946  61.6911087  12.2159729  73.3810501  47.2698631  33.3664436
  73.9645767  46.9796524  34.0675240  73.6789856  48.1553078  33.1579857
  43.2953758  43.8301392  77.0229568  43.6386032  44.5917854  76.5557022
  43.6794090  43.0788116  76.5709991  35.2635345  69.4938583  59.7257652
  35.2651138  70.4098053  59.4477882  34.7382698  69.4873047  60.5259438
  52.0386047  60.0052681   4.7384319  51.9227676  59.3755226   5.4499335
  51.8784142  59.4989929   3.9420302  15.3415880  58.8664742  24.8313141
  15.3272705  59.6518250  25.3783550  15.2534132  59.1959305  23.9369354
  30.5035496  65.9054642   2.6397278  30.8514442  66.1021957   3.5094979
  31.2749729  65.8785248   2.0736780  86.1728058  61.0876198  85.3536835
  85.6080017  61.7522812  84.9593964  86.8911667  61.5850067  85.7445679
  48.9713364   8.8693542  84.2776260  48.4123726   8.8802652  83.5006638
  49.4329033   9.7075386  84.2524109  24.1745110  70.0385971  15.2622776
  24.6296120  70.8631210  15.4333754  23.3808804  70.2959518  14.7930775
  47.6226540  49.7570114   4.4137774  47.4140587  49.4744225   5.3042068
  47.9127693  50.6638756   4.5120721  26.4453754  42.2339783   0.3783797
  27.2711506  42.6595993   0.6089706  25.8042908  42.9447098   0.3680924
  70.1330795  33.7467117  77.6810684  69.8221054  32.9405632  78.0929565
  71.0672913  33.7761955  77.8874893  21.3352184  48.1850891  83.1338501
  21.6156330  47.8331108  82.2890396  20.6762161  47.5645142  83.4450378
  85.9615021  49.0200272  43.5587044  85.1257477  48.9338226  44.0172997
  86.5162506  49.5137978  44.1625900  24.7109165   5.6857452  69.6752625
  24.1909637   6.3176990  70.1717606  25.4708157   6.1842513  69.3747940
  27.8762436  29.9659424  84.6653824  27.6163139  30.8871384  84.6571808
  27.7810154  29.6821060  83.7562027  82.3632431  47.8401031  22.9788609
  82.6798630  47.4858322  23.8098106  81.6078415  47.2951126  22.7584400
  34.5493126  15.1357260   8.9310198  35.3031387  15.0068989   8.3553619
  34.3954506  14.2749586   9.3204279  23.5920601  22.5368652  71.5570297
  23.0230198  23.3051414  71.6037064  23.8207531  22.3524971  72.4680405
   1.6063565  40.6281013   1.3080797   0.8858913  41.1133919   1.7101431
   1.4387761  40.6861992   0.3674558  60.9202538   9.7582111  61.9894791
  61.5368690   9.3984175  61.3518524  61.2667046  10.6267672  62.1939659
  61.4790993   6.5537786  76.1584854  61.7760201   6.5838933  77.0679703
  62.0440254   5.9019146  75.7435608  18.2768269  19.4166813  73.5679550
  17.7555504  18.7383671  73.1385498  17.9094296  20.2402172  73.2469635
  33.6705322  52.1668434  81.0259857  34.4550629  52.3133812  80.4975281
  33.6119423  52.9400253  81.5872269   3.0713713  67.4621353  88.0053864
   3.3892984  68.1681061  87.4425659   3.1339910  67.8163605  88.8924179
  27.1148357  65.7707901  12.4466124  26.9192123  64.8341141  12.4221029
  27.8348732  65.8814163  11.8256950  45.4972382   9.5683460  63.0809784
  46.1748581   9.1489773  62.5507011  44.7551956   8.9649334  63.0423012
  57.8083305  35.4936905  84.9119110  57.9661102  36.0422859  85.6802750
  56.8580742  35.3808403  84.8892365  80.5385590  19.8273373  12.8770599
  79.9031067  19.6084461  12.1954985  80.0083008  20.1616459  13.6004505
  49.3103180  58.1602592  60.9839096  49.5905495  57.7099457  60.1870918
  49.1223183  59.0548325  60.6999550  12.9388514  51.3914452  27.2133160
  13.8564177  51.6160965  27.3677044  12.7953806  50.6001511  27.7324467
   6.8583493  10.5812798  20.9387836   7.0948234  10.1903973  21.7799263
   6.6003470   9.8381462  20.3934212  64.1698227  59.3670845  78.8490524
  63.5895767  59.3447800  79.6100006  64.1090088  60.2667007  78.5277710
  82.9471207  66.1742783  74.0705948  83.7505035  65.6653214  73.9621582
  82.2501984  65.5869904  73.7779922  71.8303833  21.3351192  63.0996437
  72.6427917  21.3430347  62.5935173  71.8389282  22.1634350  63.5792847
  83.9895325   9.9873610  61.9892693  83.2809677  10.5973711  62.1943359
  84.5346909  10.4569702  61.3579979  28.6446419  66.0577087  47.3651276
  28.9958115  65.2061386  47.1048393  28.7709732  66.6139679  46.5964622
   4.1612625  31.4944210  69.6669083   3.9181945  30.6353741  70.0121460
   5.1173334  31.5085697  69.7111816  15.9707155  64.2721634  52.7100334
  15.2742434  63.8620567  53.2228394  16.1736946  65.0787888  53.1837311
  62.2724800  45.3070755  59.9286880  62.0427361  44.7810593  60.6946869
  61.6980400  46.0709114  59.9816322  18.7267113  69.7134857  30.5832863
  18.6845493  69.1636810  29.8008728  19.6357288  70.0113297  30.6180267
  18.9091263  13.8811140  14.3890247  19.7236290  14.1891956  14.7863932
  18.8829288  14.3096628  13.5335178  62.0775528  48.8758316   4.0311246
  62.1699562  47.9623222   4.3016725  62.9719162  49.1625519   3.8463788
  25.4546337  54.0050507   4.5094767  24.5821762  54.1299629   4.1360493
  25.3813705  53.2026176   5.0261669  73.6048126  29.7569027  11.9877090
  74.5473938  29.8678799  11.8633757  73.3637543  30.4397850  12.6136427
  56.9232597  66.6509857  59.6267700  56.9519310  67.3801727  59.0073395
  57.3647270  66.9832153  60.4084129  63.1616096  51.4757233  52.5837326
  62.8735161  51.0396843  51.7817955  63.5019188  50.7686157  53.1318398
  76.4506454  64.9021454  41.1224136  76.6539459  65.7499008  40.7271843
  76.8576355  64.2619705  40.5386696  17.4715157  70.5318146  81.9986115
  16.9608727  71.3366241  82.0866470  18.3500328  70.7721558  82.2930222
  78.3588181  47.5702019   4.6732326  78.1857529  47.2921944   5.5726743
  77.6479034  48.1778831   4.4693813  54.5822372   2.7414739  69.4644165
  54.9421654   2.1439164  68.8089752  53.6388435   2.5809696  69.4424744
   5.2718525   9.0598660  26.7892208   5.1011267  10.0005589  26.8359165
   4.9605250   8.7180452  27.6273537  40.4059372  24.7493725  83.3211670
  40.5587654  25.1530247  84.1755295  39.5993690  24.2465820  83.4346542
  75.7109680   4.4623146   4.2113523  76.4025726   5.0891829   4.4233537
  75.6185379   3.9310954   5.0022345  41.3822327  66.0525970  56.5383453
  42.1182251  65.4652176  56.7102165  40.8812599  65.6139679  55.8506927
  79.0964966  16.0005798   3.0094037  79.2645798  16.6756039   2.3518925
  78.1448288  15.8978043   3.0092885  30.8646793  70.1317596  63.7455254
  31.1566696  69.2303772  63.8814850  31.6514187  70.6608276  63.8772774
  14.4720087  64.1892090  14.6708698  15.1446791  63.6995659  15.1441479
  14.8477192  65.0619888  14.5554247  50.6201859   9.1459408   0.3047354
  50.0027428   8.4149714   0.3307400  50.7647972   9.3701305   1.2240058
  77.5823669  47.1358452  59.6386452  77.3824997  46.7696686  58.7771339
  77.9249496  46.3957901  60.1398315  62.0340958  45.5082359   7.5353770
  61.2140160  45.0146408   7.5276914  62.0382500  45.9787865   6.7018323
  71.3869171  46.5352898  63.1186066  70.8421555  45.9208450  63.6104698
  72.2648010  46.1550674  63.1498222  77.9046249  52.7252235  65.8056259
  77.4416809  52.3717651  65.0460281  77.3332825  53.4202919  66.1322327
  48.6333656  62.7250900  -0.0861374  48.3639984  62.7587051   0.8317633
  48.8093529  63.6370430  -0.3176579   9.8055992  17.4660969  13.3366432
  10.1787672  18.1831970  12.8240557  10.3286581  17.4470634  14.1380663
  11.0565958   5.0990105   9.5810232  10.5374269   5.8740659   9.7954626
  11.9473553   5.4309430   9.4687681  74.9495316  57.8563843  12.7789774
  74.0904083  58.2757988  12.7318287  75.0286255  57.3789444  11.9531279
  67.2509155  35.0151558  88.5030746  66.3024292  34.9407463  88.3978119
  67.6020584  34.8608818  87.6260757  49.8804741  16.4226990  12.2548952
  50.2379112  17.1154022  12.8104429  48.9780655  16.3160820  12.5557661
  29.3571415  35.0200920  78.5521698  28.4192085  34.8297119  78.5684891
  29.4072266  35.9757462  78.5309906  73.1291199  58.6495514  17.7882977
  73.4161835  59.5345421  18.0132809  72.2411118  58.5890160  18.1404324
  57.9132729  30.1519184   4.6420970  57.4480209  30.8584270   5.0900040
  58.8026733  30.4863548   4.5265660  18.1752224  32.2621193  21.8701153
  19.1244068  32.3818970  21.9006805  17.8309975  33.1298752  21.6585979
  14.2141724  57.6172142  56.2605820  14.5588427  57.0038185  55.6115990
  14.9912395  58.0361214  56.6306000  62.9947777  31.5545425   2.8664536
  63.5808372  31.5008240   3.6213562  63.3937111  32.2150536   2.3000517
  63.2367134  11.3201065  47.0641441  63.7274208  12.0968857  46.7957153
  62.4219627  11.3667955  46.5639114  76.2506790  40.8603401  27.3215904
  76.8742981  40.2165222  27.6574898  75.3946381  40.5285721  27.5924435
  68.1387024   1.8405738  77.3090668  68.3794174   2.5755875  77.8730164
  68.3022079   1.0642256  77.8445816  12.2666235  58.5974960  69.2103958
  12.3504725  58.5638008  70.1633224  11.7768536  59.4023476  69.0413589
  27.8925781  59.0051880  40.1477394  28.6701584  58.8775787  40.6911736
  27.1962624  58.5420532  40.6134491   8.0826235  29.7348938  60.8864670
   8.8125238  29.7321320  60.2672195   7.6864314  28.8685017  60.7935677
  71.2610474   3.2286460  75.7852020  70.7760315   3.6931226  76.4672928
  71.9987411   3.8037591  75.5820160  49.1263351   7.1589422   0.8351132
  48.7984390   7.1416559   1.7342336  49.4737015   6.2788978   0.6898893
  83.4942856  44.3419151   5.1446834  83.4487305  44.5867462   4.2204466
  83.2687912  43.4117432   5.1574473  67.7389679  61.0981636  53.7369995
  67.6448441  61.4832726  54.6082420  68.6752777  61.1595726  53.5478630
  64.6325302  23.6341667  76.9163132  65.1283722  24.4389858  77.0667877
  64.3576584  23.6897621  76.0011215  74.2606964  22.3620892  80.9734344
  74.8092728  21.5791893  80.9248047  74.1677094  22.6462536  80.0641327
  52.2473717  29.1392956   3.8216276  53.2025223  29.1719952   3.7682469
  51.9557877  29.1573372   2.9100993  24.0923100  26.8381462  81.8183212
  24.7774944  26.4851017  81.2507706  24.5640736  27.1882401  82.5740433
  21.4325581  34.2152672  72.9804764  20.4902630  34.2694473  73.1397705
  21.7687283  33.6917381  73.7078934  62.9860840  27.9734135  44.4551582
  62.0358047  27.8593807  44.4409790  63.2515068  27.8858814  43.5396690
  79.4790421  20.2034969  41.1074562  79.3611526  19.6887531  40.3091011
  80.4073868  20.1069469  41.3197899  42.3380394  51.8299713  44.1702003
  43.2056389  52.2335510  44.1451302  41.9326744  52.1825485  44.9624176
  55.8203621  27.4866028  44.7318420  56.3835335  26.8744431  45.2054749
  56.4114761  27.9397526  44.1306152  18.1251926  61.4337158  63.8904419
  18.9115429  61.5690269  63.3616905  17.8583469  60.5350037  63.6971931
  83.3029099  28.5611553  54.2276993  84.0421753  28.0638065  53.8778877
  83.5633926  29.4771633  54.1312180  39.8763962  44.6252480  78.5465698
  39.2076149  44.1576538  78.0462570  40.3955040  45.0816116  77.8843842
  36.9542770  35.1945839   4.2544765  37.5342140  34.5177841   4.6035500
  36.4148216  35.4559746   5.0007300   7.7884474  61.6069145  20.1179104
   8.1468420  61.0392456  20.8002148   6.9865594  61.1663818  19.8365936
  86.2413864  17.3716583  58.7352676  85.4854965  17.8758335  59.0363922
  86.7961960  17.2857056  59.5105286  80.4783249  62.5824776  66.7080383
  79.9673462  63.3619576  66.9260712  81.3684921  62.9087639  66.5762405
   9.8203182  58.2986984  58.6361809  10.5774317  57.7974854  58.3332024
   9.1457901  57.6391830  58.7983131  77.6618652  40.0708389  31.5655670
  78.4863815  39.8256912  31.1456833  77.9261398  40.5552864  32.3476791
  51.7089691  34.2866631  13.9770613  51.0377235  33.6157722  14.1018114
  51.7050018  34.7843933  14.7946692  65.0905457  48.3062782  26.8377190
  64.3125687  47.7850914  27.0360832  64.8215332  48.8723755  26.1142597
  19.0956497  64.7504349  19.5090866  18.7659721  65.5318680  19.9528255
  19.6779747  64.3397903  20.1482277  29.6089134  68.7355270  12.3118258
  29.0101891  68.8724899  13.0459919  29.0563049  68.3817825  11.6148863
  41.6673584  52.2788200   6.1663322  41.0063896  52.7852745   6.6384115
  42.4806442  52.4424438   6.6438541  56.8988876  27.3096943  83.0744781
  56.1708527  27.5700588  82.5102005  57.6128616  27.1119671  82.4683533
  61.5689964  32.6799088  41.5037346  60.9575195  32.4506950  42.2035789
  61.0103874  32.9760590  40.7850647  55.1788101  64.6334152   9.5808887
  55.5068703  65.5000687   9.8207273  54.2573280  64.6460953   9.8396244
  58.4449196  47.4915733  72.5655060  57.5927734  47.9228630  72.6292801
  58.2424316  46.5563469  72.5897827  49.3103523  60.0991745  44.5938301
  49.9164848  59.5333138  45.0719948  48.5034294  60.0745659  45.1081238
  68.5365448   5.8695550   8.1713629  68.1803818   5.3031678   8.8558960
  68.0016556   6.6622152   8.2139978  64.7387085  41.9483337  18.9389935
  63.9496078  42.0622597  19.4686852  65.0010376  42.8387718  18.7054596
  54.8600769  18.1524067  10.0657911  54.6298943  17.4864597  10.7136822
  54.0539055  18.2919598   9.5689592  62.8431931  16.7821541  28.9038563
  63.1343689  17.6416245  28.5992985  62.6098366  16.3110237  28.1039734
  79.4134674  14.2295351  22.5790081  79.5899506  14.6542273  21.7395306
  78.7435760  13.5753222  22.3803139  53.2562370  50.9246483  10.3354702
  54.1089211  51.3519554  10.4165516  53.0989761  50.8809052   9.3922901
  63.3304024  59.8493843  75.1939240  63.0336609  59.1857185  74.5712509
  63.4574776  60.6358528  74.6633148  80.0677872  58.8843193   1.7315912
  79.5303192  59.6568375   1.9064457  80.7654114  59.2025948   1.1586609
  30.3348904   0.7815359  23.8742771  30.3482094   1.6704717  24.2290268
  29.6948280   0.3177692  24.4141579  54.9323502  59.2222481   6.4285588
  54.0969734  59.5499153   6.0953660  54.7291145  58.3512878   6.7696648
   3.9591870   6.4987884  77.3563156   3.4866083   5.7569551  77.7339172
   3.8482523   6.3973231  76.4109955  63.8640785  12.2593765  53.6404572
  63.3858376  12.2374659  54.4693375  63.3138809  12.7856560  53.0603294
  41.4430618  45.8644333  76.5653152  42.0165977  46.6164436  76.7128525
  41.9949455  45.1033478  76.7453461  58.9549179  70.3942947  50.6845970
  59.6897736  69.9794540  51.1364021  58.2379417  69.7653427  50.7658272
   7.8153768  17.2873459  83.5189362   7.1435242  16.8010368  83.0410767
   8.4899664  16.6364689  83.7126312  80.1238861  16.5071564  10.5340290
  79.6985703  17.3560925  10.4130020  79.6873398  16.1270752  11.2963905
  49.7767296  24.7855873  85.9716873  49.1026306  24.3353119  86.4806747
  49.9720612  25.5742893  86.4776764  40.4733734  63.8824043  14.5081568
  39.7661514  64.2085953  15.0646353  40.4155121  62.9297409  14.5810642
  69.6756973  43.8074379  58.8078804  70.1914597  44.1320610  59.5460129
  69.8296280  44.4439888  58.1097794  44.6324425  64.6172714  31.2665195
  44.3412476  64.3116150  30.4074421  45.1619987  65.3920898  31.0782146
  69.2706375  32.0492287  35.2380180  69.8753433  31.8206768  35.9439392
  69.7313232  31.7983112  34.4373703  41.7121658  46.9007149   6.8343472
  41.0102348  47.0223618   6.1950269  41.2671089  46.5884895   7.6221766
  11.3623533  64.6951752  20.1832199  11.5131159  65.3963547  20.8171349
  11.3060980  63.9005394  20.7138958  58.5282097  23.8217869   2.4957786
  57.7887421  23.5650749   3.0467007  59.0605049  24.3857460   3.0568902
  80.2746353  59.0911026  81.2527390  80.4615173  59.9170265  81.6990128
  79.5493164  59.2963905  80.6628265  79.9873428   9.6949453  49.2965393
  79.9580154   9.1972485  50.1136475  79.4503021  10.4685469  49.4678802
  77.2083664  67.3208084  76.1157761  77.8527679  66.6343689  76.2883530
  77.3860168  67.9881897  76.7785492   4.1951852  28.8924294  50.9245033
   4.9186611  28.4300365  50.5014114   4.5568876  29.7501507  51.1474762
  71.6178970  16.9223537  85.0906219  71.8708572  17.0543594  84.1769409
  71.9860764  16.0691471  85.3202057  72.2666702  20.2245636  88.3795471
  71.6735229  20.1333179  87.6338348  72.6788864  21.0793591  88.2545090
   5.9878278  18.7817898  59.3771324   5.7578235  18.7966156  58.4480934
   6.4811506  19.5904579  59.5146751  61.5133362  47.8547668  82.7291489
  61.3415756  47.5834694  81.8274078  62.3688393  48.2824898  82.6917496
  48.4274368  27.6339359  32.8867149  47.5185318  27.8182850  32.6497841
  48.3697815  26.9152813  33.5163498  84.4752502  12.8918934  46.2552147
  84.3471527  12.0491400  46.6906319  84.6693420  13.5020485  46.9667435
  46.8974152  -0.0134222  43.4162598  47.0419312   0.3810794  42.5561905
  47.1007233   0.6856939  44.0376587  27.9066753  13.1030617  62.0201225
  28.7877865  13.1281824  62.3932762  27.6172523  14.0154257  62.0277138
  50.3519249  10.2058105   2.8886929  50.7697525   9.4884272   3.3651516
  50.1385002  10.8496513   3.5640821  16.3919659  35.8516998  83.3054581
  16.7878361  34.9844170  83.3911362  16.1889877  35.9313240  82.3734207
  19.8057384  63.6027946   0.4922583  20.3286400  62.8568306   0.7861031
  20.3328514  64.3689346   0.7190002  49.3563042  46.9856377  18.8448143
  49.0151291  46.1255074  19.0897770  49.2894478  47.5065994  19.6450386
  82.8779602  12.8245058   3.8791087  83.2399826  12.5651093   4.7263885
  81.9365234  12.9011011   4.0342302  15.0973845  47.7575722  49.1742020
  15.7371655  48.4695168  49.1808014  15.0826931  47.4403839  50.0772018
  18.1344795   6.2986727  60.8754349  17.2533360   6.6345692  61.0397301
  17.9937153   5.4231420  60.5150681  33.8251266  43.6627426  65.4787445
  33.2485657  42.9023247  65.4040680  34.2015266  43.5926857  66.3560410
  58.4054832  46.2174988  11.1281843  58.9715767  45.9706116  11.8594961
  59.0103188  46.4131432  10.4125519  69.8604126   7.5905771   4.1343694
  69.1422119   7.4222927   3.5243714  69.4492264   7.5750947   4.9986105
  50.9007111  59.6337814  62.8787613  50.3814163  59.1148376  62.2645454
  51.8047218  59.5165100  62.5867996  18.7283325  17.9487381  78.5228348
  19.5725250  18.3075142  78.7964249  18.4332733  18.5351963  77.8262482
  36.8470459  64.2193985  42.9952202  36.8106003  64.4792252  42.0746803
  36.4980621  64.9731979  43.4708519  54.4744301  27.9024887  81.3290100
  54.0386009  28.6694508  81.7005768  53.9295082  27.1632233  81.5987854
  78.0752792  54.5997086  39.8071709  77.2365799  55.0543098  39.7287636
  77.8403397  53.7033195  40.0470009  24.3050861  33.1716537  66.8866577
  23.4045277  32.8478279  66.8675308  24.2833633  33.9710960  66.3606796
  25.6329098  34.4329605   5.5755072  25.6343575  33.6457253   5.0309963
  25.0235806  35.0265846   5.1366873  67.4652786  64.5669861  58.4545555
  66.9532089  65.2562790  58.8775139  67.9903870  65.0265350  57.7993355
  44.3924980  37.8815384  56.3846016  44.8509560  37.8332253  55.5457268
  44.6650810  37.0921364  56.8523331  61.6970215   5.1414847   3.7127025
  62.2308044   5.0489044   4.5018406  62.2976570   4.9473572   2.9931312
  69.3094559  18.3524799  27.1782284  69.4445801  19.0578938  26.5454826
  70.1925430  18.0566750  27.3993587  44.3128090  41.4669685  76.1335983
  44.9842148  40.9157410  75.7316132  43.6543961  41.5807533  75.4481888
  34.7691498  55.4139786  17.7086678  34.8264313  56.1998520  18.2521324
  34.1064072  54.8733406  18.1384525  62.9554024  47.8994102  53.4686127
  63.5615425  48.2591209  54.1162529  63.5132370  47.4086685  52.8651009
  19.6525383  34.8195801   1.5212168  20.1534138  34.3433342   2.1834438
  18.8387928  34.3232307   1.4335408  30.8301449  43.5893402  77.8175201
  30.6917076  44.4934578  78.0997314  31.2697735  43.1718712  78.5582504
  28.3541203  46.4692459  44.0764465  27.9616432  47.1736221  43.5606499
  27.7471676  45.7353249  43.9805145  63.7314262   8.4626522  29.9703064
  63.3685951   8.4603395  30.8560715  63.1854172   9.0846510  29.4894447
  82.5144196  28.7452793  79.8485641  82.2519379  27.8427010  80.0293655
  83.4341888  28.7843246  80.1107330  14.9187937  68.5887451  29.9298954
  15.2495880  67.7331238  29.6565380  14.0435705  68.6410141  29.5458584
  66.9628983  54.6544571   9.8147173  67.4257278  53.8901253  10.1579599
  66.5592804  55.0556374  10.5843792   5.5433455  33.2191429  18.6574879
   6.2115717  32.5431862  18.5444126   5.2692995  33.1346283  19.5707169
  51.9651527  21.7593403  47.2553978  51.1617622  21.5506210  46.7787094
  52.5932617  21.0967350  46.9678764  81.1494064  55.8818588  75.5118179
  81.8370361  56.5008850  75.2664566  80.3428574  56.3966026  75.4844894
  62.9732895  58.3508720  46.4354515  62.1285667  58.0280342  46.7492142
  62.7488098  59.0113068  45.7799606  35.9120941  71.4718399   1.6750211
  36.0432472  71.0905991   2.5431712  36.7423401  71.9043808   1.4754610
  79.9383621  52.6674271  37.5619354  80.2523499  53.5181770  37.8683128
  80.6658325  52.3137779  37.0501175  68.1126175  47.8154526  88.4794159
  67.7585678  47.5570297  87.6284790  68.0543747  48.7708702  88.4829254
  51.2121429   8.9105330  66.9818115  51.4974937   8.2839165  67.6467590
  51.8329773   8.7956676  66.2623672  67.7219391  34.1165733  16.0229187
  68.2417755  34.7582283  16.5069389  67.1368637  33.7381935  16.6792355
   4.4346857  45.8055496  55.0700035   4.5465307  44.9785995  54.6010895
   3.4867220  45.9321938  55.1094666   3.9479434  45.1902733  71.6851349
   4.3347244  44.6531944  70.9936295   3.8178566  44.5842819  72.4145737
  59.8480072  42.4494820  46.2834244  59.7591782  41.4968147  46.2557945
  60.5509567  42.6425781  45.6630974  65.4043274  64.3931122  10.6630993
  64.8529892  64.8025894   9.9963217  66.2994385  64.5963135  10.3915863
  33.6892815  45.5643501  18.1372948  33.9702377  46.1947556  18.8005333
  32.8755836  45.9292526  17.7894783  56.1580505  55.9677925  48.4904976
  57.0670357  56.2369156  48.6229744  55.6553230  56.5184593  49.0907173
  71.1155930  18.8515015  30.9110680  70.2565918  18.4371376  30.9926548
  71.7114868  18.2599564  31.3706512  22.1401787  27.2867069   8.6250458
  23.0965157  27.3045292   8.6616068  21.8780441  26.8389492   9.4294262
   5.1936994  24.3490829  25.7618828   5.4096098  24.2669544  26.6907902
   4.2508769  24.5138435  25.7487869  27.2587147  50.2928581  12.6940432
  27.3112869  51.0938683  12.1726475  28.0098686  49.7721939  12.4096012
  46.6475601  22.0279484  61.1243057  45.7054749  21.9658089  61.2819328
  46.7302399  22.0453701  60.1708450  60.5071144  33.8741798   2.4667044
  61.2245636  33.2478943   2.3704715  60.4328995  34.2874069   1.6064895
  30.9822445  70.3959351  76.1058044  31.3160896  70.4361572  77.0019989
  31.4116631  69.6301956  75.7243958  52.0738335   9.8246098  32.9229240
  53.0066376   9.6229868  32.8490829  51.8947945  10.4044619  32.1826859
  51.9639778  34.7650223  23.0675812  52.7011948  34.6678963  23.6703320
  52.2950172  35.3360367  22.3743401  62.0680046  33.6486168   7.6604304
  62.9871368  33.8197632   7.8657007  62.0643425  32.7623215   7.2988997
   7.8896780  45.8086128   2.9905674   8.4907799  45.5005760   2.3123186
   7.2686296  46.3680305   2.5241098  61.6456757   6.7117538  84.5488129
  61.1863594   7.3691645  84.0262527  61.5741768   7.0287418  85.4491730
   6.2564583   3.2190063  55.3040962   5.6438742   2.6522343  54.8353310
   7.1004062   3.0614159  54.8808365   2.8803656  38.6927032  83.1372833
   3.4021492  37.9302101  82.8871231   2.1722760  38.7199440  82.4937820
  35.9014549  43.2987366  57.7352982  35.0316772  43.6273689  57.9627190
  36.1247749  42.6993675  58.4474220  73.6363525  57.0542946  15.5293045
  73.4673767  57.5956306  16.3004284  72.8565826  56.5053596  15.4464817
  80.4121704  49.2658997  63.4920464  81.0266342  49.5582657  62.8188515
  79.6290894  49.0078812  63.0057869  34.7464180  34.7534676  86.6021271
  33.8338509  34.9473228  86.3879471  34.7859573  34.8116493  87.5567322
  69.9382019  48.0084114  79.1262360  69.2221603  47.4088974  78.9162445
  70.3719559  47.6086998  79.8801041  40.6167374   1.7791609  44.7859039
  40.2010422   1.1891059  45.4146080  39.9339294   1.9606298  44.1400909
  46.9210815   4.6549740  63.5916710  47.7770805   4.2295594  63.5414124
  46.4956856   4.2487183  64.3468018  78.1378708  18.6707325  78.0999298
  78.7081680  18.9055405  78.8319473  77.2778549  18.5390434  78.4990005
  37.2995300  21.1573181  66.0795212  37.8468819  21.9402714  66.1396942
  36.7591057  21.3019981  65.3028336  73.1168442  64.9698639  87.8758316
  73.3716354  64.6278305  87.0189056  72.1719894  64.8234024  87.9208908
  37.0653534   2.6631992  73.7021484  37.3071480   3.3146007  73.0437851
  36.1667404   2.4198847  73.4796066  82.5054779   0.7907886  58.3167763
  82.5833435   1.5527427  58.8908768  83.2984467   0.8124831  57.7810898
  41.0074005  34.2698822   7.3933792  41.9050522  34.4342232   7.1045160
  41.1040535  33.7546806   8.1942892  78.4903946   8.7811441  82.9681015
  77.8692932   9.0844431  82.3059235  79.0303650   8.1355648  82.5121536
  53.2793770  65.8698196  27.9257584  53.6734810  66.7060318  27.6774406
  53.2734604  65.8826523  28.8828545  39.1822510  66.4625854  71.3179626
  39.8492699  65.8247375  71.0640564  39.0713806  67.0142975  70.5436554
   9.2242727  12.0532885  53.2811737   8.6611519  11.8917227  52.5241928
   8.7238083  12.6599169  53.8268585  21.5562592  34.3076324  80.4712753
  20.8355637  34.9141121  80.3009567  21.3844681  33.9726105  81.3513184
  22.0838642  66.1827240  62.3233452  22.3080730  65.3751602  62.7857285
  21.1273937  66.1797409  62.2860947   9.7677631  15.1472721  72.1017761
  10.4177008  14.4572439  72.2347183   9.4857340  15.3841000  72.9852982
  26.9084949  20.5188179  57.2872925  27.7451019  20.9838562  57.2951279
  27.1228409  19.6457520  56.9585915  16.6859608  66.7519455  67.0011368
  16.1577129  66.2452927  67.6179733  16.2935848  67.6249771  67.0105209
  84.7427826  53.7801247  45.4518890  83.8745651  53.9622993  45.8113937
  85.2343292  53.4136887  46.1869659  22.3596268  68.3950424  82.9434052
  22.2102184  68.8467331  82.1128082  23.1724129  67.9078598  82.8082809
  48.8063393   6.9950104  21.1443996  49.7084465   7.1102891  21.4429760
  48.8718071   6.9662085  20.1898746  69.8048553  53.1483536  15.6438465
  70.0963287  52.2369843  15.6177635  69.2527008  53.2455254  14.8680153
  13.3820238  60.8619995  61.9815331  14.0922537  61.4757271  61.7940712
  13.1301403  60.5181465  61.1244698  81.8327332  65.5381699  11.2530470
  81.6774597  64.7985992  11.8405457  80.9573898  65.8267288  10.9947233
  43.3321342  70.6940231  43.9064178  42.4828300  70.7132263  43.4653473
  43.3629303  69.8359680  44.3295403  82.9224930   1.9682051  27.0281219
  82.2600250   1.2776078  27.0491714  82.5380783   2.6843464  27.5336895
  59.3557701  51.7811089  55.7865868  58.5524864  51.3537865  56.0838509
  59.0539551  52.5610809  55.3209877   0.7689724   0.6612746  36.3633690
   0.0674239   1.2319362  36.6770668   1.4609340   0.7499128  37.0187798
  38.7683105  59.7309685  39.6463737  38.8073921  59.2466316  38.8216782
  38.5622177  60.6290588  39.3871613  56.2781639  29.1303768  27.2749500
  57.1216011  29.5298538  27.0622025  56.4991760  28.3923950  27.8430729
   8.9104843   5.7333851  61.0200844   8.3668404   6.4656620  60.7294769
   8.6256714   4.9951186  60.4814987  28.1798096  24.4774170   0.7702019
  28.4172802  24.2761402  -0.1349649  27.2276268  24.5736370   0.7522797
  76.5712433  17.6035805  68.1385727  76.4313583  17.6880531  69.0817184
  77.2685928  18.2293892  67.9428711  10.5116405  45.3055229   2.1110632
  10.7276831  44.7377434   2.8507838  11.2397728  45.1907921   1.5004141
  69.5606842  34.0020905  58.6329613  69.0249710  33.2131271  58.5506516
  69.8868713  34.1635551  57.7476578  63.0829849  22.3807869  48.1755219
  62.1326714  22.4551029  48.2627869  63.2436485  21.4402790  48.0989265
  72.4361191  51.5148277   9.2865496  73.0786591  51.3940582   8.5874157
  71.7596054  52.0687561   8.8970337  51.0892067  23.5754337  31.1519871
  50.9459877  23.8971958  30.2619362  52.0262909  23.3838673  31.1895294
  73.5691528  60.4571686  33.2823982  73.8467407  60.8323097  32.4466705
  72.6267548  60.3220520  33.1830559  28.6969051   7.2793889  81.2639694
  27.8620510   7.3503289  80.8011398  28.9057846   6.3455811  81.2394104
  83.8719482  49.2583847  58.9383507  84.4279556  49.8101273  59.4885025
  83.4471512  48.6590576  59.5520134  47.1748276  49.0154228  72.6773529
  47.2126770  49.8820114  72.2725983  47.8551636  49.0355072  73.3503799
  76.8503189  51.8994865  85.0296021  76.6814270  51.6488953  84.1213608
  77.5899277  51.3530121  85.2952652  39.1152687  29.3528271  66.9595337
  39.9707184  29.5386257  66.5723495  39.3078270  28.7812500  67.7028046
  70.0469589  70.1574631  24.3490562  69.3002701  70.7188644  24.5576744
  70.4943924  70.0331650  25.1860657  70.5659714  62.9228020  73.2890244
  70.7084122  61.9992790  73.4965057  69.8833237  62.9150238  72.6180878
  74.5907822  51.2138214   7.0392857  74.1161652  50.3941841   6.9008207
  75.5076141  50.9496803   7.1159739  84.5764389  35.4626656  43.0320740
  85.0764542  36.1323204  42.5653992  85.1124115  35.2531700  43.7969818
  43.3032150  52.5913429  40.8268204  42.4167252  52.7654533  40.5105095
  43.6039009  53.4321022  41.1716995  71.3893204  29.6169071  47.6419411
  71.2493591  28.7116814  47.9197998  71.1853333  30.1397285  48.4173622
  65.6079178  10.9036455   1.0629971  64.7658234  11.2869253   1.3083625
  65.4344788  10.4538088   0.2360760  72.9621124   7.3756762  38.7801628
  72.3831329   7.0544176  38.0889244  73.7889252   6.9164734  38.6327133
   2.0804303  36.7042389  17.5572357   2.3525288  35.9207230  18.0350399
   2.8757789  37.2327042  17.4910736  17.3713608  67.8037796  81.4433899
  18.1019936  67.4546661  80.9329681  17.5304909  68.7471313  81.4751129
  76.3662262  35.5625496  59.6898689  77.3207474  35.5361290  59.6234207
  76.1399841  34.7845459  60.1995354  55.5182495  12.1866093  75.9924622
  54.5952454  12.0740938  75.7652359  55.5154152  12.8457823  76.6865158
  74.5148544  27.0558720  69.6533356  73.5879593  26.8217907  69.7014008
  74.5793610  27.8792191  70.1372452  66.6134949  12.6446972  80.8957901
  66.6998138  13.3421555  81.5456619  67.4960556  12.2833691  80.8135757
  59.4738197  51.2589684  64.6514206  59.8481369  50.6250801  64.0396194
  58.5272102  51.1551361  64.5545731  61.0287132  40.6103592  63.0703773
  61.7654877  40.8366203  62.5027504  61.1873703  41.1020241  63.8761864
  52.1722679  48.6233673  15.2990150  52.3809471  48.3307304  16.1861725
  52.8586197  49.2562904  15.0879240  36.7827606  54.6954041  62.4335327
  36.9814682  53.9484749  62.9981995  36.0268707  54.4122925  61.9190292
  37.6061630  52.1666946  63.2837143  37.8084068  51.3301392  62.8647842
  37.5874939  51.9674797  64.2197647  83.2114944  26.3835888  12.0305719
  83.8063889  26.9729176  12.4942741  82.3839874  26.8628712  11.9886580
  77.6163101  47.8899841   7.4219332  77.4021072  48.7722588   7.7251596
  78.4104385  47.6575432   7.9031444  54.3695755  11.8174658  56.1476555
  53.9715080  12.6186008  55.8071327  54.8795586  11.4730625  55.4144897
  61.9137383  14.5988016   1.7626511  61.5961533  15.4972687   1.6724869
  62.6005287  14.5199556   1.1005859  12.7503138  23.6983051  57.8591003
  13.6899271  23.8075352  58.0054817  12.6874533  22.9730072  57.2376328
  58.2059555  51.9897118  50.3089714  58.7711945  51.4777985  49.7304535
  57.3426094  51.5863419  50.2186623  84.7490540  65.6088715  84.2580566
  85.4434509  64.9725952  84.4289322  85.0128632  66.3883820  84.7469406
  62.8699799   0.0303290  55.7021637  62.6873970   0.8225425  55.1968994
  62.7868309  -0.6823263  55.0685692  42.3675003  31.5577316  84.6387100
  42.5205994  30.6290340  84.4645920  42.0745964  31.9135933  83.7997818
  44.3461876  36.6827583  19.1627369  43.8204765  36.7356339  18.3645744
  44.5745468  35.7562637  19.2381878  75.6652222  46.0812263  84.7259216
  76.0528870  45.3565979  85.2166977  74.7273483  46.0182724  84.9066391
   3.1109631  45.7312012  19.8844566   3.7410450  45.6510277  20.6005573
   3.5127423  46.3559608  19.2807350  64.9543762  61.6948967  45.8426056
  64.4425888  62.4309311  45.5071030  64.3639908  61.2501106  46.4507484
  42.2834053  56.9951591  41.4892159  42.1932220  57.5910072  40.7455330
  41.5518684  56.3847427  41.3971329  77.0080261  13.8740768  79.5636139
  76.9046326  14.5433893  80.2400436  76.1137848  13.6023712  79.3568573
  73.9694290   2.3945866  73.7309570  73.7650375   3.0716383  74.3759842
  74.8294449   2.0660021  73.9929504  67.1006393  61.3892822  67.3253632
  66.4281616  61.9495239  66.9379044  66.6281815  60.6039505  67.6015320
  78.5854492  29.5350647  33.2187729  78.2127914  29.0898666  32.4577484
  77.9132385  29.4557705  33.8955841  61.7191505  22.6334934  69.1332321
  61.0262337  22.7255058  68.4792938  61.6848907  23.4480782  69.6347351
  73.5712814   1.7098233  46.6900635  73.2582779   2.6049528  46.5596657
  73.4898376   1.2997839  45.8289795  34.6916924  64.1356506  78.4403610
  35.0355301  63.9251671  77.5722046  35.2047234  64.8922729  78.7241898
  64.1027527  23.0496597  34.9445496  64.9454498  23.4576302  34.7453957
  64.1736145  22.7897148  35.8630486  38.4314957  58.4286346  60.0526161
  38.8380585  59.2692451  59.8421211  37.5487823  58.6559906  60.3447800
   1.0301981  69.8461761  42.6095810   1.2132502  68.9308624  42.8215485
   1.8901023  70.2665558  42.6006546  47.6247940  20.7791519  32.5292664
  48.3980484  21.3112755  32.3417702  47.9598541  20.0405312  33.0376015
  65.0349197   7.6285667  25.8784828  65.3353119   7.9718900  26.7199860
  64.0800247   7.6709585  25.9296150  12.4026346  61.8742256  14.9546185
  13.3455267  61.8159714  15.1088686  12.0070686  61.5604362  15.7678204
  55.2992859  45.2604218  79.6005859  54.6649323  45.3743248  78.8928757
  56.1388550  45.5050964  79.2113647  11.7296667  70.5242920   9.4872398
  11.8755980  69.7803802   8.9028358  11.0840054  71.0640793   9.0311899
  19.6229897  60.2210732   0.5436360  18.7662811  60.3003159   0.1241077
  20.1390476  59.6910744  -0.0638302  17.9507637  22.8478527  64.7761612
  18.0473976  22.3114872  63.9892693  17.0046215  22.9376717  64.8900986
  47.7859154  40.7453232  67.2582092  48.5071945  41.2429657  67.6433563
  48.1334343  40.4252243  66.4257431  79.7911530  66.3970108  74.0526733
  80.2246933  66.9078064  74.7363129  80.0139160  65.4883423  74.2549820
  81.8476257  15.2761393  23.1490192  81.0854645  14.7595949  23.4107838
  82.0508728  15.8094893  23.9174347  20.2404060  63.8613472  60.0778923
  19.8787537  64.2902527  59.3023415  20.1915493  64.5267334  60.7642632
   4.9248533  28.1594143  75.5923843   4.3720684  28.6913090  75.0198898
   4.3328018  27.8518486  76.2787628  83.6250610  31.4214439  54.5341339
  83.2069931  31.4089546  53.6731453  83.3442383  32.2489586  54.9247627
  29.9526329  20.1556892  79.3057632  29.3960171  20.1155872  78.5280685
  30.8164577  19.8831024  78.9963531  65.2882156   5.6097007  55.2188148
  65.9156342   5.0575848  54.7521782  64.4785919   5.5313392  54.7142410
  14.8529882   1.5706239   4.0066032  15.0889225   0.7215261   4.3802338
  15.4317198   2.1943715   4.4450560  55.1179810  39.4442329  83.6060715
  55.7463951  38.7544250  83.8193512  55.6401024  40.2462578  83.5867081
  22.3313389  10.0521736   6.0533309  22.2248993   9.4581928   6.7963586
  21.5064507   9.9844637   5.5724897  65.4479980  33.6605148  31.2882195
  65.6246338  34.2239799  32.0415688  66.2040710  33.0751419  31.2444458
  24.2228565   7.4804482  65.6389008  23.6410580   6.8903241  65.1598434
  23.7839985   7.6204634  66.4779663  65.0202637  38.0463676  66.1853333
  65.2416382  37.2987022  65.6301575  65.1714478  38.8106766  65.6292725
  64.3601990  50.8045616  70.5004501  65.0447388  51.4461746  70.3107834
  64.8017426  49.9576035  70.4376602  79.3422775  19.3181419  22.9418259
  80.0811005  19.9209671  23.0253391  79.5869217  18.5637493  23.4778061
  51.2991028  42.4663506  59.3249512  50.7550087  41.7168770  59.0831337
  52.1406174  42.2981453  58.9009323   9.5380001  41.6788559  37.2386398
   8.9161692  41.7490921  36.5143280   9.0501719  41.9840546  38.0035629
  74.8924408  34.7780762  76.2291794  74.4824066  35.1562195  75.4512939
  74.7147369  35.4107628  76.9251404  22.1012764  15.7757912   2.1586378
  21.9543457  15.1703262   2.8853111  21.5778809  15.4197330   1.4406466
  62.1408463   9.6610632  33.3296852  61.7389145  10.5176878  33.4741745
  63.0786781   9.8433876  33.2708435  72.4219055  12.4397211  13.7178249
  71.8871078  12.3596067  12.9280100  73.3217621  12.4831524  13.3943872
  64.2809143  66.1161575  51.2797661  64.7689667  65.3002243  51.1689301
  64.7379761  66.5747604  51.9847527  29.6297169  67.9841385  79.7802811
  29.3636055  67.0695038  79.8744354  30.5025330  67.9406509  79.3897324
  26.4835224  10.6454811  75.9407730  26.7411308   9.9408865  76.5352631
  27.2888145  11.1417751  75.7943878  42.8281441  43.6361732  62.2078972
  43.1414070  43.4228554  63.0868683  42.8690720  44.5915070  62.1643333
  71.5735474  57.9522934  43.3954086  72.0523376  58.4586182  42.7391853
  72.1159286  58.0064049  44.1822548   5.5416322  10.4105759  43.8011894
   5.4008899   9.9641228  44.6361160   5.3609266  11.3316774  43.9886742
  63.7488747   1.5388925  66.4284821  63.3000031   1.6585983  67.2653885
  64.5189590   2.1044207  66.4866867  49.1250954  54.3157997  39.6741753
  48.3167191  54.2155609  40.1768837  49.8017616  53.9275780  40.2288284
  13.3246183  34.0364838  83.4256439  13.5400658  33.7976837  82.5241013
  12.9754496  34.9253807  83.3610535  49.9956360  55.1601830  49.4550171
  50.5231972  54.9642220  48.6807365  49.1310883  54.8027191  49.2525177
   3.1088893  22.5948887  74.7491455   3.2284462  23.5445404  74.7391510
   2.8354285  22.3973312  75.6449280  38.6683731  70.0988083  83.4260406
  38.0563660  69.4804153  83.8251190  39.0263062  70.5917664  84.1643524
  27.8272057  63.4632378  55.7228317  27.8234787  62.8032265  55.0295753
  26.9432831  63.8302727  55.7088470  72.7570572  11.9021187  26.9912357
  73.1126556  11.0526896  27.2524834  72.9669418  12.4844379  27.7213612
  25.1467648  67.9205780  79.6746902  24.7669525  68.6336060  79.1613007
  24.8766155  68.1031265  80.5746536  80.6031189  35.2399483  23.6510086
  80.4151459  35.6025009  22.7852993  81.4823151  35.5570145  23.8577099
  78.1221619   7.6731443  53.9543381  78.1628876   8.3579731  54.6218567
  77.2773438   7.8073020  53.5247917  26.3460369  67.3097839  46.0173111
  27.0024509  67.1419144  46.6934586  25.5087509  67.1395721  46.4488373
   7.4476743   4.1710505  51.3069267   8.0889225   3.4665558  51.2135429
   7.6138587   4.5323296  52.1776123   1.6310146  68.6310883  27.2514992
   1.6405681  68.0790329  26.4695930   1.1695485  68.1089325  27.9077282
  29.4270592   5.1646767  16.7415752  28.8420296   5.8280444  17.1075191
  29.7610836   4.6928105  17.5044651  69.1308060  60.3183212  46.0204544
  69.7813110  60.6591034  46.6344147  68.2966919  60.4070930  46.4815369
  11.9891720  55.6080780  61.9642067  11.2275229  55.4416847  61.4088364
  11.6799040  55.4342384  62.8532333  46.4639664  24.0852776  32.8324203
  47.2013626  23.5416412  32.5550423  45.7967033  23.4588642  33.1127701
  15.9758253   0.6794425  16.2328262  16.1730194  -0.2494983  16.3528900
  15.1058302   0.7910925  16.6160679  49.9093819  21.2330723  22.4454365
  49.8546600  21.8485394  21.7143841  50.8241806  20.9514446  22.4534645
  53.4155617  41.0315361  55.4935799  52.8090477  41.2343140  54.7813644
  54.1001587  41.6966782  55.4218636  50.3946877  31.8146000  51.3802986
  50.9908257  32.5614395  51.3247452  49.5413780  32.1702919  51.1321487
  28.1966782  11.2355223   5.3013000  27.8675156  10.3507280   5.4594884
  27.4115238  11.7825241   5.2777815   5.4807220  47.1212959  31.1720047
   5.8523283  47.0792351  30.2908859   5.0830698  47.9904938  31.2229977
  33.6203804  12.9758883  87.0597000  34.4894066  12.6544523  87.2999191
  33.1597824  12.2018194  86.7358246  70.9244308  63.8684349   5.1938319
  70.5257263  63.2008247   4.6356502  71.7053986  63.4462318   5.5516901
  71.7780533  17.2028751  27.1253567  72.0244522  17.0781994  28.0418587
  72.5039368  16.8251991  26.6286812  21.8265553  35.6587486  11.3438272
  21.5879021  34.9989014  11.9948874  21.2191772  36.3815422  11.5015993
   7.2796187   8.5774555  76.1580276   6.7547879   7.8164296  75.9097824
   6.8134117   9.3233604  75.7805252  33.0161324  41.9314117  55.7188797
  33.4566383  41.8967285  54.8697701  32.8577843  41.0146790  55.9441757
  18.8883705  66.2910995  34.1662064  18.2199364  66.6952286  33.6129417
  19.6767788  66.2847595  33.6234322  34.8697624  52.5303192   8.7372684
  35.7127609  52.4719620   8.2876263  34.2226677  52.3363190   8.0591354
  74.4813232  13.1593599  66.7633209  74.0982513  12.4809065  67.3193665
  74.1559372  12.9612865  65.8851852  14.2074242  68.8372879  58.7610016
  14.8124952  68.1330109  58.5283661  14.5761976  69.6168442  58.3456421
  15.2883778  47.4633980  30.6635532  16.0273132  47.7931366  30.1522045
  15.1313410  46.5845642  30.3182659  51.5305252  38.2017975   8.7929668
  51.8444939  37.4953842   8.2284851  52.3259544  38.5819092   9.1658449
  38.9862366  28.3024654  78.3696365  38.6409721  28.8462791  77.6616211
  39.6412621  28.8538837  78.7975540  81.2405930  29.9213886  60.3130569
  80.7816010  29.7204304  61.1286392  80.5610199  30.2680416  59.7349205
  14.6719475  34.1351204  88.1844254  14.6003199  35.0026550  87.7863159
  13.8163729  33.9846802  88.5864029  82.5555954  37.2904129   5.5388374
  83.2408371  37.9448128   5.6746206  83.0084610  36.5493774   5.1363330
  26.4503517  57.8470612  37.8999672  26.9342480  58.3934555  38.5192642
  26.5770626  58.2750130  37.0531883  13.0475330  60.0703049  11.8132877
  12.3107615  59.9990654  12.4201851  13.6581173  59.3898773  12.0969038
  75.0904007  21.7074280  31.1522560  74.4987564  22.4320259  31.3551025
  74.9302902  21.0664082  31.8448524  43.8391838  50.6491280  78.6566010
  44.6164856  50.3772430  78.1686401  43.6892548  51.5541611  78.3833389
   1.1378740   4.0628490  58.9873238   1.0758786   4.1838398  59.9348221
   2.0188887   4.3635817  58.7646027  14.2216797  20.9566631  61.2745934
  14.2050819  21.8987370  61.1059113  13.9621401  20.8730221  62.1921349
  77.1847382  12.1849422  62.0459175  77.3165817  12.5875120  61.1875534
  77.5912704  11.3216410  61.9705582  37.4591980  56.6830978  88.7229080
  38.3177338  56.4038544  89.0409851  37.1587868  55.9573517  88.1758499
  45.3010521  40.6531296  36.1324043  46.0327454  40.4675407  36.7209740
  45.7143555  40.8581581  35.2937279  58.0929680  66.0127640  66.8948898
  57.8704491  65.3400345  66.2513351  58.6000862  66.6576080  66.4017029
  51.6075096  46.5900040  34.6917839  51.4025192  47.3946228  35.1680145
  50.7986755  46.3735542  34.2279243  46.8605804  55.6400108  33.2685089
  46.4007912  54.8152847  33.4255447  47.2966347  55.8329277  34.0984955
  52.5671272  27.0694485  64.1730423  51.6957169  27.4294434  64.3382034
  52.7984390  26.6196690  64.9857025  69.5492401  16.2511711  46.6482506
  68.8173141  16.7978172  46.3624229  69.6562729  16.4602795  47.5761757
  77.2629929   5.7463284   1.1578076  77.9913864   5.2608628   1.5451087
  76.6905975   5.9498863   1.8975097  42.8309021  22.7318211   5.9760628
  43.1507950  22.8193741   6.8739676  42.3606262  21.8981361   5.9695702
  60.1795311  47.1035194  56.9504242  60.6998711  46.6983452  56.2566528
  59.3239136  47.2568245  56.5496216  28.3393764  18.1583443  10.2476835
  28.6267204  17.6147308  10.9812698  28.7682304  19.0018044  10.3922186
  38.5511093  11.7412806   7.3778400  39.2458267  11.0829048   7.3661089
  38.9985123  12.5650530   7.1842890  68.7943420  21.6865730  81.4843521
  69.1467743  21.7225494  82.3735809  69.5575867  21.5218105  80.9306946
  15.3065443   7.7126532   2.2020876  15.4182539   7.6497874   1.2535093
  14.8787441   8.5581827   2.3373604  47.2759819  54.7836266  41.7672882
  47.4422531  55.7008858  41.9846001  46.3618889  54.6411705  42.0130005
  69.7283783  44.2315102  88.2270737  70.6479111  44.3185806  88.4782944
  69.3823090  43.5593567  88.8141632  23.0952263   5.0969338  11.1528635
  23.1102543   4.4511628  10.4464741  23.9974976   5.4115591  11.2089863
   7.0973392  30.1390991  85.3862534   6.7074728  30.6472702  86.0975876
   7.1714926  29.2520752  85.7382812  17.2639656  62.9247513  79.6070328
  18.1298866  62.8168640  80.0004425  17.1200657  62.1141510  79.1187210
   7.3711348   5.2889733  20.3077774   6.8907261   5.9273486  19.7805996
   7.7107787   5.7949891  21.0458965  39.4261131  43.3966446  22.4074917
  39.8417892  44.1905098  22.0710106  38.4942894  43.5187378  22.2257519
  30.1549835  56.2675705   0.4605288  30.0255947  56.7574921   1.2726054
  29.4413185  55.6297722   0.4492868  75.5275269  31.9312153  78.3234787
  75.0416718  31.9156113  77.4989014  76.3939514  32.2607002  78.0847702
  14.5864725   3.4545994  76.7136536  14.7280188   4.3096871  76.3074265
  14.1431189   2.9396131  76.0395203  31.2187138  66.4944458   5.4077888
  31.8471756  67.1282196   5.7536240  30.5234356  66.4635544   6.0649543
  21.0888844  62.1108818  35.8997574  20.6718349  61.3180161  36.2369080
  20.6833248  62.2494087  35.0438614  43.4935722  64.1264877  72.0465927
  44.1573982  64.7005234  71.6644287  43.5839958  64.2514572  72.9912796
  55.9958191   3.1287568  23.8477879  55.9401169   4.0843210  23.8529568
  56.7783356   2.9372432  23.3308525  65.6952744  10.0321093  47.5505638
  65.7811890   9.4957943  48.3387337  64.8694305  10.5013523  47.6690025
  74.8606720  48.0292282  54.4695015  74.2790451  48.7444801  54.7270851
  74.3188782  47.2431679  54.5387878  21.4840393  69.0550613  79.9090576
  21.4686928  70.0105209  79.9647217  22.0037899  68.8690262  79.1270828
  84.3721313  41.1502800  79.6761017  84.2508926  41.5365677  80.5434647
  84.8830338  41.8002815  79.1937103  54.2740021   8.3406334  77.9164810
  54.1836586   7.4192333  78.1595688  54.2312889   8.3413563  76.9602356
   4.1416273  28.4386978  39.8351402   4.0416789  27.5954533  40.2769356
   4.5611105  29.0017185  40.4857368   2.4978540  52.0430641  42.1742630
   3.0419691  52.7348213  42.5506134   1.7325443  52.0016403  42.7476883
  45.6743050  67.9592743  37.9473572  46.1708832  68.7424622  38.1845474
  45.5321503  68.0422516  37.0044174  60.6777382   4.0753522  50.1762733
  59.8540649   4.3212781  49.7551880  60.7142754   3.1225021  50.0927658
  85.1064911  26.9873486  38.5571594  85.8440781  26.7866421  37.9810371
  84.6127777  26.1688881  38.6081467  32.9769020  66.5393600  45.1603355
  32.4695129  66.8357925  44.4047470  32.3492661  66.0520554  45.6940422
  84.1945801  29.7694645  69.8403778  83.8215942  30.3177013  70.5307007
  85.1397476  29.9016037  69.9140091  79.7273560  36.2513580  81.3507156
  79.2666626  36.1204338  82.1794739  80.4940872  36.7751617  81.5830460
  63.0692902   9.1747246  60.1376152  63.5920258   9.8755703  59.7480087
  63.7137985   8.5808935  60.5225868  48.8737526   1.4947371  44.9331894
  48.2593422   2.2283618  44.9561348  49.5812492   1.7563319  45.5224648
   9.5814095  23.0087662  56.0848656  10.5060453  22.9033928  55.8608627
   9.2094660  22.1324272  55.9852715   3.1353326  25.8237648   6.3765349
   3.1582685  24.9691811   6.8071094   3.9342597  26.2615128   6.6703444
   5.1994905   5.6533766  23.1031857   4.2631707   5.7431960  23.2805824
   5.2413712   5.2491159  22.2365551  83.5697250  46.4567833  82.6945801
  83.4440842  46.8861084  83.5408249  84.4653168  46.1205177  82.7272339
  30.8795967  56.8308830  78.4812927  31.5110264  57.0474968  79.1672974
  30.4575386  56.0287018  78.7888718  18.3325672  61.8632355   7.1129217
  18.4689331  62.6889839   6.6484103  18.1649971  61.2238197   6.4206066
  58.0560265  16.3737431  30.6705284  58.6953545  17.0166397  30.9774132
  58.5525475  15.5587549  30.5964127  76.5255280  37.1469765  62.3315048
  75.7353439  37.1611786  62.8715439  76.2549820  36.7126846  61.5225372
  65.4937820  39.5064316  77.5203094  66.1192856  39.0808372  78.1066971
  64.6612625  39.0697479  77.7004547  72.6760025   0.5131139  11.6632729
  73.0758667   0.1081521  10.8936319  72.4291763  -0.2245710  12.2210608
  14.1381102  61.2725182  85.1681290  14.0010748  61.9536057  84.5096741
  14.9927893  61.4754639  85.5483551  21.4888325  54.6162643  35.9983330
  21.7508564  55.2235260  35.3063736  20.5369282  54.5569534  35.9171448
  26.7009583  58.9750786  35.3266258  27.4887218  59.4706650  35.1028938
  26.4682655  58.5176010  34.5186653  79.8443298  26.2722111  37.6517906
  79.8047562  27.2023201  37.4291649  80.2016525  26.2534256  38.5395966
  77.0193710  17.0466404  38.3201942  77.7215881  16.4384918  38.5510063
  76.2321625  16.5029602  38.2894058  80.2868423  43.8315773  13.0941601
  81.2433243  43.8605423  13.1171055  80.0485840  43.2273560  13.7972813
  69.8608093  68.2511063   2.5327501  70.4814835  68.9791794   2.5026793
  69.0674057  68.5956573   2.1228328  32.5341682  35.0755806  67.6367188
  32.0579109  35.7415199  68.1326447  32.8443794  35.5345001  66.8560867
  47.5196152   3.7322640  77.2974472  48.2056503   4.3996515  77.2840042
  47.9871063   2.9057596  77.1767197  37.5502205  57.1511345  67.4264755
  38.4211845  57.0611191  67.8131943  37.1865387  56.2659416  67.4466782
  69.2618637  20.4156113  32.7964630  69.1018066  19.6505337  33.3489761
  68.6207733  21.0623493  33.0913620  79.2123871  18.9394474  66.3881302
  79.1360168  18.0383530  66.0743942  79.3334503  19.4600792  65.5940781
  17.3840904  34.3944283  51.8123741  17.3389969  34.5079880  52.7617455
  17.1958199  33.4663353  51.6729584  63.6207848  34.9347000  34.0336647
  63.3487015  34.0414314  34.2440758  64.5750656  34.8871193  33.9760857
   4.2311773  46.4994698  46.8855095   4.6197629  47.2849503  47.2705536
   4.9032874  45.8254852  46.9867172  31.9617558   1.7187231  75.7564468
  31.1824989   1.2837194  75.4103851  31.8298397   1.7278746  76.7044678
  80.1791840   2.0587637  10.2658195  80.0245285   2.9896994  10.4260483
  79.7151337   1.8760233   9.4488144  35.9363060   2.8240767  57.7922096
  36.7067070   3.2656689  58.1495743  35.2064438   3.4053900  58.0057793
  41.7955704  15.5727978  87.9954834  40.8625984  15.4853516  88.1907959
  42.0682487  14.6942492  87.7308502  74.0349274   7.7714524  17.5864906
  74.5168991   7.9288888  16.7746105  73.7097397   8.6343603  17.8431587
  80.7313461   2.7441208  65.9116211  81.1975861   2.1999259  66.5462112
  80.5943832   3.5761969  66.3645325  83.5865021  66.8633347  80.5203400
  83.8959732  66.6240997  79.6467133  82.6665497  66.5990601  80.5292511
   5.4104452   1.2850019  53.0689392   5.8885026   0.6296874  52.5607491
   5.1112022   1.9206780  52.4188614  49.0049133  44.5789757  69.6693192
  48.7288589  44.9399681  70.5117569  49.9599304  44.6420746  69.6830826
  67.0191650  16.5252132  35.8559837  67.3426361  15.7924147  35.3319588
  66.7921524  16.1344566  36.6997871  45.9393768  10.0621395   6.4075561
  46.2993584   9.3984251   6.9958816  46.5434494  10.0771561   5.6651940
  67.5067368  16.7578735  65.1505890  68.2564392  16.2329140  65.4309464
  67.1074677  17.0600662  65.9663696   3.8294277   6.1035275  54.4675598
   3.0019300   6.1906447  54.9407310   4.5014486   6.1713533  55.1458092
  64.6121826  13.1118927  49.6109505  63.8451767  12.5583591  49.7576904
  64.2774429  14.0064735  49.6734314  85.2201004  51.4437408  66.5487213
  85.8885803  51.8810692  67.0760803  85.6583405  50.6659203  66.2035065
  74.7971115  61.8904610  11.8953276  74.1344986  62.5697899  12.0205536
  74.2985687  61.1131134  11.6435099   4.2733407  29.3900032  55.8046112
   4.5671768  30.2739105  55.5841560   3.3249638  29.4141235  55.6772079
  61.2308273  31.9886303  64.0322876  61.3330269  31.1465130  64.4757080
  60.4290695  32.3582993  64.4020920  81.8066483  38.1701660  69.2901611
  81.0866547  37.9439011  68.7013855  82.2555084  37.3399239  69.4496994
  59.9803886  40.7184029   6.3872848  59.1914864  41.1128845   6.7591090
  60.6848335  40.9924850   6.9745388  66.7353134  55.5959892  36.6542740
  66.5592575  54.7045517  36.3533134  66.0885086  56.1347466  36.1986275
  46.2700233  62.1452446  73.0073471  46.1225777  61.6724243  72.1882401
  46.7887840  62.9085045  72.7532730  78.1719208  32.0250435  78.7635574
  78.8278122  32.5789871  79.1868515  77.6162033  31.7208462  79.4811096
  71.4756393   8.0670671   8.7461081  71.7883148   7.1811290   8.9293585
  72.2321930   8.6281223   8.9166183   9.2257423  32.9573822  81.7032166
   9.6160975  32.5069809  82.4522095   8.2837124  32.9279404  81.8703842
  34.4599380  30.3665161  10.3784447  34.7962685  31.2274704  10.1297073
  34.8295898  30.2067032  11.2468052  65.2240753  49.9536743  29.2766743
  65.1022034  49.0480194  28.9917736  64.8121338  50.4782333  28.5901051
  58.0986633  24.3520546  14.2932434  58.2424774  24.9609585  15.0176649
  58.8387260  24.5009422  13.7047071  20.3134823  16.2140198  81.0077667
  21.0940590  16.6885529  81.2936859  19.5932732  16.8272266  81.1544266
  43.3297539  66.4684677  78.6335297  43.0798378  66.0242844  79.4437637
  43.6133575  67.3383102  78.9149094  30.3016853   7.7368078  12.1300755
  30.4479580   8.6827641  12.1285162  30.0861015   7.5292830  13.0393000
  55.2073669  41.1666489  11.1195459  55.2923889  42.1194954  11.1525946
  55.6254730  40.8608208  11.9244614  40.1251259  12.7601728  62.1659889
  40.7941437  13.3524818  62.5092392  39.6344147  12.4796972  62.9384956
  47.7415657  35.9012032  16.7025299  47.9209213  36.8271751  16.5393181
  48.1480026  35.7244301  17.5509357  63.6571198  19.1069221   8.0847549
  64.4075012  18.7415810   8.5534668  63.7180634  20.0505180   8.2335587
  33.1672287  12.8842554  63.5956192  32.2751656  13.1443405  63.3658104
  33.3795662  13.4115515  64.3657532  68.0115891  18.7837772  19.8347893
  67.7732773  18.6763859  20.7556076  67.5994797  19.6078205  19.5752621
  11.3112001  65.5306473  32.2188911  10.7877960  66.0907898  31.6457272
  10.9843750  64.6463699  32.0531425  63.4199219  26.0400581   6.1847439
  63.6510658  25.5032616   5.4266849  64.1777496  25.9731236   6.7656460
  67.0260391  35.0009003  54.1248283  66.9126282  35.7229195  54.7429428
  66.1431427  34.8214836  53.8015060  34.2840195  43.2332153  72.7622223
  33.5247879  43.6571999  72.3621750  34.3168144  42.3673820  72.3554153
  63.1858063  18.1618881  63.5032387  62.9999847  19.0744152  63.2818871
  64.0958328  18.0313129  63.2367172  54.9033203  16.5967083  72.6810150
  54.1407623  16.1657162  73.0670090  54.5695381  17.0027752  71.8810577
  70.5824127   4.6989627  31.6673698  71.5040131   4.5210381  31.8550663
  70.1185150   4.4158478  32.4553261  72.1194305   8.6264610  25.2715282
  72.7510147   9.2061443  24.8457413  71.2678223   9.0214329  25.0844688
  73.7091980  22.3071442   1.3678163  74.1100388  23.1650486   1.5076947
  74.1341782  21.7368927   2.0084713  79.5307007  62.0125999  41.3373604
  79.8944168  61.2473946  40.8919334  80.2557373  62.6365814  41.3721275
  56.4977341  66.6310654  32.4246559  56.0494957  66.0430222  31.8167725
  56.2067261  67.5065308  32.1694984  86.1716461  23.7709064  46.5919151
  85.6734390  24.5145855  46.2528534  86.1991730  23.9124947  47.5381851
  35.4800301   2.9114823  83.4742661  35.2186661   2.2051685  84.0650635
  35.6334648   3.6607423  84.0498505   8.3605690  32.8154716  74.6667328
   9.2150240  33.2119942  74.8367538   8.1295319  33.1125183  73.7866058
  64.7689438  60.7486877  63.2151642  64.5143890  59.8277664  63.2729034
  65.5979614  60.7983246  63.6910744  47.0352859  48.1448555  54.9941826
  47.5740700  48.1679840  54.2033539  46.1353493  48.1100197  54.6699409
  18.9255409  47.0444107  13.7373743  18.0667648  47.0021820  13.3167162
  19.1809006  47.9643593  13.6687069  61.1636581  15.6564903  79.7228928
  60.6780281  15.8691368  78.9259186  60.4958191  15.6194754  80.4076233
  31.7571831  27.9044285  75.0110626  31.5857735  27.9304619  75.9524231
  31.7200737  26.9746876  74.7864761  54.5953827   2.0718563  72.1158524
  54.6603432   1.1431357  72.3383102  54.7447128   2.1028030  71.1708755
  59.0561981  11.0232706  72.2849655  58.6656570  11.3955059  73.0756302
  59.9190521  11.4337149  72.2279663  79.3099518  53.1567764  43.0320320
  78.6189575  52.7311592  42.5244751  79.9616318  53.4148140  42.3801422
  39.8278809  42.1860428  80.4176559  40.5190620  42.3893013  81.0478821
  39.9565392  42.8168793  79.7093277  75.0796432  57.6852875  68.0380936
  74.9905777  57.4510956  67.1142654  75.9739761  57.4302444  68.2646866
  33.8388939   4.2400947   0.6070295  33.6869431   4.8359470   1.3405846
  33.3158684   4.6023717  -0.1081148  32.9129028  48.0623436  70.7829285
  33.6419792  48.2598267  71.3708801  33.1839943  48.4189987  69.9370346
  57.6794319  53.5352898  16.9612293  56.9137497  53.2564774  16.4590073
  58.4268456  53.2732010  16.4237232  26.5738163  63.2827835  87.5326691
  25.8511276  62.7354851  87.2254028  27.0393276  62.7330818  88.1630325
  41.9113731  31.3632221  14.5974445  42.0465126  32.2537041  14.2733927
  41.5567856  31.4803104  15.4788017  24.0094528  52.4574966  30.9637947
  24.3529377  52.7101669  31.8207703  23.3623085  53.1317482  30.7568569
  51.5461578  16.2302608  56.9865417  51.8856850  15.3702974  56.7387161
  51.3387871  16.1467648  57.9172707  67.7905884  11.8190041  17.9171219
  68.2437897  11.7906380  18.7597561  68.4917297  11.7802839  17.2666359
  31.8728657  59.5561714  39.8716888  32.2323723  58.6749840  39.9741325
  32.3958092  59.9483986  39.1724586  54.9880829  57.9565582  42.3663177
  55.0295525  57.3443451  43.1009636  54.3161430  58.5894661  42.6196060
  73.1188583  38.4446793  66.5327377  72.3830643  38.9979591  66.7948837
  73.8246994  39.0612221  66.3380890  38.2304764   4.7409315  20.9348431
  39.1857643   4.6925611  20.8985405  37.9466324   3.8288419  20.9961300
  27.5299034  53.1849480   8.4170246  27.8482475  52.4142075   7.9470825
  27.0775948  53.7020035   7.7504635  81.8923798  13.0190926  45.0302849
  82.7752609  13.1401854  45.3796997  81.4601364  12.4471464  45.6645393
  52.8424225  39.9483986  24.8942108  52.1390991  40.1919594  25.4960804
  53.1472015  40.7806435  24.5326672  48.6447830  40.0363159  44.3499031
  48.7240944  39.2207603  44.8446884  48.9362144  39.8099327  43.4666977
  45.6963539  24.3009605  84.0424652  45.9389420  23.4547691  84.4184265
  44.9153900  24.1162071  83.5207443  20.5397911  27.6090260  87.8640900
  20.9301853  27.7325249  88.7292938  21.2039127  27.1306992  87.3677292
  25.5279121  67.5272903   1.5317923  25.7636700  67.9714661   2.3462594
  25.1510601  68.2157974   0.9839092  42.0417633  60.9355698  85.1165009
  42.5706177  61.7213860  85.2544861  42.3979111  60.5441895  84.3188782
  48.5815697  53.7806778  25.5142574  49.4676323  53.9191818  25.8488312
  48.0103836  54.1414223  26.1923733  48.8694420  49.6251945  21.4463768
  49.2487297  50.3707504  21.9116898  48.4251404  50.0139618  20.6929245
   6.5244002  22.1653099  78.8729401   6.5346518  21.2491913  78.5957184
   5.6705079  22.2797813  79.2900696  76.7736359  21.6942425  70.6750946
  77.6445770  21.6138172  71.0639801  76.2276840  22.0420704  71.3802109
   7.2203851  34.6390266  13.8100462   7.6199279  34.1668549  14.5405617
   7.8025632  34.4708405  13.0690918  44.3864021  20.8446655  81.2900009
  43.8258400  20.9926548  82.0516510  44.1112518  21.5083714  80.6575317
  82.6365967  42.4472351  32.7729225  82.8588333  43.3176460  32.4424286
  83.1525726  42.3562698  33.5740013  63.2464256  16.7502232  60.3626480
  62.6852570  17.0884552  59.6648483  63.6681099  17.5275860  60.7288742
  59.9586296  65.4515533  51.0501709  60.2595787  65.9231873  51.8268471
  60.6606255  64.8289261  50.8610687  20.0309772  31.3793430  72.3063965
  20.8507214  31.2997513  71.8186340  20.2058220  30.9448051  73.1411667
  22.7977848  11.8543739  48.7665710  22.4138584  11.4762306  49.5576706
  23.7398529  11.7197590  48.8696213  49.0939331  40.2310677  33.5699997
  49.3481216  39.5391159  34.1805916  48.1945877  40.0147667  33.3237915
  19.6434155   1.4007225  22.2867298  19.0776272   0.8660322  21.7297554
  20.0980206   0.7685450  22.8434315  49.1200142  31.3846359  10.4435492
  49.3683701  30.8574600   9.6841822  48.1636810  31.4122353  10.4135256
   2.5190165  38.3144989   4.1243916   2.5354815  38.0801125   3.1964784
   3.0716546  37.6572495   4.5472889  64.1464996  34.5079765  61.8723755
  64.9266510  33.9685249  62.0011787  64.3757782  35.0919342  61.1494255
  76.3024597  36.8157463  68.4613876  76.1530914  36.1810074  69.1621246
  75.8801193  37.6172867  68.7702408  66.5981140  53.0482178  35.6455078
  67.1175919  52.3157921  35.9770660  66.6373291  52.9580269  34.6933746
  22.8219624  61.0884666  38.6440125  23.3652172  60.8041115  37.9089966
  21.9604912  60.7115555  38.4650192  13.0465717  55.6558418  52.7001266
  13.6400118  56.3956833  52.5709229  12.1808634  56.0027237  52.4845924
  44.4834213  18.5133705  12.6649857  44.1631889  19.2785892  13.1426077
  43.6909523  18.0387554  12.4140539   7.9061451  21.1000710  30.0445385
   7.2344661  20.6083202  30.5170422   7.8267779  21.9941578  30.3770180
  13.9015722  31.0842934  11.8279009  13.2180786  31.6902313  12.1140966
  14.6441755  31.2725334  12.4017801  61.2819748  59.9496422  20.8075771
  61.2297211  59.1009331  20.3680363  62.1340179  59.9414558  21.2436810
  58.1489944  32.0167999  87.5267639  58.0914230  31.6409588  86.6483231
  58.8618507  31.5356045  87.9469070  46.9655457  11.3392076  54.6852074
  46.9215508  12.1585541  54.1922913  47.8910675  11.0959721  54.6633949
  59.0029831  63.7018776  73.9922867  58.6469650  63.0375824  73.4021988
  58.3011971  63.8628349  74.6230164  82.3568497  12.9717846  62.5415268
  82.5574493  12.8659191  63.4714661  81.4614029  12.6458645  62.4510536
  79.7487335  46.7560768  10.5754194  78.9277725  47.1513290  10.8687296
  79.4856644  46.1307220   9.9001732  72.5243988   5.4715371  40.8081169
  72.1612930   6.1054378  40.1896019  72.6907349   5.9797707  41.6020050
  11.8878908  24.2281799  78.1174698  12.5673723  23.7282639  77.6651154
  11.2256308  23.5770378  78.3491135  28.4243736  58.9250107  87.7074890
  29.3678188  58.9119644  87.5463257  28.0484810  58.4470253  86.9682541
  82.5319901  30.7777443  28.7322922  82.1407547  30.1824856  29.3716965
  82.9408035  30.2009983  28.0869522  37.2381325  26.0597401  83.2142105
  37.2775688  26.6550636  83.9627228  37.3126068  26.6309109  82.4497223
   7.2058620  68.2079239  16.5454922   6.7333183  67.5800781  17.0920658
   8.1151505  67.9098740  16.5698013   7.1874518  55.3296051  84.1694641
   6.9693117  55.4686737  85.0910416   8.1439867  55.3539925  84.1434250
  30.5733471  21.7086983  88.0043640  31.2711315  21.8096657  88.6517715
  30.4002647  22.5988636  87.6979675  17.9491386  59.0293236  63.0050545
  17.1130161  58.5746002  63.1068420  18.4366360  58.4964867  62.3768311
  43.4881516  69.7967453  25.9055672  43.5894814  70.0524216  26.8224068
  43.4935646  70.6240845  25.4241962  68.2121506  20.1709328  75.5916672
  67.8641663  20.3785801  74.7244720  67.5905304  20.5693073  76.2008667
  58.3092461   8.2687817  10.8673038  57.4861641   8.7181444  10.6753626
  58.9386559   8.9746199  11.0151672  79.7914810  12.8203468  74.6701279
  79.2372513  12.3312540  75.2782745  79.9232025  13.6679716  75.0948792
  19.0685120  70.7035446   4.1851850  18.8332748  70.8054428   3.2629533
  19.6570168  69.9487839   4.2002697  42.7729340   6.0002565  32.2289963
  42.7224045   6.8320251  32.6999969  43.3091087   5.4396515  32.7897720
  39.8293495  51.4910011  78.4837570  39.2646332  52.2448616  78.6541138
  39.9115448  51.0566063  79.3327484  53.7892075  61.7401657  30.5060062
  53.6360970  62.0214310  29.6039658  54.3337746  60.9572906  30.4236259
  67.9159012  59.8537903  12.7074633  67.7592545  60.5052032  13.3910971
  68.7904434  60.0590668  12.3769026  75.4812546  71.2312164  81.7966614
  74.8859253  71.4050293  82.5257721  76.2337799  71.7994156  81.9612198
  49.7247772  22.9097042  77.0433731  49.1776695  22.1275768  77.1153641
  50.3713837  22.6888161  76.3730469  63.5251350   1.6199750   7.2966127
  63.3516464   2.1669366   8.0627499  64.4797668   1.5657371   7.2522664
  50.7780762   7.8428936  16.1732960  50.5685883   8.5790977  15.5985346
  51.7133865   7.9380798  16.3532028  58.8001518  31.3784447  83.3913498
  59.3644638  30.7534103  82.9362564  58.3294182  30.8506031  84.0363541
  47.6689682  12.4234285  23.4311390  48.5255165  12.6939688  23.1004295
  47.0452080  12.9779196  22.9624252  28.2402973  53.8789558  52.3108635
  27.7400913  53.0628510  52.3106728  28.8566933  53.7819061  53.0367203
  42.1998291  61.1623611   9.0003338  42.7273712  61.9300652   8.7799702
  41.4019508  61.5230103   9.3870583  61.1211014  19.5355949  14.2825794
  61.6010590  18.9841614  13.6646852  61.6385498  19.5002613  15.0870838
  49.9808044   4.7011256  28.3031006  50.1166153   3.8817072  27.8273468
  50.8535271   4.9477887  28.6092796  83.0809326  61.0305519  27.0750675
  83.9511414  61.4154243  26.9709148  83.2373657  60.0864220  27.0944557
  74.5203476  11.1610069  38.7944870  75.3616180  11.5858173  38.9618950
  74.1428223  11.0264053  39.6637344  37.3538818   2.0071127  31.7501488
  37.8210449   2.2649996  32.5448074  36.7041168   2.6977429  31.6195068
  83.5368881  16.0955734  34.6526642  84.4354401  15.7689466  34.6990700
  83.3389053  16.1198158  33.7164764  42.3734131  70.2505951   9.7741241
  42.8923683  71.0199356  10.0087318  42.4584541  69.6656494  10.5270071
  53.3594704  31.6065388  53.0695381  53.9143906  31.9425220  52.3656845
  53.8586807  31.7741776  53.8688622  77.6577682   4.9888401  23.1987343
  78.0195160   4.1059675  23.1218719  77.6421661   5.1601472  24.1403503
  31.3892708  37.4538994  88.9303665  31.4647884  38.1280975  88.2550964
  31.5710411  37.9141541  89.7497253  41.1496048   6.2401896  16.1443539
  41.7996750   6.9315929  16.0194454  41.6671486   5.4460626  16.2775555
  48.7614632  18.4418564  66.0880737  48.2812309  19.1924324  65.7384338
  48.1036301  17.9394360  66.5687637  49.7411995  13.9588938  54.9594154
  49.3600235  14.8113737  55.1696854  49.3344231  13.7130098  54.1285667
  85.4419479  70.6444016  69.9046478  85.4067688  70.2226562  70.7632065
  86.3110962  70.4280853  69.5669708  34.4626923   2.7092481  72.5501556
  34.5998306   2.5214627  71.6216278  33.5542755   3.0062907  72.6028214
  74.4783249  51.7496605  53.5112419  74.6921158  52.4410591  52.8847504
  75.2772903  51.6377945  54.0263786  56.4096832  56.2958717  68.2871017
  57.0031700  56.7516823  67.6902466  55.6610756  56.0537643  67.7419357
  76.0069504   7.8786473  62.9284248  75.3610306   7.3963199  63.4445457
  76.5006332   8.3839664  63.5743065  12.1843119  54.9258308  70.0515747
  11.3356791  54.7842140  69.6320572  12.8144913  54.5087357  69.4640961
   5.3492861  69.8038559   2.1163669   5.7610359  69.9795761   1.2703073
   4.7224736  69.1030884   1.9367487  68.6229401  32.6766434  72.3933334
  68.7220917  33.4550819  71.8452072  69.3446198  32.7313042  73.0197678
   1.7225250  12.4676523   7.3488564   2.1506550  12.0451937   6.6042323
   0.9552320  11.9230261   7.5245714  51.3487968  45.8904152  16.3347702
  51.1212082  46.3963356  15.5547180  51.4756126  46.5483170  17.0183716
  68.4102249  20.9777470   8.6462593  68.2746048  20.0424118   8.7978706
  67.9203110  21.1640644   7.8453178  56.1029892  51.3695068  82.5297699
  56.7939568  51.3991394  81.8680191  55.2887535  51.3898163  82.0269394
   6.6409044   2.7071521   5.3153992   7.3634729   2.9640083   4.7425547
   6.9173212   2.9847682   6.1887574  35.8018684  66.2420349  44.3073502
  35.8720551  67.1937332  44.2327538  34.8663940  66.0796509  44.4288254
  43.0243263  24.9495888  77.2034760  42.7891655  24.0217571  77.2110596
  42.4336319  25.3515987  77.8404236  69.9643173  60.5578117  27.3645134
  69.9273605  59.6921844  27.7713966  70.7737579  60.9448662  27.6980286
  67.7929306   9.4517593  64.8158798  68.1881027   8.6691656  64.4316635
  68.3133011  10.1770811  64.4703979  50.1819153  29.9883461   8.4465542
  50.3708763  29.1388817   8.8452187  50.5425835  29.9234638   7.5622797
  30.6877384  36.8141518  69.3759995  30.9430847  37.5811691  69.8885574
  29.9673405  36.4241867  69.8711624  71.2505798  17.8209457  21.9036293
  70.9843369  17.5420265  22.7797298  70.8363647  17.1898136  21.3151360
  84.7466888  54.3279381  53.4216881  85.3945312  55.0325508  53.4142609
  83.9045792  54.7775688  53.4917603  32.8710289  67.4426117  24.5767899
  33.7379913  67.7043839  24.2668095  32.3715134  68.2585297  24.6083508
  53.6051598  57.4418297  78.7057190  52.8787270  57.4474602  79.3290176
  54.3201981  57.0121689  79.1751404   4.3249002  13.8869085  70.8783493
   4.9189992  14.1223211  71.5909882   4.8806682  13.4371529  70.2418900
  17.8349457  60.8697166  33.7114182  17.0486126  60.9877434  34.2443199
  17.9248829  59.9207611  33.6240883  74.5652466  70.2353973  14.9146566
  74.0349960  69.6244125  14.4030266  73.9773407  70.5432053  15.6044750
  42.4283867  60.7241974  19.0755100  43.1926308  61.2947617  19.1568470
  42.1819916  60.7839966  18.1525002  22.9912052  58.5869560  43.6637535
  22.6318378  59.3381996  44.1356850  23.2596073  58.9424171  42.8165016
  81.4591827  43.7282333  40.2727623  81.7021179  44.6186905  40.0191917
  80.9660416  43.8368683  41.0859299   8.9018631   3.5108218   3.9457633
   8.9451380   4.2573609   4.5432901   9.6531620   2.9683092   4.1854749
  59.8204727  32.7339592  77.9718018  60.1706848  33.5737686  77.6746368
  60.1337013  32.6489868  78.8722992  11.9600430  63.0165253  46.7252312
  12.2187471  63.2930527  47.6043434  11.0904503  63.3967171  46.6007576
  74.6250076  -0.1456892  70.1497116  75.2520447   0.5696646  70.0433121
  74.4159851  -0.4159520  69.2555618  59.6728516  55.1896133  70.5584869
  59.9673386  56.0609741  70.8235245  59.3256645  54.7998047  71.3608246
  12.8203812  59.6595497  59.6213951  13.0527411  60.1604462  58.8395119
  11.9013605  59.4255066  59.4915619  69.8908081  11.4512463  64.9157715
  70.4672775  11.9538832  64.3402100  69.3734283  12.1133928  65.3741455
  61.1531868  62.2116699  77.0890732  61.6222839  62.7463989  76.4485703
  61.7774658  61.5286484  77.3339996  80.4066391  66.1658401  54.4675598
  80.3803101  67.1039124  54.6561317  79.9373703  65.7615662  55.1973419
  77.0300522   3.7933755  65.2641068  77.1619110   3.9390852  66.2009201
  77.7653427   4.2416081  64.8461761  19.8008080  54.7210922  20.4262123
  20.3310966  54.8653030  21.2099400  18.9701614  55.1575089  20.6154194
   7.8232613  45.8816185   5.8926091   7.8664966  46.0387115   4.9493785
   8.7296896  45.7114868   6.1488810  77.3899460   5.7311110  61.2544212
  76.7756958   6.2460303  61.7776642  77.1428223   5.9125152  60.3476410
  35.1104164  52.7502518  49.3341751  35.0639038  51.8229027  49.5667648
  35.7495079  53.1184387  49.9442825  16.2605209  38.2739792  55.4575233
  16.4943237  38.2660599  54.5293503  15.3492241  38.5664635  55.4724770
  17.1034431  16.9449806  75.4463043  17.2772121  17.8523998  75.6965561
  16.9344902  16.9842911  74.5049591  11.8460064  64.7306519  15.6181707
  12.2672968  65.0744095  16.4059391  12.5153399  64.1827316  15.2082891
   2.5742626  54.6017456  16.8313484   1.6307167  54.6781044  16.9732018
   2.8356044  53.8474579  17.3595333  24.1456051  70.8542786  34.4818687
  24.5389805  71.6697540  34.7924919  23.4855976  71.1332626  33.8472137
  72.4086990  10.9649858  52.9767151  71.7108002  11.3823376  52.4717522
  73.1303406  11.5933943  52.9527473  54.7902260  60.7755775   0.7860100
  55.3479843  60.2175331   1.3279723  55.3859863  61.4331207   0.4269259
   8.0840340  23.7314453  63.1568794   7.5297184  24.4558430  63.4470787
   8.4576855  24.0326614  62.3286972  51.1218719   5.0177412  18.2529030
  52.0504150   5.1139851  18.4644985  50.8697319   5.8667159  17.8897228
  51.1476097  44.8379288  75.4226913  50.4945412  44.7129974  76.1112595
  51.8173180  44.1788712  75.6053391  77.6571579   2.7473643  40.9632187
  76.7183228   2.9329951  40.9443588  78.0289307   3.3248506  40.2964897
  76.1200180  25.3860645  13.4714584  75.9606552  26.3226051  13.3542938
  76.4720840  25.3121471  14.3584852  24.3162880  47.6801262  24.7303982
  23.5787182  47.0974388  24.5495720  24.5781326  47.4643707  25.6254520
  45.8634567  40.3780670   8.0708590  46.7878914  40.3659782   8.3188591
  45.6270752  39.4547272   7.9825406  67.8382874  42.5956688  71.5934601
  67.2542953  42.2932129  72.2889557  67.5524521  43.4912491  71.4132843
  60.8813057  20.2731266  86.3699722  61.2946587  19.6445103  85.7781906
  60.1545906  20.6364193  85.8638763  54.6024017  24.2042065  60.4923820
  54.7084923  23.2685642  60.3204765  54.8165588  24.6263733  59.6604309
  63.6865273  71.4073181  35.2023506  64.4309387  70.8722763  34.9270096
  62.9370537  71.0301361  34.7416458  19.8067837  36.6015854  77.9913025
  19.3441181  37.1588402  78.6171112  19.2605953  35.8189316  77.9180756
  31.6159935  38.5387268   2.3441257  31.9165878  38.0582695   3.1155093
  31.0394840  39.2177658   2.6945174  48.7385712  69.1143112  16.3118401
  48.5315437  69.8648453  16.8686867  47.9665909  69.0083618  15.7559204
   4.6128244  39.8296661  61.7697372   4.9732876  40.7102394  61.8740692
   5.1962276  39.4050140  61.1408157  40.0879250  37.9455795  11.8605261
  40.1526642  37.5312462  11.0000792  40.5433998  38.7812996  11.7588148
  61.0845947  10.0234613  26.0450325  60.4143105   9.5259876  25.5765591
  60.7235641  10.1436405  26.9233513  26.2812462  31.3276539  75.1720963
  26.4669914  32.0279236  74.5465164  27.1434097  30.9980431  75.4255981
  68.9128418  13.0853300  62.0423012  68.9974747  12.3428679  61.4441223
  68.3292236  13.6932783  61.5884056  46.4598618  17.3347912  17.2613449
  47.0310593  17.2992249  18.0286121  46.6321335  16.5160561  16.7963409
  20.8432083  34.7311592  62.3232307  20.2111530  35.2972450  61.8801880
  20.9949608  34.0139275  61.7077789   4.5272007   9.4048452   5.1937599
   4.0855184   8.8758783   5.8580961   5.4594045   9.2964039   5.3820910
  68.5814133   6.7984028  69.0940628  69.4872894   6.9369979  68.8176193
  68.5935364   6.9500237  70.0391006  44.5191460  40.0962448  52.7543945
  44.6150627  39.6626472  51.9064445  43.7420425  40.6463203  52.6555824
   7.4605560  18.4665947  56.6432991   8.1624184  17.8273811  56.5207214
   7.7629128  19.0190086  57.3641663  72.4574966   9.2436686  32.7037392
  72.9085770   8.6550455  32.0985260  71.5639191   8.9033318  32.7475586
  81.2708435  46.5321617   6.8858156  81.7475281  45.9051132   7.4297051
  80.4129181  46.1293755   6.7518411   2.7191300  23.6676025  84.2821579
   3.0231929  23.0639896  84.9599686   2.2453997  24.3472252  84.7616577
  69.2657852  30.0443764  42.0033646  69.9092636  29.5716209  42.5312576
  69.1219330  30.8632240  42.4777336  29.9771137  24.1549835  87.0033112
  30.5607529  24.7843056  87.4270477  29.7771053  24.5481586  86.1538162
  80.9174576  27.1885605  29.2130127  81.5413971  26.6786690  28.6963520
  81.4366913  27.9064541  29.5753098   8.3619757  47.7488785  49.3168907
   9.0705976  48.2578125  49.7106895   8.7762394  47.2842293  48.5897598
  18.7853909   5.3313150  13.8424721  18.0094147   5.8308082  13.5883093
  18.7314434   5.2739310  14.7964268  86.1853943  15.3805056  34.8633804
  86.7823334  14.9426489  34.2566071  86.7409821  15.9923420  35.3462944
  79.8120270  71.0190887   8.6705360  79.0285873  71.5680771   8.6378450
  80.4406967  71.5290451   9.1813707  31.4126625   4.0363593   5.2289639
  31.3792038   3.9773843   6.1837592  32.2876396   4.3756504   5.0404677
  77.9469528  11.2256079  10.9857378  78.5406418  11.9740467  10.9257040
  78.4912109  10.4698362  10.7647867  11.2103891  44.6397552  36.8303223
  11.9850416  44.6147575  36.2686081  10.4721918  44.6204147  36.2212868
   2.6455672  26.9239540  14.8609200   1.9709150  26.8294258  14.1885052
   2.2792535  27.5547314  15.4807310  48.9562531  57.5238533  28.2337208
  48.0565186  57.3619995  27.9499836  49.2304535  56.7021446  28.6409588
  13.0373526   6.3867826  69.1975555  12.4525709   6.6844110  69.8944626
  12.4522743   6.0233064  68.5328751  69.5606232  21.6291733  61.1299667
  68.7005005  21.4926167  61.5271721  70.1755066  21.5591927  61.8602104
  86.2643127   5.0266995  26.0447197  86.4096375   4.0852199  26.1381378
  86.6914673   5.2542052  25.2188835  47.3333893  20.4738331   3.5539536
  46.3807487  20.5350132   3.6243980  47.6561966  20.7751255   4.4032178
  68.2627716   5.0087996  18.9369869  67.3310089   4.7949505  18.8887196
  68.5660629   4.5789075  19.7366352  13.0097160  41.1917152  21.8934898
  12.1151218  41.1208839  21.5604477  13.0558748  42.0700798  22.2710781
  80.5074081  49.9603539  67.0016327  81.1561813  49.8100624  67.6891861
  81.0195236  50.0017738  66.1940079   6.1492505  20.7242775   1.5777301
   6.2275844  20.7127323   2.5316496   6.8294873  20.1230984   1.2742591
  13.6193943   4.7628531  27.0735569  13.0090160   5.2563853  26.5257473
  13.0599623   4.2925639  27.6916962  66.8606186  20.5954723  73.0986252
  67.2754593  21.3803921  72.7407990  66.7199020  20.0311718  72.3383636
   8.6708698  37.4691315  65.8199005   9.4744539  37.1309357  65.4247971
   8.9384232  38.2821884  66.2483749  21.5574360  31.7862034  19.5547047
  22.3386822  31.4660740  19.1037045  21.0393848  32.2057838  18.8678226
  79.1154480  69.1310120  73.2230148  79.1763611  69.8391876  72.5819244
  79.2812958  68.3353271  72.7174377  43.4921036  32.4150581  80.7364197
  43.3384590  32.3641815  79.7929993  42.8449402  33.0463982  81.0507736
   7.1308017  62.9178467  74.0808945   7.3807287  62.0120544  74.2633972
   7.9088225  63.4300346  74.3013077  69.5089264  53.5474243  58.7481728
  69.1377945  52.8013000  58.2772293  69.0890884  53.5208359  59.6079750
  50.8186760  10.0816946  71.5998840  50.3958359  10.4823637  72.3594208
  51.1096191  10.8230839  71.0689163  32.8357849   4.0388556  35.6288834
  32.3370705   3.3660531  35.1653633  32.5260773   4.8649702  35.2576065
  43.3723984  45.2810364  23.6291828  42.5521164  45.3538628  24.1171017
  43.1032181  45.0404739  22.7426701  68.3228836  14.9213266  70.0037842
  69.1626358  14.9285898  69.5444489  67.7319183  14.4518290  69.4150848
  62.4317284  12.3396921  55.9945221  61.6756516  11.9215107  56.4064751
  62.3914070  13.2499075  56.2879753  82.9692307   5.4376407  73.4599762
  83.7249146   6.0240755  73.4956360  82.6933289   5.4579582  72.5436249
  57.4524727  48.6308975  83.5310135  56.9010010  49.4116898  83.5807571
  58.3291779  48.9421387  83.7562866  18.9976063  12.1012430  74.8000565
  19.0229321  12.5171299  75.6618195  19.8501053  12.3002520  74.4129257
  28.3047276  -0.1156682  27.9074020  28.2373676   0.7854881  28.2230148
  27.5695457  -0.5693836  28.3195705  79.9707642   9.7615213  33.2552795
  80.6585083   9.7628574  32.5895119  79.2170410  10.1618385  32.8218346
  76.0727997  66.5648117  13.7186155  76.5824203  65.7820358  13.5093775
  76.1458664  67.1139221  12.9379930   5.9310255  51.8706207  57.5670090
   6.4768243  51.1341972  57.8427200   5.0937452  51.7264671  58.0079308
  67.5169983  31.0719948  25.4601822  66.7529297  30.5960636  25.7856312
  67.8360214  30.5420322  24.7297058  13.7518816  51.1435280   4.1763306
  13.8491077  50.3957176   3.5867896  13.6606941  51.8975296   3.5937505
  43.1274376  41.5965500  67.2774353  42.3523636  41.1838226  66.8964462
  43.8155670  40.9363823  67.1944351   9.6807070   8.2046967  77.8128357
   9.9871235   9.1104412  77.7684784   8.7992706   8.2315378  77.4405746
  58.4019241  43.1384087  32.0248833  57.6963654  42.9167557  31.4171925
  57.9856606  43.1346512  32.8868256  62.8280754  41.0679207  29.0484314
  62.1700172  40.4465332  28.7368679  63.5999985  40.5304375  29.2258530
  63.3843918   3.7149994  50.7877922  62.5367126   3.7183888  50.3432045
  63.2220268   4.1657391  51.6164703  86.1679382  23.7696648  28.4316006
  87.0017395  24.2341156  28.5043716  85.6163788  24.1600037  29.1095753
  38.2566833  63.1166191  71.7937393  39.0218391  62.6280746  71.4902725
  37.9378090  63.5708923  71.0138702  28.0019646   7.7613816  59.1337929
  28.8994274   7.8818698  58.8235130  27.5273228   8.5202007  58.7944679
  12.9086208  51.7895813  71.7798843  13.2221031  51.0412483  72.2877884
  11.9553852  51.7030792  71.7894058  81.1106339  16.0944519   5.5157185
  80.2332230  16.4520931   5.6516438  81.2663803  15.5438776   6.2830791
  56.0447044  15.5531788  26.2636623  56.9298630  15.1965761  26.3382072
  55.6953392  15.1615448  25.4631634  81.9180450  52.4468460  79.3727646
  81.8843231  53.0322495  78.6161880  81.4689102  52.9277611  80.0679169
  49.7475281   0.4298867  87.9524536  49.2583122  -0.1474380  87.3662872
  50.0806580   1.1231780  87.3827133  57.3524857  56.4635468  58.3189049
  58.2868919  56.3201981  58.1686668  57.3149605  57.2542801  58.8570175
  20.2388401  24.3872223  82.4720917  20.8308983  24.7114086  81.7934189
  19.3999481  24.8052177  82.2777405  62.6259766  71.3957977  74.0199280
  63.4511375  71.0674210  73.6628418  62.2168732  70.6292496  74.4215088
  43.3204803  23.1327209  16.6166992  42.8762589  23.6801891  15.9692612
  42.8085480  22.3242130  16.6383877  67.1529312  51.2482681  66.0066147
  67.7548294  51.5782700  65.3395004  66.8927460  50.3839722  65.6879807
  86.1338043  32.7563972  88.8314972  86.0928802  32.6861687  87.8777542
  86.9800797  33.1685562  89.0052185  14.7215328  66.6556244  75.1588898
  15.0531368  67.5517044  75.2164383  14.4901142  66.5446320  74.2367401
  31.3839397  34.0213814   2.1526458  30.7506866  34.0820503   2.8678663
  30.9428768  34.4285355   1.4070463  77.4318237  66.9851303  17.6152420
  76.7341080  66.3742599  17.3780594  77.1531067  67.8225937  17.2448273
  51.2963943  24.4603157  55.6624298  50.7039070  25.1658688  55.9220161
  50.8929482  23.6669827  56.0146828  50.1622620  43.9564934  46.4989166
  49.4923553  43.3290367  46.2273369  49.9412270  44.1649895  47.4066048
  72.7850723  47.4830818  11.4850311  72.7563324  47.8960152  10.6219606
  72.9174423  46.5530548  11.3012877  74.3331223  18.5912991  88.8192825
  74.8172836  18.4194641  88.0116425  73.6204300  19.1718712  88.5523834
  78.4614868  71.3767700   4.4458089  78.5097961  70.7698517   3.7071939
  78.1073074  70.8523254   5.1639657  74.0297546  33.4438057  42.0155830
  74.3509140  34.1609993  41.4690247  74.5183640  32.6771202  41.7161064
  10.9552975   8.5829792  65.5826340  10.8523397   9.2453613  66.2659225
  11.6337671   8.9360390  65.0070877  82.6769867  10.2481270  41.9899712
  82.4831085   9.5956898  42.6629982  83.6330261  10.2770433  41.9527664
  74.4804764  31.9449215  27.3542728  75.3975830  31.8559589  27.0949821
  74.0118408  31.3273945  26.7927780  31.3215942   8.1700468  80.6295929
  30.3693867   8.1583862  80.7265320  31.4682579   8.5071068  79.7457886
  24.8622112  54.2304192  18.2896881  24.1651478  54.2062836  18.9452438
  24.4077129  54.1318130  17.4530621   2.4787529  43.3320236  44.4541855
   2.7943645  42.4989548  44.8043518   2.0617931  43.1004257  43.6242828
  82.1058121  70.0470123  79.2945251  81.7597198  70.0665665  80.1867523
  82.5011063  70.9101181  79.1719894  56.5001335  33.7988701  72.5905457
  56.4312019  32.8949318  72.2833328  55.9741821  33.8209000  73.3899918
  78.1864548  27.0306549  25.5080605  78.8932114  27.1947556  24.8837204
  78.2377777  27.7605362  26.1252079  36.0700874  70.4548569   4.2675858
  36.9316902  70.7078018   4.5990882  35.5197258  70.3993759   5.0487742
  75.0637207   6.1229610  47.2104149  74.9857407   6.9236016  47.7291908
  75.4638672   6.4078984  46.3888779   8.5182486  41.5541763  45.7927551
   8.1432009  41.0487061  46.5139160   8.9032640  40.8962097  45.2139015
  38.8081322   9.9973011  87.4349670  38.2168961   9.7899065  86.7113190
  38.2391739  10.0437956  88.2033081  10.6882887  40.8431129  52.9700851
  10.8356342  41.5354843  52.3257713  11.5308256  40.7455673  53.4137611
  86.2091141   1.5119087  39.7561226  85.4138260   1.7021418  39.2585793
  85.8928604   1.2265577  40.6133194   1.4549847  28.8259087  23.6456947
   0.8108114  29.3512516  23.1710472   1.2787060  29.0074215  24.5688457
  79.3573990  36.8136864  46.6173630  78.9381332  37.2517586  45.8767281
  79.3286209  35.8835831  46.3930664  74.6074829  23.3732452  78.0700684
  74.5403214  24.1059380  77.4577942  74.1232605  22.6634483  77.6482315
   6.7808805  10.7745876  13.7170534   6.2506700  10.6778002  14.5080910
   7.5584154  11.2517986  14.0067797  64.9049225  25.7819195  74.1932144
  65.2543793  25.8615818  75.0807800  64.2338486  25.1026478  74.2601013
  53.3523407  13.7839890  85.3293915  53.1178627  14.7017317  85.1915512
  54.2581978  13.8118839  85.6374130  73.8249435  36.8622780  58.7305412
  73.9041977  37.7573128  59.0604858  74.6477051  36.4413834  58.9798279
  52.6959419  39.9230232  13.9272585  51.9629517  39.9539528  14.5420780
  52.7453461  40.8091469  13.5686884  76.6429291  55.4435120  33.8532524
  76.6496353  54.8991089  34.6405334  76.3433075  54.8567657  33.1588631
   2.1753428  36.6570511   9.4248219   2.0223725  35.7532806   9.7005501
   2.5413113  37.0849419  10.1989069  37.1888237  24.1453552   2.1875579
  36.3934860  23.7887001   1.7920058  37.7578087  24.3440685   1.4439174
  10.8431854  37.8551369   5.9974079  11.5346336  37.7981491   5.3379507
  10.1136255  38.2771225   5.5436401  54.3982391  15.8970909  15.8516197
  54.2806778  14.9789944  16.0955696  55.3182869  16.0796871  16.0424004
   6.2921982  27.6098480  50.1534462   6.1616888  26.7290192  50.5046463
   7.2327571  27.6631775  49.9839287  56.5882492  21.6153812  31.1069508
  57.5341454  21.7547703  31.1525707  56.4695511  20.6969128  31.3489380
  66.1442337  59.7629700  74.6927872  66.2628174  60.0252876  75.6056671
  65.2365265  59.4628067  74.6458130  58.1530113  67.7603989  74.7572861
  57.8961143  68.4933395  74.1977844  58.7986298  67.2789764  74.2399445
  77.7333145  34.3963051  43.2600899  77.2807617  33.5880661  43.0188789
  78.2136688  34.1730576  44.0573692  73.8856812  20.1073952  40.6863899
  73.2624512  19.8824444  39.9955902  74.7262192  20.1842518  40.2349167
   4.8810611  40.2750740  78.1993179   5.4349132  39.7621689  77.6107559
   5.4971128  40.7948189  78.7156296  72.8626633  68.6310272  81.0858078
  72.3503342  68.1276321  80.4530792  72.4306717  69.4845581  81.1188812
  66.0805359  45.6523972  12.0385046  65.6896820  46.3220100  12.5998325
  66.3114090  46.1184196  11.2349176  51.2077942   2.9556663   7.7763243
  51.5900955   3.1926708   6.9313941  51.7123070   3.4573376   8.4166555
  20.8854256  19.9775372  74.5235977  19.9598122  19.9807186  74.2797394
  20.9454861  19.3315067  75.2273483  20.9737549  64.5448074  37.2370911
  21.2683716  63.7933197  36.7226067  20.0364399  64.6080475  37.0535889
  19.3274670  50.5298042  10.6608286  18.8821411  49.9943275  10.0041819
  18.6213570  50.8759956  11.2065287  50.6380157  65.8917007  30.2754936
  50.8930359  66.7529755  29.9447403  51.4536972  65.5073318  30.5966702
  54.0747719  44.5676231  17.2791634  54.5047302  45.1201935  17.9318752
  53.3282127  45.0867615  16.9802074  72.0586395  52.5703545  86.7677155
  71.6948853  53.0933304  87.4821472  72.9596939  52.8807602  86.6783676
   0.1434401  35.2799149  27.9875755   0.1060737  36.1233177  27.5364571
   1.0443400  34.9814034  27.8630676  30.0112076  57.6078262  12.8012428
  30.1063213  56.7483368  13.2116861  30.6015606  57.5803261  12.0482759
   9.7538462   2.7396111  80.9144211  10.6508455   2.5970709  80.6122513
   9.7751017   2.5115469  81.8438187   8.8665590  67.0501175  47.2492256
   9.6587868  67.5640564  47.4056702   8.4184933  67.5106812  46.5397568
  51.6245575  34.0777969  72.4683914  50.9509087  34.5436440  72.9637833
  51.8225555  33.3067474  72.9999161  73.0230255  26.6321774  45.9930725
  72.4111252  27.3460617  45.8136826  73.1026917  26.1696777  45.1588211
   0.9395518   8.3823643  38.5531044   0.2222653   8.0371313  38.0215530
   0.6153345   8.3352861  39.4524918  60.9630280  47.0308266  74.2462997
  61.2548752  46.1192093  74.2427750  60.9501648  47.2817612  73.3226700
  77.1619263  23.8368015  33.6151390  77.6188049  23.2733803  32.9905968
  77.8589783  24.2139473  34.1519012  79.3204041  52.9816666  11.8871489
  79.6021805  52.3209801  11.2544317  79.9429398  52.9020386  12.6098785
  53.3301506  24.1025848   2.8945076  54.1028938  23.9366035   3.4344616
  52.6493530  24.3499317   3.5202584  31.0140896  56.0590172  17.6653366
  31.4494858  55.2276459  17.4769688  31.0736599  56.5514641  16.8466892
  81.1693039  12.8983612  68.0579529  80.4206161  12.5646772  68.5522842
  81.5025101  13.6226215  68.5877228   3.0144510  61.5613098  79.4820480
   3.6584556  62.1713486  79.8416824   3.0651271  61.6903496  78.5349426
   4.0441599  61.1293831  69.5207443   4.7038388  60.6364479  69.0328217
   4.3751640  62.0274734  69.5308228  78.5360260   4.1679077  43.0452766
  78.1410294   3.4505360  42.5497131  79.2448120   3.7559063  43.5393524
  57.2393990  28.3899879  54.2824097  56.8766098  28.2933331  53.4019127
  58.1747780  28.5362511  54.1413269  49.5157051  63.4147530  57.8283195
  49.2001190  62.7482872  57.2180214  50.3821449  63.6514626  57.4974403
  32.2204361  41.3733864  88.9124298  32.2535667  42.3292580  88.8744202
  31.3767548  41.1790199  89.3206635  11.7131424   2.2362397  18.3232327
  12.0385695   2.7816370  19.0393829  10.9568968   1.7809850  18.6934586
  82.6502914  59.2647018  50.2515182  82.3361588  59.2170181  51.1544456
  82.6898193  60.2018852  50.0608521  55.6179848  51.3367653   3.9299307
  56.2008858  51.7767754   3.3111851  55.9986305  50.4653511   4.0393629
  51.3499069   6.0900316  13.9886103  52.2963600   6.1978292  13.8946047
  51.1411629   6.5194645  14.8182163  32.0389061   7.5631294  41.8256531
  32.5645409   7.5263100  42.6247673  31.3515663   6.9108057  41.9608154
  77.5695419  50.9830208  49.5560608  76.9853821  50.5318146  50.1654892
  78.2507629  51.3606529  50.1124420  74.0274963  39.7163696   4.9935007
  74.5745010  39.9114723   5.7543874  74.4773026  38.9948425   4.5538325
  76.9664917  38.5395737  49.9680557  77.3551559  37.9245796  50.5901146
  77.2782745  39.3983154  50.2536926  11.6077051  19.7177315  70.6808548
  12.2389774  19.1991367  71.1796417  11.4043255  20.4598370  71.2501907
   5.8498702  23.4700565  23.1325283   6.0671539  24.3007755  22.7095337
   5.7526784  23.6911316  24.0587635  45.0580215  63.8143349  22.1184959
  44.1371994  63.8142014  21.8571262  45.2239914  64.7106781  22.4104729
  61.7894974  38.4191399  38.6529961  61.1064072  38.9922447  39.0010834
  61.5330505  38.2657700  37.7436295  23.0467243   9.4223185  22.0958672
  23.9249916   9.4665661  21.7178211  23.1509647   8.8857832  22.8816757
  83.9350510  33.1807938  11.8312788  83.4529572  33.3074532  11.0141029
  83.3996658  33.6155167  12.4950619  25.1322041  52.9640007  76.6726608
  25.5102558  53.0968857  77.5419388  24.6112595  52.1654778  76.7575531
  40.2076530  17.2734127  10.0265560  39.4655151  17.1745529  10.6229544
  39.8116608  17.3134518   9.1560268  13.0365534  31.0915890  16.4598026
  12.5148554  30.4347706  16.9209461  12.4187574  31.5107555  15.8607540
  54.0586891  52.1949997  46.7412720  53.7939796  52.6592369  47.5354042
  53.6908951  51.3171730  46.8431435  44.9450569  69.5821762   2.8665645
  45.8059387  69.1791153   2.9790761  44.4537430  68.9538727   2.3373446
  32.2719765  54.9530334  62.0607109  32.4425659  55.8762436  62.2472916
  31.5404472  54.9646149  61.4434891  63.1472702  55.3153458  85.3638763
  62.7628860  56.1805496  85.2228088  62.5186920  54.7075920  84.9743195
  55.6239777  54.0970230  26.3878174  55.2153473  54.9407158  26.5813007
  56.3648033  54.0455933  26.9917717  83.4771194  51.5935059  24.2036076
  82.9763184  51.9093895  23.4515114  84.3865585  51.8029709  23.9908371
  37.6767197   2.4314377  13.9593973  38.5947304   2.4294009  14.2304783
  37.5659866   3.2610221  13.4948978  37.9019432  63.4295807  49.7369728
  37.5643921  63.7027321  48.8839302  38.8417702  63.6049423  49.6899910
  65.6583557  32.5384178  45.7782211  65.4327393  33.4589272  45.6440773
  64.9748383  32.0543098  45.3148880  84.9085236  60.4304543  47.0204315
  85.1707382  59.5899277  47.3959274  84.0539169  60.2597389  46.6245308
  51.0639076  40.5367775  70.7351074  50.8178673  40.9315720  69.8985443
  50.7826424  39.6248016  70.6614914  40.9586754  67.0258408  27.4724197
  41.1129303  67.9704285  27.4865456  40.8697739  66.7838593  28.3942509
  62.9217911  27.5318642  88.9268417  61.9808311  27.3562908  88.9247665
  63.0831642  27.9825840  88.0979614   2.6884449  43.9061279  23.7237988
   3.4224830  43.8055763  23.1177387   2.9528255  43.4176102  24.5033398
   0.5107818  16.3162422  68.2480469   1.4152390  16.2288265  68.5489578
   0.3288591  17.2542400  68.3054581  47.0972176   5.3224130  11.9809198
  47.7892609   5.3420177  12.6419191  46.2846413   5.2898340  12.4857893
  58.2013474  30.3373013  13.9270849  58.8388672  31.0150681  14.1516590
  57.6223907  30.2915058  14.6879673  62.6107292  62.0461235  33.2781830
  63.2706642  61.4206429  32.9790230  62.7588196  62.1179085  34.2211304
  11.2618370  45.5166893  50.1776772  11.7251215  45.8246841  50.9566078
  11.8167419  45.7874641  49.4462433  55.6390648  70.0455627  37.4558716
  55.3715401  70.8317566  37.9318504  55.4008179  70.2237015  36.5460701
  58.0964165  50.9389267  32.7140961  57.3941803  51.1032181  32.0847282
  58.8914566  50.9040985  32.1821823  84.6335526  47.2736588  47.3035164
  84.4586716  47.9386559  46.6376114  83.9347000  47.3897133  47.9472313
  70.0542450  48.5687599  11.2425137  69.4073715  48.5089340  10.5395174
  70.8228226  48.1122665  10.9002619  82.2753067   3.1312172  36.3762131
  82.4675674   2.2336886  36.6477089  81.6202240   3.4362161  37.0039635
  82.6963272  56.3691711  69.9770813  82.3629532  55.5834885  70.4104309
  82.2066498  56.4158478  69.1559448  64.6269302  58.0427704  14.3619814
  65.0783691  58.3516235  13.5764637  65.1569672  57.3073540  14.6693068
  39.5113182  16.6457520  82.9272079  38.9827652  15.8490782  82.8805923
  39.2468681  17.1538486  82.1603088  73.4123993  70.8989944   8.6958323
  74.1281662  71.5207062   8.8276939  72.6739502  71.4398041   8.4157276
  13.2898865  41.0986137   1.4820511  12.9705305  40.7436485   0.6524470
  12.6948328  40.7404327   2.1407230  67.7913055  67.7955475  35.7239227
  68.5599213  68.1739273  35.2969704  68.1261215  67.0227051  36.1787300
  76.0628052  50.9173508   2.4425654  75.7412491  50.3664322   3.1562316
  75.2990265  51.4256020   2.1695278   1.4190034  23.3945408  21.3852615
   0.7117193  22.8183136  21.0955296   2.0554607  22.8066330  21.7920990
  41.2567482   0.6393229  85.8387680  40.8810387   1.1729268  85.1385269
  42.1174889   1.0261568  85.9991302  47.1708908  58.7986374  33.4272118
  47.9419441  58.7157898  32.8661003  46.4781303  58.3403587  32.9514999
  83.7684860  52.5743637  17.6481705  83.9536591  52.3952866  16.7262840
  83.7572556  51.7114258  18.0622292  63.7213707  38.2161789  13.0822086
  63.2660294  37.4461517  13.4227247  63.9745712  38.7092743  13.8625803
   5.5028496  12.4013586  61.6927910   5.9029794  11.6655493  62.1561623
   4.6423502  12.0774050  61.4266586   1.6259301  71.3945160  83.1593323
   1.8123238  71.7849655  84.0131683   0.6705117  71.3528519  83.1184464
   9.7803745  16.7666645  75.0947266   8.8885975  16.5183105  74.8512421
   9.6702242  17.5315857  75.6595230  63.6413307  55.8004189  16.8594894
  63.4865952  55.3412743  17.6850033  63.6240234  56.7281532  17.0945244
  44.6484108  48.8515434  70.8035431  43.8565178  49.3616829  70.6335449
  44.7994537  48.9498749  71.7436218   9.5569420  54.3131905  36.8625298
   9.2993965  55.1947861  36.5929146  10.4854155  54.2554283  36.6370659
   0.2927105  33.4573517  47.2130585  -0.1138648  32.7705307  46.6846581
   0.5162928  33.0247917  48.0371513  22.6704693  43.1504364  12.9344292
  23.6147957  43.1305618  13.0896111  22.4054165  44.0358772  13.1833782
  53.0304375  56.8245544  65.7484741  52.8710175  56.3286781  64.9454041
  53.6805267  57.4814529  65.4992905  40.6077652  43.6333694  84.5604248
  40.2953110  42.8544273  84.1001511  40.1469536  44.3601761  84.1413269
  37.8850441  46.4359016  10.1020775  37.9392204  47.1944389  10.6833878
  36.9610214  46.1866646  10.1190348  18.1220913  24.0992756  84.7470169
  17.8250656  24.9059887  84.3260345  19.0328159  24.0047760  84.4679413
  34.9133835  10.8432436  62.7332420  34.2813759  11.4978180  63.0304489
  34.6833076  10.0506840  63.2181625   9.1317091  61.7996292   0.7649049
   8.7834291  62.3868980   0.0940479   8.5679779  61.9432564   1.5250430
  80.5592575  31.4828510  42.1897697  81.0690689  31.5330334  42.9983559
  81.1707382  31.7513638  41.5040398  40.6874466  40.6633263  64.8557892
  40.9436111  40.4503059  63.9584389  40.4823036  39.8172073  65.2535706
  80.6505814  25.5503311  16.6964264  80.1051178  25.6865158  17.4711189
  80.9039001  24.6283321  16.7409306  69.7675400  44.7659454  39.3498421
  69.2528152  43.9828987  39.1545563  69.3016129  45.1844597  40.0737190
  41.4838715  66.0951920  76.4076462  42.0908241  66.0802841  77.1476517
  41.0402985  66.9404297  76.4786835  37.6023674   1.1592543  36.7992249
  36.7901344   0.9036237  36.3620033  37.6654243   0.5700415  37.5509453
   7.0584383  68.0351715  11.6181507   7.2991228  68.8479004  12.0628786
   6.5630980  67.5419540  12.2720633  70.5960846  70.9032288   2.3317597
  69.7952347  71.2422562   1.9318390  71.2667084  71.0166473   1.6582365
  51.8621292  25.7346268  44.1358757  51.5811157  26.6361809  44.2922821
  51.8917313  25.3384724  45.0067482  13.9121408   8.8815956  68.8050003
  14.4757462   8.9558954  69.5751038  13.5423250   8.0006247  68.8629456
  41.1832047  69.7799377  49.6128616  40.5463638  69.2265091  49.1607742
  41.6844292  70.1921921  48.9092636  83.0787659  68.8032761  74.6924744
  83.2667007  68.7502747  75.6295471  83.0771255  67.8929291  74.3966675
  68.4804382  24.3586674  62.5285263  67.9331665  23.5753174  62.4729462
  69.0503616  24.3076096  61.7611847  14.4755545  55.4218941  21.5582390
  13.9368696  54.6447754  21.4094582  15.3104458  55.0774651  21.8753471
  62.5204277  50.6650925  43.8101044  62.5506668  49.9677048  43.1551476
  63.0855904  51.3514175  43.4554520  23.4383106  10.8386183  26.6297798
  23.3530693  10.0114613  27.1038857  22.8270435  10.7590475  25.8974876
  55.2139702  10.9913273  85.5034561  55.9789124  10.4164762  85.4780960
  54.6176682  10.5693712  86.1220093  26.8020000   2.9747269  11.6783752
  26.2227058   3.1602960  10.9393129  27.3699856   3.7430182  11.7362881
  21.0022602  29.0609760  78.9946976  20.0920448  28.7852650  79.1029816
  21.1658802  29.6436062  79.7363205  82.4623337   3.5577097   7.7818341
  82.8978729   3.9751012   7.0386529  82.4772034   4.2211614   8.4716473
   2.1292818  53.0378036  19.1208782   1.3307109  53.5651512  19.1414413
   2.1916411  52.6632271  19.9995327  56.8076096  22.4202576  88.6713181
  57.2890511  21.5933418  88.6457138  57.3930626  23.0513268  88.2527161
  51.6541824  62.4678688   6.4643226  52.4544487  62.6161613   6.9681234
  51.7936287  61.6230698   6.0364203  45.9523163   2.4330254  18.4825935
  45.7155457   3.0942130  17.8322067  45.5848694   2.7617559  19.3030510
  13.3518276   9.4693804  63.8789139  14.0289707  10.0160084  64.2775421
  13.2577066   9.8141308  62.9909286  12.9783506  57.9584999  36.9441757
  12.3446169  58.1093140  36.2428436  13.2279854  58.8358917  37.2341690
  47.6364975  51.3517151  71.7278290  48.0159531  51.5438766  70.8703156
  47.2705727  52.1864510  72.0203171  28.3469181   7.4387989  56.1187019
  27.5245171   6.9864020  56.3063850  29.0199814   6.7668138  56.2266617
  76.6043930  68.9243622  50.5962563  75.8562469  68.4453506  50.2398033
  77.3003922  68.7954178  49.9519043  19.1888199  23.2305813   8.6187220
  18.5060940  22.5849133   8.8010044  19.8488388  22.7474041   8.1215830
   9.3890486  60.1913452  78.9757843   9.2087479  59.2527580  79.0285110
   8.5532207  60.6079597  79.1856766  28.4744873  20.3852711  87.3361893
  28.9008064  19.5503807  87.1426849  29.1840096  20.9520245  87.6388474
  67.5671005  18.2402992  14.9183617  67.5917740  18.1465816  15.8706436
  66.6534805  18.0756493  14.6850796  62.5951080  44.8212891  17.6976719
  61.8502121  44.7335472  17.1029758  62.5380974  45.7200661  18.0219822
   3.0552533  66.3345184   9.8946438   3.2974184  65.4918442  10.2786789
   2.5791028  66.1059418   9.0963554  33.1499672   0.1069828  64.2685242
  33.0544205   0.9936903  63.9208870  33.8874054   0.1660243  64.8759232
  56.7396278  36.7975655  17.5135880  57.0771332  37.5299110  16.9978428
  57.0629539  36.0177536  17.0623856  35.9432144  60.8299675  19.3626671
  35.1674423  60.4377365  19.7633743  35.6820984  61.7295151  19.1655254
   1.3887727  66.2837524  13.7245436   1.7620114  65.5113754  13.2998571
   0.6841248  66.5618057  13.1394024   9.7864027  56.7325134  81.4846191
  10.4778881  56.1891327  81.1067047   9.8204546  56.5453224  82.4227219
  40.7448387  14.7330484  84.8445282  40.4742470  15.5537024  84.4327774
  41.6932297  14.7031488  84.7184677  49.3321075  46.7964783  37.9169273
  48.4698944  46.5498352  37.5822830  49.2367249  46.7677612  38.8689308
  55.9762764  61.6344643  85.5081940  55.7774162  60.7231102  85.2934265
  55.1345863  62.0853996  85.4415131  53.6732407  71.4836960  43.2014771
  53.9880409  71.4407883  42.2985420  53.1473999  70.6912231  43.3097076
  39.7258568  17.1815968  67.5743713  39.6484528  17.7267094  66.7913666
  39.0783730  16.4879837  67.4482956  31.5650654  53.1560783  23.4179993
  31.2334137  52.7037582  24.1936588  30.7870293  53.5399628  23.0136223
  79.1700745  67.4070740  60.4360428  79.7553864  66.8330841  60.9301872
  79.3397827  68.2814102  60.7866936  72.6514359  17.4863548  18.6969681
  72.9281311  17.6634216  17.7979031  71.8598785  16.9562397  18.6039543
  55.9167976  46.8536644  85.1538925  56.5344963  47.0594063  84.4522171
  55.6509171  47.7068939  85.4967422  72.8584900  42.4659004   0.9578779
  72.3435364  43.2251129   1.2310927  73.3929825  42.2513351   1.7224095
  77.1892700  38.5810661  28.7583714  78.0456619  39.0023499  28.6852703
  77.3616104  37.7693138  29.2354317  60.6001205  59.7641907  73.8090134
  60.8257828  59.9791565  72.9039764  60.1323166  58.9313316  73.7478638
  67.4106216  13.5354881  58.6196136  67.2740402  13.1079645  57.7741547
  66.6740799  14.1410351  58.7035599   1.7335675  43.1181908  64.4490128
   2.4816811  43.4378967  63.9446907   1.7813696  43.5957069  65.2772217
  35.2885246  58.8535690  11.5431833  35.4120369  57.9312325  11.3189735
  34.3483658  58.9375877  11.7021551   6.2736831  21.8551655   7.4214258
   5.8736358  22.4632206   8.0430870   5.5339708  21.3858967   7.0356216
  36.2185936  39.1723366  75.7172775  35.9838753  39.2824631  76.6386948
  35.5876732  39.7138672  75.2430267  29.9510021  35.2768211   0.3895647
  30.5910645  35.9453850   0.1454850  29.1234055  35.7523994   0.4612677
   2.5152645  58.3668442  69.7414474   3.3981836  58.6184921  70.0122986
   2.2877347  58.9934425  69.0545425  84.4747314  53.8437386  21.5004177
  84.1482162  54.6120720  21.9686947  83.7858047  53.6376190  20.8686562
  69.4803619  36.2590256  74.0309525  70.3012466  36.0919571  74.4940643
  69.4588470  35.6005898  73.3365250  53.1614685  66.9062424  59.9315796
  53.3713417  66.6859894  59.0240173  52.2971268  66.5217819  60.0776215
  62.6131783  46.4280701  11.2037382  62.1410675  46.2220764  12.0105295
  63.0428581  47.2640991  11.3844671  57.5952606   1.9863555  89.1963577
  56.7035675   2.3240075  89.2806625  57.8557930   2.2179904  88.3048935
  53.8364296   6.1704679  49.4609489  54.4888000   6.0237069  50.1458588
  53.0438576   6.4220605  49.9350395  81.8672333  63.2973366  41.7709656
  82.0164185  63.7286491  40.9295692  82.5295715  62.6072388  41.8071251
  85.3177948  70.5687866  37.4628181  86.2575684  70.7071533  37.3448601
  85.2585526  69.8192749  38.0552330  31.7090836  47.8927498   6.5533619
  32.1877403  47.7615700   5.7348824  31.1773643  47.1026039   6.6491504
  41.4549446  28.9940014  83.3812943  41.9582214  29.1912613  82.5913391
  40.6225166  29.4493160  83.2548752  84.6498489  19.9681473  65.0953064
  85.0351028  19.2446423  64.6009827  83.8871918  20.2309704  64.5800400
  36.3226204  49.5997734  72.0706787  36.3921700  48.8947105  71.4270325
  37.2036629  49.9712868  72.1151123  80.7506561   1.3184415  24.1455002
  81.0608444   2.2239666  24.1514816  79.8888626   1.3632091  23.7313175
  79.9797516   1.8984163   5.2469387  80.9223022   1.8127104   5.1037936
  79.5896759   1.2358660   4.6767621  82.0280914  17.9600449  36.3617897
  81.9691238  17.4706039  37.1822777  82.4868469  17.3702621  35.7635155
  54.6402931   5.4504938  68.4391403  54.4193192   4.5191970  68.4485779
  55.3967476   5.5230794  69.0211563  64.5502319  22.7185326  63.4177132
  65.0536346  22.5923119  64.2220001  64.4016724  23.6631184  63.3738861
  74.2658539  36.2239037  83.3377609  73.5917664  36.7005577  82.8533707
  74.7790222  36.9070930  83.7692032  67.5620346  29.3639088  29.4355278
  68.3032684  29.0345097  29.9437580  66.8693848  28.7184219  29.5762863
  59.3808975  64.2154312  16.4203701  58.8658524  64.6212006  15.7230091
  59.8050957  63.4671440  16.0004292  54.8076782  50.0259628  14.9768333
  55.1216545  49.1351814  15.1322651  55.3348656  50.3410454  14.2426510
  80.4036560  23.8579426  23.4508247  79.7331543  23.4226227  23.9772758
  81.2308655  23.6093330  23.8633232  40.8547325   6.8229256  66.6920166
  41.2975044   6.9493647  67.5311813  40.0915680   7.3991156  66.7346725
  72.8965836  39.5634766  76.0687332  72.7650528  38.6728745  76.3939438
  73.1788406  40.0597572  76.8370209  40.9195023  11.9075136  81.6435623
  40.4003143  12.4143553  81.0192337  40.5915108  12.1762714  82.5017090
  59.2323418  12.3368378  84.5095291  59.9542427  11.7101679  84.4608154
  58.5697784  11.9856749  83.9146118  35.9982872   6.1559300  22.0754719
  36.1065903   7.0979209  21.9444923  36.8088722   5.7727494  21.7402744
  14.5277634  48.3672791  70.1225128  14.5213327  49.2755966  70.4244232
  14.2047911  47.8641319  70.8700180  39.6907082  18.4599323  88.2553635
  39.3887749  18.4851341  87.3473816  39.8035088  17.5284081  88.4444962
  34.6584129  58.0210304  48.3335419  34.4202538  57.0939789  48.3244362
  35.5321617  58.0400314  48.7239685  54.6567802  17.5226440  24.6311893
  54.0916519  17.1732960  23.9421177  54.7092476  16.8187523  25.2777309
  53.2535706  19.9707146  73.7366562  54.0212898  20.3054314  74.2001343
  53.2200546  20.4820900  72.9281998   8.5968103  44.0871391  48.2905045
   8.9220886  44.5800247  49.0438232   9.2988806  43.4689941  48.0874634
  66.0855408  52.4464035  32.6994972  65.9096527  51.5236549  32.5155716
  66.6633224  52.7262459  31.9895096   6.9704151  66.6666946  42.4931717
   7.6257668  66.5750198  41.8015518   6.4386721  67.4148560  42.2216263
  64.9216614   7.4871335  20.0515480  65.6205139   7.9914594  20.4680691
  65.0876770   6.5827632  20.3176041  61.9670525  63.8221703  50.2964096
  62.2571487  63.6131020  49.4085083  62.5602188  64.5157394  50.5851059
  73.8941193  63.8577271  58.7238350  73.0797195  63.6946030  59.1996231
  74.5197372  64.1150055  59.4010658   8.0307884  27.6700878  85.8546524
   7.8371124  27.2242432  86.6792374   8.7623625  28.2512550  86.0626831
  74.5147095  40.0141296  14.2387257  73.7230530  39.7661171  13.7612228
  74.6248550  39.3251991  14.8940697  16.1056957  61.1925545  25.7096424
  15.9588203  62.1336403  25.6147003  16.7683411  61.1216774  26.3967438
  72.7154160  16.3915482  32.8721313  73.0456467  15.7022038  32.2959480
  72.1865005  15.9280186  33.5214500  48.0004082   8.9909849  12.9622440
  47.4987526   8.2138538  13.2084961  47.5500832   9.7146959  13.3977652
  25.1628857   6.9787116  82.2267380  24.6357765   6.7380776  81.4648438
  25.4559002   7.8712506  82.0430298   4.2565112  67.7982178  83.7883148
   4.1411834  67.3768005  82.9366455   3.3879466  68.1348572  84.0085526
  13.8473167  53.1674271  82.2903748  13.8614359  53.5305786  83.1759033
  14.6591444  53.4794159  81.8905869  40.5557632  27.8863297  69.6356201
  41.2489815  27.3478031  69.2539597  39.9306831  27.2549610  69.9918289
   1.3151218  31.4404716  64.4551849   0.8256425  32.1443520  64.0295181
   0.9797356  31.4236031  65.3515472  36.1963921  54.9812164  76.9668350
  35.5536728  54.4290886  76.5215225  35.6784515  55.6866608  77.3545456
  46.1409035  36.0370636   7.1791215  45.6711960  36.6192398   7.7763453
  46.2174797  36.5380554   6.3671012   4.3807249  36.9153938   5.8339891
   3.5955062  36.4995728   6.1900191   5.0564995  36.2399330   5.8915720
  45.9391212  31.3762894  37.0248489  46.5046959  31.6759014  37.7366028
  46.3993874  30.6234264  36.6539230  44.5953293   4.8575144  24.0336533
  44.2910004   5.7510605  24.1923733  45.4145088   4.9657664  23.5504799
  80.8362503  16.7208824  44.0359344  81.2090378  16.8068428  44.9133606
  79.9298782  16.4522152  44.1860466  -0.0819886  60.8111458  66.3326797
   0.4883576  60.5159950  67.0424881   0.3502449  61.5921783  65.9871445
  10.4486828  39.4503403  12.9937572  10.2370987  38.8956680  13.7446270
   9.6929331  40.0309258  12.9043531  16.8266811  56.4672966  25.0102596
  17.1705112  56.8270912  24.1926041  16.3449955  57.1928978  25.4073849
  30.7474136   6.1345992  65.1889648  29.9074669   6.4556651  65.5170517
  30.5443573   5.2815809  64.8050919  57.4224319  67.5819855  70.9448318
  56.8912621  67.5558472  71.7406998  56.8503990  67.2289124  70.2633972
  63.0886765  56.9631653  59.3308296  63.3500023  56.1008186  59.6537819
  62.9500999  56.8355637  58.3923492  45.4096756  43.2307053  11.1411190
  44.7364883  43.1161652  10.4703484  45.2875824  42.4878426  11.7322874
  60.4537315  17.0083981  61.5658684  61.3904610  17.0037060  61.3690376
  60.1072655  17.7463074  61.0641861  52.7910385  26.2060204  79.0965881
  52.2316208  26.9344139  78.8269196  53.0336876  26.4118595  79.9993515
   2.6913126  36.4285736  52.7868919   2.9479775  36.7649994  51.9283066
   3.1176286  37.0155411  53.4113541  71.2548294  49.6012535  23.2394276
  70.5282135  50.0770264  23.6417980  71.3876419  48.8421059  23.8071289
  78.3576736   7.2948370  57.6593704  79.2772293   7.3538933  57.9185181
  78.1478806   8.1652184  57.3207626  34.8594666  23.8301029  81.8647842
  35.2483406  23.0932369  82.3359985  35.3655510  24.5908070  82.1501617
  61.9142303  62.8908615  47.6546936  62.3212967  62.9486580  46.7902908
  61.2913208  62.1681061  47.5782509  83.7234573  32.3395157   4.4638743
  84.4704819  31.8521938   4.1164551  83.9024124  33.2504845   4.2307639
   6.7765083  32.3767776  37.0297546   6.1609092  32.6221085  36.3390427
   6.3175335  32.5830727  37.8440132  30.0785084   0.4308347  74.2562561
  30.5135441  -0.2030525  74.8264847  29.9430943  -0.0401087  73.4339981
  86.6587753  71.1709137  27.2238159  85.8219757  70.7336273  27.3812408
  87.2852402  70.4559631  27.1115170  19.1606007  30.4985600  75.9036713
  18.5548973  30.5674057  75.1656952  20.0278645  30.4685001  75.4997177
  28.7937393   9.8768959  83.1275406  28.7550735   9.4419966  82.2757187
  28.0896358   9.4730206  83.6348419  50.1405258  39.1117020   1.3828796
  50.0482178  39.2682304   0.4430875  49.7121620  38.2681618   1.5284039
  15.1507778  61.0306664  64.4988556  14.6831522  61.2302666  63.6878548
  15.8114967  61.7195816  64.5701218  -0.0334226  15.2946415  28.5968800
  -0.3822366  14.5011120  28.1908379   0.5605130  14.9749508  29.2760506
  29.3693123  60.8723907  53.8095779  29.4766808  61.0178642  52.8696098
  28.4357224  61.0117378  53.9684067  11.2023020  12.2012901  12.6648445
  11.4731693  13.1192541  12.6505165  12.0075893  11.7113247  12.4984770
   8.2362595  31.7101955   7.4534292   8.0540066  31.4491138   6.5507379
   7.5384383  31.3023949   7.9662409  13.4373112  50.3508415  21.5017548
  13.2216167  49.4990501  21.8814430  14.3091879  50.2313614  21.1252079
  58.3877945  71.0802307  48.1415634  58.3161240  70.8696747  49.0725632
  57.7046776  71.7334900  47.9904633  29.1126461  52.8641167  86.2491989
  29.3305740  53.0270004  87.1669159  29.9159794  52.5051537  85.8723297
  68.3360901  69.3780975  73.5068817  69.0404205  69.9106598  73.8763809
  68.6206360  69.1921310  72.6120758  83.1943817  31.1405182  36.2929306
  83.3776169  32.0124397  36.6427994  82.3609467  30.8922424  36.6929016
  14.9379930  35.1919289  70.6614151  14.4527979  34.9521408  69.8719101
  14.9645967  36.1486168  70.6448898  84.4950409  21.1802998  19.2651196
  83.9279251  20.4582214  19.5357056  83.9971237  21.9691944  19.4794922
  35.4422646  43.9720001  80.9551544  35.9143562  44.6727638  80.5053864
  34.5415230  44.2902527  81.0152817  68.8364410  38.5939522  33.0880013
  68.0648880  39.1472015  32.9660988  69.1440506  38.4128532  32.1998482
  12.1554546  15.2916174  10.0729742  11.2027044  15.2014589  10.0537252
  12.3057365  16.1739292  10.4123440  24.5493393   0.1652115  73.8054962
  24.5523338   0.6837304  73.0009079  25.3627872   0.4061702  74.2487488
  36.8443604  55.5903969  45.9544182  37.3129387  54.7565994  45.9924316
  36.8750572  55.9234924  46.8512688  37.5326843  41.2384682  65.1828384
  36.5965462  41.0988960  65.0400085  37.9464417  40.9314156  64.3761444
  46.1087570  30.3985653   4.3413086  46.1335449  29.7501488   3.6376224
  46.9170990  30.2504234   4.8320894  45.9879112  59.4762955   6.4246407
  45.3660812  58.8097267   6.7166047  46.1230774  59.2874069   5.4960489
  66.5421600   0.1531406  66.4371109  67.0928726   0.2514238  67.2138290
  65.8042297  -0.3801129  66.7326355  18.8388062  35.8979149  66.7116699
  18.3378429  36.5393677  66.2078781  18.8704109  36.2605057  67.5969772
  57.7272911  12.2467241  23.1377506  56.9591446  12.5493412  22.6533871
  58.1356087  11.6015663  22.5604477  76.2995224  10.8897591  84.3529663
  75.8253174  11.4878998  84.9305420  76.8595352  11.4595423  83.8257446
  47.8626213   8.7494888  45.4884949  48.5307922   8.8803968  46.1612854
  47.8585777   7.8045869  45.3356056  25.7459202   5.6689773  22.0338230
  25.7245731   4.8067617  21.6186600  26.4922066   5.6284399  22.6318569
   3.7203190  50.7406082  10.3537617   4.6613150  50.5736008  10.4073067
   3.3165321  49.9595451  10.7320833  17.5996685  22.0151558  82.0433044
  17.3718929  21.3698387  82.7125702  17.3687382  22.8576794  82.4345245
  16.2310524  15.1482410  10.5116558  15.4666862  14.5973101  10.3429766
  16.2607403  15.7507315   9.7684488  77.6394501  49.1666641  56.6417885
  77.5693588  48.4223137  56.0440750  76.7656021  49.5573311  56.6413155
  86.5826340  63.9521675  67.5435257  86.8655853  64.7777481  67.9367065
  86.5534821  63.3359184  68.2753906  12.8864975  58.4887962  82.4416580
  12.7918940  58.3594742  81.4979630  13.7746010  58.1896057  82.6365662
  59.8957977  45.0125046  38.8023148  60.3977013  45.1427841  37.9977341
  60.3908958  44.3538666  39.2894592  40.2753448   2.7238317  83.9626007
  40.7349548   3.5461409  83.7929001  39.6738701   2.6287990  83.2240753
  13.5713158  12.5406494   6.9025869  14.0709887  11.8142815   7.2753453
  12.7254906  12.5036068   7.3491745  23.8815784  58.4034653  66.1738815
  24.5045681  59.0574913  65.8570862  23.9106827  58.4868736  67.1269989
   0.4689994   7.0284739  10.7008162  -0.2591957   7.6496816  10.7088795
   0.9182405   7.1967802   9.8725128  10.1376896  40.0222015  49.2423630
  11.0330791  39.9851952  49.5787239   9.6080742  39.6107559  49.9253349
  54.1337318  20.5584373   4.1801200  54.5651474  20.8429947   3.3744285
  54.1289558  19.6028595   4.1246195  48.2960968   6.7621856  38.9438820
  47.6932755   7.4748545  39.1558800  48.4434814   6.3169422  39.7783089
  64.5560837  32.9299583  55.8139000  64.7141113  33.4320145  56.6133995
  65.2745819  32.2983246  55.7817650  15.4970131  40.7520676  14.5185432
  16.1225662  40.2177162  15.0078135  14.9200029  41.1189499  15.1883860
  45.7185974   2.5172527  25.6880589  46.1770058   1.9439958  25.0736713
  45.6920815   3.3671212  25.2484531  42.6085587  46.2821922   1.9321382
  43.2334633  46.6988220   1.3387220  41.8185883  46.8182907   1.8629788
  71.9505692  66.7366409  11.1937332  71.1253510  67.0404968  11.5717764
  72.5582428  67.4636612  11.3293972  46.9962997  38.6797028  58.4517403
  47.1040726  38.6440849  59.4021873  46.3310852  38.0183372  58.2611732
  29.4747505  17.6444626  86.8560791  29.6072693  16.7874489  87.2612991
  30.3591595  17.9842548  86.7197266  34.6909561  56.0722847  73.0575409
  35.2775803  56.7821312  72.7963409  33.8839111  56.2368088  72.5698471
  38.3611641   2.9521577  76.1074524  38.2245064   2.9910831  75.1608582
  37.5142288   2.6798880  76.4607162  24.6794853  48.7984619  43.9945297
  24.8894787  48.9393044  43.0713272  23.9799976  48.1451340  43.9840851
  33.9056168  65.2784500  51.1505737  34.3413353  64.7116470  50.5140839
  33.9886513  64.8124771  51.9825630  82.3816757  14.4545174  69.7536469
  82.5135117  14.9925976  70.5342331  82.9510880  14.8480587  69.0924911
  39.8116264  62.6992188  21.5634804  39.3294144  62.2128983  20.8947525
  39.3245697  62.5414543  22.3722553  56.5938454  60.1587830  33.2666130
  57.3323822  60.1882477  32.6583977  56.7191162  60.9205132  33.8325691
  30.4317093  30.8411369  86.2647476  31.1640491  31.1679077  85.7421265
  29.7130508  30.7495956  85.6391373  77.8260345  40.9967918  51.1419907
  78.3645782  41.4082108  51.8179588  77.7786636  41.6494102  50.4433670
  58.7000237  69.0107574  67.8449631  58.8185349  69.9484177  67.6933975
  59.0594673  68.5942078  67.0616913  53.2766876   2.1550925  65.1430130
  52.8109665   2.1115232  65.9781418  52.5974884   2.0181446  64.4825821
  10.5817184  53.2295532   2.2625682  10.2615547  53.7313957   1.5129806
  11.4612646  53.5719337   2.4219651  27.3247871   1.5374286  21.0813522
  26.6558819   0.8535792  21.1152420  26.8938465   2.2725966  20.6454029
  59.6655388   1.6746175   2.3896773  58.8066902   1.4956027   2.0068340
  59.6101723   2.5823691   2.6882627  58.6156349  24.6061611  47.7368202
  59.4079552  24.2930412  47.3004532  58.1440849  23.8088818  47.9780998
  51.2530403  12.4733067  70.2605896  51.9933968  12.7768669  69.7352753
  51.1011086  13.1781244  70.8901749  45.3321304  22.8551025  22.1444187
  46.0934143  23.4316692  22.0792332  44.7375183  23.1653728  21.4614830
  28.5662270  38.9582443  79.8454285  27.9876270  39.6820221  79.6054306
  29.2180443  38.9303093  79.1450043  18.5117378  64.3325272  36.2410088
  18.5266533  65.2755966  36.4041748  18.5438328  64.2538681  35.2875862
  69.0193634  61.7386703  59.1286011  68.6131821  61.9316521  59.9735909
  69.6952744  62.4090996  59.0290680  82.3485184  19.6291294  79.4003296
  82.4081573  20.1667690  80.1900253  81.5367889  19.1335678  79.5087051
  33.2100372  46.0638542  40.0231209  33.5277290  45.2286034  39.6801033
  33.6809616  46.7255135  39.5164986  12.7360706  42.5152206  28.5266838
  12.0158033  42.6048279  27.9026508  13.5266638  42.5976219  27.9933872
  59.2223396  37.8598671  63.9904709  59.9142952  38.5106621  63.8725929
  59.2738457  37.6204338  64.9158096  70.0772400  26.6355629  38.0776291
  70.2780914  26.3883190  38.9802704  70.0581436  25.8058968  37.6006355
  16.4319782  53.5399323   2.8853190  15.7153807  53.0189362   2.5229883
  17.0240421  53.6795998   2.1462762  66.7071533  21.5603085  15.9038982
  65.9869614  22.0637398  16.2835197  67.0771637  21.0771217  16.6427155
   1.6524413   0.6640062  54.2466621   2.0915661   1.2754779  54.8378487
   0.9318635   1.1698078  53.8709450  55.0671921  54.6798935  75.9767227
  54.3963127  55.3480911  75.8364944  54.8804474  54.3323174  76.8488159
  33.5282593  14.9007740  65.8195724  33.6142693  15.8244610  65.5837021
  32.6813431  14.8444262  66.2620544  73.2918625  19.8765354  44.4002953
  72.8829575  19.7160492  43.5498390  72.7491531  19.3919067  45.0222588
  54.9016113  14.3926058  52.5919800  54.6508675  14.9806299  53.3044319
  54.2526360  13.6896381  52.6219826   4.2990546  61.3882217  64.8975601
   4.5167456  60.8149605  64.1625671   5.1467795  61.6433945  65.2615433
  33.1621246  36.3845596  14.0975618  32.3913269  36.8322105  14.4464388
  33.6441841  37.0667419  13.6301460  25.8590870  58.6254730  46.1822968
  25.9335136  58.8602066  45.2573128  25.1235085  58.0138893  46.2157631
  60.7532158  22.2509346   2.2118859  59.9901619  22.8168201   2.0946229
  61.2426872  22.3362770   1.3937378  77.7299423   9.1139975  76.4510498
  77.2109451   8.4758320  75.9615402  78.3293991   9.4831905  75.8025208
  33.2850685  47.0796585  76.0579910  33.3770638  47.2949333  75.1298599
  32.3735809  47.2879944  76.2629776  43.4186974  38.2923279  25.9811916
  43.4581566  38.7790642  26.8044529  43.7892036  37.4352150  26.1917057
  39.7639847  48.2223511  31.0395794  40.4236259  47.9225121  30.4141178
  39.6328773  47.4767151  31.6253014  82.4446716   0.4803277  37.5800552
  81.5777664   0.2388904  37.2538452  82.9799881  -0.3003840  37.4380722
  59.4596596   4.3901625  53.5999413  58.5827675   4.3842039  53.2161903
  59.5446472   5.2602978  53.9896507  65.5017242  39.4510880  42.5115738
  64.7382889  39.4173508  41.9351616  65.1663971  39.8118362  43.3323326
  12.9082327  52.3560066   9.9385366  12.2113171  51.7254372  10.1199799
  13.5112457  51.8871346   9.3616781  69.5038910  12.4860744  39.3088646
  70.1925888  12.6757364  38.6717186  68.8663101  11.9623652  38.8236313
  31.0489750  67.2419052  56.7018661  31.8852119  67.5174026  56.3263130
  31.0396671  67.6304398  57.5766144  82.0944290  33.2802620  27.5820198
  81.4300690  33.6490059  28.1641541  82.3744965  32.4752998  28.0177116
  49.5030746  65.2435684  40.2432632  49.2187920  64.3667755  39.9850960
  48.7774010  65.8145752  39.9911041  35.9313087   1.8847522  67.4969025
  36.1034775   1.0710894  67.9707642  35.7454643   1.6051532  66.6005096
  86.0840607  41.4676666  41.5772095  86.6649323  42.2209320  41.4704132
  85.2554855  41.7470436  41.1877823  24.1256199  62.2649460  72.5581512
  24.1708145  63.1802330  72.8346252  23.7861767  61.8001900  73.3230133
  56.0817413  32.8789215  17.5527611  56.1534348  33.3934517  16.7488022
  56.7727280  33.2222214  18.1192532   6.5023165  46.2462158  15.7841597
   6.5351119  47.1079063  16.1996651   5.8324218  46.3326912  15.1059303
  75.2357254  11.5320196  58.9220428  74.4323196  11.3883152  58.4219131
  75.0439835  12.2932768  59.4697227  55.9193497  28.8049164   3.4905307
  55.9304924  28.0277519   4.0492110  56.4125748  29.4609985   3.9829907
  74.5671005  25.6513500   4.8645973  75.1250000  25.1376820   5.4486556
  73.6751099  25.4527702   5.1494617   9.9855213  24.3120899  29.6284084
   9.1074982  24.0665627  29.9199944  10.4877462  24.4104881  30.4373093
  30.8595791  21.4001770  65.7090225  30.4518566  22.1582184  66.1277847
  30.6224213  21.4805546  64.7851562   4.7529583  68.6668777  61.1460609
   5.1711726  67.9460449  61.6169434   3.8738902  68.3447495  60.9468040
  38.7781906  59.6382408  56.3567810  39.2972641  59.2145767  55.6731873
  39.1922760  60.4928360  56.4769402  43.4555321  49.0148888  35.3783798
  44.3656425  49.2898560  35.2673912  43.4096985  48.6967468  36.2799988
  10.7652674   7.0101995  56.9591179  10.9034653   6.6050510  57.8152657
  11.2402134   6.4468908  56.3481026  53.6331062  36.4843292  14.8182917
  53.2023277  36.0560303  15.5580359  54.4539986  36.0044136  14.7085466
  10.5577192  45.4954300   6.0513215  11.0373764  44.9656448   5.4145432
  10.5821829  46.3822708   5.6919498   2.3282275   0.5824430  50.9967499
   2.4638767  -0.3110465  50.6813049   2.0743387   0.4767928  51.9136009
   6.7848463  43.8280029  16.9197140   6.8880558  44.7360458  16.6350498
   7.4250712  43.7234077  17.6235619  11.4344263  60.2987213  53.1674728
  10.8877754  59.5993538  52.8092918  11.0468550  61.1044807  52.8257561
  66.0838623  44.1201019  37.1906586  66.4137421  45.0017891  37.3639526
  66.6155167  43.5516472  37.7478256  34.6604767  53.4932098  61.0460167
  34.4795761  53.7523041  60.1424828  34.0012360  53.9549255  61.5641403
   2.1043136  68.5069580  58.3917809   2.1077063  69.3981094  58.7411575
   2.0187283  67.9474030  59.1636696   4.5673385  52.2393723  63.2669830
   5.1648049  51.5360374  63.5211220   5.1388831  52.9858131  63.0869942
  27.2743988   0.5414101  36.4623260  27.0763931  -0.3727726  36.2591133
  26.8256702   1.0410095  35.7802162  14.6316986  19.6381359  13.6632919
  14.9653721  19.0820618  12.9592495  13.8504705  20.0496006  13.2936840
  78.0059662  69.7517853   6.7995067  77.8445053  68.8149033   6.9109349
  78.6386185  69.9689026   7.4842305  31.8422031   7.9778142  87.1256332
  32.3260117   8.7131386  87.5017395  31.0832958   7.8719363  87.6992874
  19.3265934  41.2284164  49.7070389  18.8716183  41.8910408  49.1872749
  19.0548096  41.4026527  50.6081543  36.0775986  32.8616333  66.4120865
  35.1987343  32.5253372  66.2367554  36.0325890  33.7868118  66.1707458
  54.3266907  18.3309116  14.6058025  54.2634583  17.4656563  15.0102396
  55.0399437  18.2479019  13.9728622  22.8930550  38.3906860  76.1683121
  22.8079033  37.4556007  75.9823151  23.8374310  38.5431137  76.2022476
  66.6669617  32.9873466  76.8015594  65.9436646  32.4838905  76.4279251
  66.9358978  32.4853668  77.5709229  62.0580597  60.1046829  26.9933319
  61.3778343  59.8978157  27.6342163  61.5787659  60.4354477  26.2336559
  70.0044174   3.4756663  10.3876820  70.6658325   4.1304636  10.1640654
  69.9282532   2.9341772   9.6020479  46.6421432  69.0631332  14.3837442
  46.8616829  68.1846619  14.0733891  46.8771935  69.6396942  13.6567268
  55.8954506  13.5135660  86.5589066  55.7727356  12.7223463  86.0343628
  55.6512032  13.2525387  87.4468460  32.5852203  18.8617592  88.8198471
  32.3464737  19.4970284  89.4948730  32.3162689  19.2727757  87.9982834
  77.7781143  13.1153994  69.8573914  77.9748764  12.9732704  68.9314804
  76.8923035  12.7704992  69.9696960  50.1513672  51.0029335  50.3036957
  50.1516876  50.0493317  50.2207985  50.1656036  51.3218002  49.4012833
  37.6798897  22.2429466   4.4320674  38.3551598  21.6398258   4.1214461
  37.3651352  22.6785965   3.6400006  12.2432127  47.3266754  35.9405785
  12.6943378  47.9540672  36.5054665  12.1426973  46.5447426  36.4834480
  34.8781586  34.3339424  63.6950912  34.5425987  34.5354118  62.8215675
  34.8890877  33.3775444  63.7327652  51.1333809  29.9812927  27.2722435
  50.4021225  29.6316891  26.7630577  51.8598747  29.3859234  27.0879250
  14.8908262  41.1331444  79.9688568  14.1301003  41.4899712  80.4273376
  14.8491554  41.5234947  79.0958633  62.6796913  25.3278103  56.7777748
  62.2381477  25.3594265  55.9290886  62.1908302  25.9423294  57.3251419
  25.4517326   6.1374240  17.4479942  25.3105087   5.1991978  17.3214283
  26.3627987   6.2061400  17.7334213  37.1225510  44.6400566  60.5409088
  37.9503555  44.5955887  60.0623703  37.1717567  43.9219170  61.1718483
  68.1240082  14.3727484   9.5629406  68.1989441  14.2177477   8.6213512
  67.1949005  14.2439032   9.7536888  53.1688538  22.5113602  84.7354965
  53.6519623  21.7886868  85.1362228  52.6722298  22.1033020  84.0262146
  30.4434814  52.1759949  25.8567867  29.9090843  52.8577309  26.2640781
  30.4739952  51.4747849  26.5076370  11.5132904  34.2680664  40.1042290
  11.0084114  34.4996719  39.3246880  10.9529486  34.5233574  40.8370857
  60.0391312  62.6256065  85.3272018  59.8918495  61.8196640  84.8322296
  59.2839203  63.1757622  85.1193008  23.4640732  36.3109398   4.9096704
  22.8192844  36.3309593   4.2025070  23.0422382  36.7767601   5.6316810
  54.9743767  28.0894394  75.6721497  54.6784592  27.3301945  75.1699448
  54.9004250  27.8155289  76.5863342  17.3442822  49.4935417  73.3955078
  17.0227013  49.3619308  74.2874146  18.2093143  49.8874817  73.5084839
  81.1205215  58.5270119  47.9958000  81.7585983  58.2866020  47.3240128
  81.6318893  58.5820541  48.8030815  69.4737625   9.0037603  53.3723717
  69.5644302   8.1979389  52.8637848  68.8558807   9.5354319  52.8705978
  70.4059906  52.1592026  78.9691925  70.3292923  53.0909805  78.7639008
  70.9598694  51.8054237  78.2732773  61.2848434   8.8259239  49.3209305
  60.8984756   8.1393633  49.8646088  62.2137527   8.5997849  49.2738075
  74.5008926  28.8616257  23.6332874  74.2920990  28.9780560  22.7064209
  75.3028107  29.3677788  23.7635746  33.5308571  43.2648506  61.2034988
  33.5827675  42.7205162  61.9891434  33.2016029  44.1071777  61.5170441
  43.8787842  58.9891205  36.6017151  43.3690376  58.5760498  35.9047470
  44.7284546  58.5494995  36.5697746  40.4134789  37.8556709  64.8557205
  40.4085350  36.9866104  65.2568970  41.2274094  37.8826485  64.3527145
  28.6111698  49.7757835  48.3678246  29.0354824  50.2154655  49.1046219
  28.9622116  50.2143440  47.5927963  74.5706406  49.6416283  32.5772057
  74.9669724  50.4909134  32.7718010  74.0533447  49.7942772  31.7864227
  42.7276802  10.8165922  64.7598038  42.9717636  11.6885805  64.4494934
  42.7743950  10.2631702  63.9802017   2.8790369  11.7127619  75.8975449
   3.4341915  11.0520391  76.3116455   3.1259189  11.6877737  74.9730682
  60.8260612   2.0022058  40.3337860  61.7675285   1.8576854  40.2389755
  60.6318970   1.7344259  41.2320213  19.9290314  34.5392380  26.8386650
  20.1448593  35.3390884  27.3181286  19.7788239  34.8319626  25.9397869
  67.3825073  15.5538177  85.0578690  68.0221252  16.2614174  85.1380463
  66.6440506  15.8361874  85.5974731  22.3140430  58.0008621  20.7419758
  21.5660534  57.5038033  21.0731487  23.0181351  57.8168373  21.3637638
  38.4156837  11.8889847  70.5115051  38.0876656  11.8172197  71.4078827
  38.4708252  10.9843731  70.2034988   4.4958053  31.5834503  59.1102791
   4.3092980  32.4512138  58.7518959   5.3541207  31.6746197  59.5240593
  85.9116516  50.1494942  86.6084061  86.5258942  49.9666481  85.8974152
  86.3798447  49.8902321  87.4020157  13.2366419   6.5420618  43.9493828
  14.0743580   6.1918936  43.6463203  12.9642496   7.1443210  43.2570534
  59.3709984   9.1780367  64.1031342  59.7089348   9.9280863  64.5924759
  59.7541275   9.2689571  63.2306824   9.3748932  48.2168083  22.5600090
   8.5583954  48.0442047  23.0288067   9.6758709  49.0575333  22.9047165
  53.4419365  42.6097183  15.5584135  52.4902458  42.5601120  15.4686594
  53.5822601  43.2005539  16.2983131  52.8779068  61.1526909  20.4217796
  53.5230179  60.8584747  19.7787361  53.3364105  61.8193092  20.9332771
   8.0762148  29.0141811  67.1071320   8.5396872  28.1971474  66.9230652
   7.4031219  28.7698593  67.7423325  52.8369179  58.2212143  24.1744900
  52.4822426  58.7628174  24.8795433  53.3984795  58.8147392  23.6758823
   7.7426581  66.2709808  76.6890106   8.4766388  65.9663315  77.2225723
   6.9818716  66.2004318  77.2656021  75.0037994  65.8549500  17.5800037
  74.9396439  64.9048004  17.4834576  74.0952301  66.1535492  17.6197891
   1.9360741   8.0325251  18.4411697   2.1556957   7.1671720  18.0959721
   1.3212383   7.8572412  19.1535492  48.0563889   3.7542810  23.9787579
  47.3584480   4.1225290  23.4370003  48.8541565   3.8926072  23.4682007
  65.7785568  37.5600204  34.8899193  64.9912186  37.8364449  34.4209595
  65.9885178  36.7022285  34.5206680  85.2660828   3.3852708  34.1675873
  84.3416138   3.6291664  34.1217003  85.4245224   2.8941665  33.3613930
  33.6734467  46.0368347  84.5742111  33.9594994  45.5240593  85.3301620
  34.4227943  46.0241432  83.9787674  22.7350521  57.6705818  74.7079391
  22.0595589  58.3447685  74.7814789  23.0611191  57.5598106  75.6010513
  24.8463440  37.8218994  81.9762726  25.7348747  37.6125183  81.6883392
  24.6552944  37.1737709  82.6542587  43.6473923  67.5871658   1.6517822
  42.9880447  67.5566788   2.3450077  43.1889153  67.9657440   0.9016415
  48.2889900  38.7348480  85.4300308  47.7916870  37.9169731  85.4280319
  47.6662369  39.3945694  85.1247787  17.2422829  55.6132774  11.4664993
  18.0835667  55.5479126  11.0146151  17.0818119  56.5541420  11.5389957
  60.0240364  45.5052872  27.5957813  60.9316025  45.6656303  27.3372440
  59.7360649  46.3314590  27.9840412  66.4425812  44.5428276   4.4623246
  66.6595001  45.4749718   4.4454603  65.5996017  44.5012169   4.9138684
  27.2207451  42.9201736  83.7728424  26.6348267  43.0538025  84.5178757
  26.9430122  43.5724602  83.1297073  68.0071487  46.8150330  71.8697891
  67.8514557  47.5402946  72.4747543  68.0591583  46.0416412  72.4313812
  16.6993694  69.7177124   5.6713777  17.0329971  68.8556595   5.9199343
  17.4732914  70.1986237   5.3781157  32.4855728  70.7273636  28.3447990
  31.8437099  70.9085999  29.0313835  32.0905838  71.0816269  27.5481110
  86.5881424  10.5337143  74.3604431  87.2867508  11.1862850  74.4086609
  85.9958267  10.8663244  73.6860809  46.5972366   0.5056804   8.2034502
  47.4097061   0.2556624   7.7634311  46.8084602   1.3266442   8.6480122
  31.1160011  28.6960678  88.6129074  31.0719490  29.6449203  88.7311096
  30.2196693  28.3944283  88.7606735  60.9825096  56.9872665  25.3055172
  60.7825699  57.3965187  26.1474018  60.2009468  57.1386108  24.7740192
  35.3981514  34.9317589  59.2915688  34.8142471  34.4438057  58.7108917
  35.9421730  34.2604637  59.7034416  80.4659576   7.2036848  46.9447746
  79.9910812   8.0074844  46.7335129  79.7849121   6.5348692  47.0161438
  49.1036072  29.7075748  67.2660141  49.2040176  30.2671356  68.0361023
  49.0049438  28.8247795  67.6226196   6.0135975  61.5249062  58.6811867
   5.3033624  60.9250565  58.9091721   6.7213411  60.9548607  58.3805580
  22.4938698  28.9409447  55.7616692  23.0641804  29.5870342  56.1782570
  21.9851017  29.4447880  55.1264267  21.7771931  48.0566788  32.4724236
  21.6207561  48.7370720  33.1272659  21.1671219  48.2614479  31.7638226
   0.6581448  48.5114441   7.2835202   1.2447149  49.0505447   6.7529192
  -0.1598605  48.4875259   6.7870049  83.3581390  39.3638153  87.9597702
  83.3852539  40.2228088  87.5383072  82.4662857  39.2919426  88.2998810
  32.1364784   6.2410107  34.0465126  32.5674706   6.8747430  33.4730492
  31.2813358   6.0948219  33.6420479  61.6130028  43.8905792  62.1425591
  61.9389000  43.0467415  61.8295746  61.4274521  43.7464333  63.0704765
  85.2285690  52.6102638  47.8241425  84.4404373  52.4805222  48.3516350
  85.6494827  53.3796654  48.2076569  42.2744637  18.3214951  67.4698639
  42.7268028  17.4830055  67.3773651  41.3459778  18.1027985  67.3903580
  34.5330658  44.3861885  86.6817856  34.1100769  43.5327721  86.5869293
  34.7578659  44.4401703  87.6106415  72.4548492  29.0548210  17.3366585
  72.2555923  28.6984291  16.4709148  73.2537003  29.5659962  17.2071819
  74.7205811  41.8031883   2.9388576  74.5428085  41.1645317   3.6293249
  75.4475174  41.4249611   2.4441447  81.4184189  52.5034828  48.5633392
  81.3280945  52.8757515  49.4405479  80.8944702  51.7027855  48.5878410
  17.0111008  53.0570374  53.4787865  16.7589893  53.2918091  52.5857277
  17.7772083  52.4933853  53.3710518  85.9258804  70.2715073  24.3458023
  85.9771042  69.4204025  23.9108009  86.8327026  70.5754089  24.3850307
  61.8587418  59.3727455  49.6396523  62.5135612  59.7742615  49.0684891
  62.2940903  59.2999954  50.4890099  15.7974997  17.0064774  26.9240093
  16.3932343  17.4194088  26.2988548  15.3565168  16.3231754  26.4191666
   0.2808509  30.7015877  67.1721344   0.5472219  30.8306694  68.0824203
  -0.5779385  30.2829552  67.2309494  69.6678543  21.3215656  45.0761719
  70.3970032  21.9279747  45.2059174  69.2389908  21.6299648  44.2779236
   0.6658645  59.2202835  72.0768967   1.4153363  58.8461342  71.6137238
   0.3687375  58.5194435  72.6572189  35.1755486   7.7340541  80.9742279
  35.5693092   7.9602237  81.8168640  34.6667862   8.5078821  80.7322006
  85.1751251  37.9457016  55.2390404  84.7006454  38.2304268  56.0200882
  85.5781326  38.7446098  54.8990974  54.2583084  68.1341553  62.0155525
  53.7862282  67.5703583  61.4027672  54.3676033  68.9605865  61.5451279
  28.1570168  46.8521881  20.2387581  28.2736454  47.0446320  21.1691322
  28.0352135  47.7092667  19.8303280  24.6878357  39.3261032  79.4041901
  24.3645649  38.6353683  79.9826431  25.3618107  39.7721100  79.9170914
   1.5682876  47.1854210  65.6103363   1.9849706  46.5640755  66.2074432
   1.9599755  46.9974213  64.7574158  73.6630630  54.5626106   8.0719433
  73.4011841  55.4832306   8.0613508  74.5306854  54.5557327   7.6676998
   9.1674795  71.4619904   3.0512283   9.7089472  71.6253052   3.8234806
   8.4785633  70.8744049   3.3616529  58.7889938   6.1392212  58.3844070
  58.2865868   5.3348184  58.2549744  59.3780136   5.9392772  59.1119461
  45.9535027  44.2571869  24.1751118  45.0096245  44.3087692  24.0245667
  46.2369003  45.1695900  24.2337894  48.0438576  65.9260483   9.7578812
  47.6090240  65.2840652  10.3191423  48.9701500  65.8581848   9.9894266
  86.5032425   5.5506763  79.1295013  85.6976013   5.2486095  79.5489426
  87.1712570   4.9288759  79.4182053  64.1660614  42.4342422  58.6643028
  64.3482132  43.1692009  59.2498703  65.0270691  42.1614571  58.3473244
  82.8231049  60.4098511  41.0839806  82.6449738  61.0004463  40.3520660
  82.8544235  59.5393410  40.6871681  79.9340744  22.2887688  38.2262535
  79.0615387  22.6041431  37.9907608  79.7904205  21.3935680  38.5331917
  47.6130219  67.7453003  54.1473198  46.8811493  68.3562088  54.0613556
  47.3863907  67.0171204  53.5688553  49.6978264   2.4243639   5.1679010
  49.0071983   2.2470343   4.5292940  49.3860245   3.1891623   5.6517339
  55.1041451  53.2419586  15.8957357  54.8311424  53.8164749  16.6110191
  54.3288231  52.7148628  15.7026653  71.8521118  59.8457718  63.3696365
  72.0587692  59.6690178  62.4518738  70.9087677  59.6974869  63.4355850
   0.6214036  12.3237972  55.7938156   1.5406091  12.5896120  55.8190308
   0.5902993  11.6315079  55.1335144  44.8030128  15.2343102  65.4404831
  45.6343918  15.7067451  65.4834900  44.9830208  14.3939095  65.8618622
   5.6785831  53.6342697  72.5333099   5.3166490  54.4589806  72.2091370
   5.2816882  53.5216064  73.3970337  51.1048393   5.9603729  59.0849495
  50.5630379   6.6040545  59.5414047  51.5658264   6.4665885  58.4160156
   8.7326069  38.1144485  71.4563522   9.2816334  37.4266510  71.8328323
   9.1891651  38.9284897  71.6687775  17.7416458  18.6393204  17.4271164
  17.7243118  18.3751717  18.3469849  17.0366478  18.1358490  17.0200214
  53.2971916  48.5257912  27.7962055  53.7260056  48.8113518  26.9894829
  53.5994873  47.6264343  27.9227276   9.4398994  49.5771065   2.4660735
   9.7981653  50.4394951   2.2559290   8.8083611  49.7441101   3.1657164
  11.6166534  39.8316841   3.0350218  11.2228317  40.3952522   3.7009993
  10.8708220  39.4634514   2.5613434  20.3285313  63.4868927  23.7737312
  20.0598640  64.2337341  24.3087864  19.5092812  63.1337242  23.4268417
   8.3758688  65.2738113   3.2646546   8.9880857  65.5930862   3.9275942
   8.9143915  65.1439972   2.4840319  66.7634277  67.0080719  73.5690155
  66.7044601  67.9624100  73.6135864  67.4874802  66.8407593  72.9656982
  23.6709785  69.1154861  22.5388088  23.6076565  68.9675674  23.4823875
  22.9381084  68.6228485  22.1694279  24.2889481  23.8734455  80.1818008
  25.1206226  23.4591675  80.4118500  24.2621880  23.8420753  79.2254868
  44.1412010  37.5421333  80.3583527  44.6193199  37.5075111  81.1868668
  44.0757904  36.6282730  80.0811920  14.4761171  45.6222610  41.8409843
  15.0093517  45.9172897  42.5791245  15.0712891  45.6442719  41.0916405
  85.2255630  44.4583626   9.4418907  84.9672546  44.2230225  10.3330278
  85.8371582  43.7701263   9.1801434  32.5507965  32.1606140  75.2771912
  32.5008011  32.8189392  74.5841217  31.6967182  32.2005501  75.7075272
  72.0134430  47.4737129  53.7048035  72.5218811  47.4962463  52.8941193
  72.3498611  46.7123528  54.1774368  23.6468754  68.3729935  61.3793449
  24.3330421  68.3305054  60.7133102  23.2353210  67.5091400  61.3546791
  50.1144218  20.4053364  16.9274883  49.5536919  21.0411148  16.4829712
  50.9011345  20.3587437  16.3842144  38.8996964   9.6778078  76.0791321
  38.7491417   8.7325315  76.0751190  38.2381630  10.0231571  76.6785812
  40.9037437  39.8657684  24.8999634  40.9172058  38.9238205  24.7302914
  39.9760895  40.1004181  24.8748722  47.7725220  46.6047134  40.5991211
  48.2080498  47.1351852  41.2663116  47.9129181  45.7011833  40.8822327
  41.5342789  49.2186050  43.9081612  41.9281158  50.0809364  44.0404854
  40.9649239  49.0962029  44.6678200  80.2072830  39.2961578  65.5963364
  80.6574478  40.1337852  65.7057114  79.8563690  39.3272591  64.7063217
  85.0174103  24.6400528  67.3540497  84.3183060  25.0001278  66.8083115
  84.8989792  25.0626774  68.2046967  24.5888615  46.2210732  87.5258942
  25.4117546  46.2150421  87.0369797  23.9241047  46.4410400  86.8732529
  57.1367531  29.3885822  68.1928177  57.8463478  29.1396446  68.7850494
  56.4316444  29.6776314  68.7720413  81.6241302  38.1149521  17.6149406
  81.8054199  37.2780266  18.0426350  80.6692734  38.1819191  17.6146927
  83.9552383  62.3105774  23.8214989  83.6945877  62.2111588  22.9058533
  84.5352936  63.0719986  23.8240852  28.9058151  34.3869514  70.5078278
  29.3794537  33.6647377  70.0951538  28.0115738  34.3076973  70.1757431
  75.5456467  56.0726013  10.9140224  75.0841522  56.3180695  10.1121454
  75.1404419  55.2473564  11.1805048  72.3475876  43.4980927  87.3953705
  71.8899384  42.7589722  86.9947586  72.5365372  43.2076492  88.2876511
   7.0916653  25.8376617  64.7599030   6.3433046  26.3148994  65.1182785
   7.7856507  26.4937763  64.6956406  73.0455933   0.6157913   0.9099192
  73.7847595   0.6002975   1.5178939  73.1155548  -0.2075692   0.4267891
  10.3025656  71.1893311  57.9321442  11.0639133  71.0040131  57.3823814
  10.0833864  70.3466263  58.3296890   8.7981405   0.8554589  13.6974344
   9.0043764   0.1073240  14.2577848   8.6468477   0.4728608  12.8331652
  33.8819351   7.1261959  77.6598740  34.2557602   7.3953776  78.4989319
  34.2540092   6.2590556  77.4990540   7.3479462  39.3835754  41.9152069
   6.9039245  40.2130356  42.0914841   6.6622834  38.7214661  42.0030289
  76.2089310  68.8934631  80.5096664  76.2672195  69.7629242  80.9057236
  75.4366913  68.9383774  79.9458694   7.9524946   7.3187346  28.3367882
   8.3297272   7.2996387  27.4572639   8.1277056   6.4471297  28.6915245
  75.5328979  48.9968071  24.2569256  75.3182526  49.6680641  23.6091824
  74.9623108  48.2604446  24.0368538   3.1025434  36.9859123  70.1374741
   3.6215522  36.1932487  70.0012970   2.2928452  36.6753693  70.5426712
  67.9281921  59.8576088  86.4143600  68.8624649  59.6494370  86.4092407
  67.8945923  60.8102722  86.3275681  63.6146812  30.9479542  45.0148048
  62.9134865  31.4283600  44.5746117  63.3219452  30.0366478  45.0073738
  64.9336319  34.5565643   7.3373241  65.4275513  34.5245285   6.5180244
  65.5861359  34.3881111   8.0170994  66.0026855   9.9117422  54.9489059
  65.2842712  10.1924124  55.5157738  66.1407700   8.9919100  55.1749039
  53.8730354  34.0179291  35.3070793  53.3614540  33.3264008  35.7269669
  54.0322838  33.6934776  34.4207382  85.8565979  20.7589779  14.0620394
  85.7154999  20.9058228  14.9973249  84.9821701  20.5891132  13.7116690
  68.2151108  57.0279808  12.4821272  67.3835449  56.5755920  12.3404551
  67.9842300  57.9568901  12.4893808   3.4976120  24.7871952  54.2772827
   3.0577865  25.6152000  54.0844269   2.7859223  24.1538067  54.3697433
  46.0614433  15.0829182  24.4713268  45.8819084  14.4729166  23.7558575
  46.7737617  15.6324673  24.1444778  21.2706356  28.4462070  62.8180275
  21.9349213  29.0510826  62.4877548  21.3991013  27.6470833  62.3070145
  73.0527039  49.8956032  41.9377975  73.0938339  49.3109703  41.1809959
  72.2626114  49.6259689  42.4060822  54.4178047  11.1781273  45.5669556
  54.9536476  10.5307884  45.1086388  54.2069244  10.7649336  46.4042320
   3.9611888  20.9878597  53.6659279   3.0526829  20.7144604  53.7928200
   4.3419013  20.9688244  54.5439529  19.7627602  50.7557144  74.5056915
  20.2271461  50.5010681  75.3030167  20.4547920  51.0200882  73.8995285
  57.2335815  62.8858185  48.2526627  57.1370392  63.0500717  47.3146133
  58.0778542  62.4418983  48.3324432   7.7337503  51.5468903  73.4539261
   7.1762257  52.3187294  73.3556213   7.1199756  50.8170815  73.5369339
  61.1705818  61.8060799  87.8980255  60.8111496  61.7992401  88.7851486
  60.4154282  61.6447525  87.3323822  55.2322540  67.9071884  26.9683094
  55.0889969  68.3936005  26.1564522  55.9467278  67.3040924  26.7632885
  34.3228912   5.8954411   8.8403492  34.5672836   5.1158867   9.3391457
  33.3978424   5.7657676   8.6313047   7.2812138  60.4193382  54.1115265
   6.9414716  60.1179237  53.2689362   7.4654856  59.6152115  54.5969734
  40.8329620  50.9388924  89.0132904  39.9021111  51.1322937  88.9021683
  41.2111816  51.7578316  89.3334732  42.0974274  39.9471245   8.9044371
  42.5039024  40.5928917   8.3265152  41.3387566  39.6307220   8.4139862
  85.4193573  49.0565681  51.7877998  84.9984512  49.0550537  52.6474915
  84.7512131  49.3999825  51.1946068  22.2150555  48.1334381  66.3600845
  22.6442070  48.7226868  65.7397232  22.6407261  47.2875175  66.2206116
  49.9526253  58.9604836  39.8934746  49.7938728  59.8855591  39.7056732
  49.0784378  58.5788155  39.9731865  22.8727112  56.8616867  62.3916054
  22.8016949  56.8091621  63.3447227  23.1103992  57.7726974  62.2189865
   5.0298524  43.4537697  69.9053040   5.3855996  42.5751305  69.7723846
   5.7665577  44.0394058  69.7305908  47.6785469  38.1466675  68.3615875
  48.3812599  37.9892693  68.9921799  47.7326584  39.0832405  68.1714935
  24.9245319  44.4422760  59.0318680  24.9072876  44.8716049  58.1765251
  24.0070591  44.4116974  59.3030510  20.9489174  50.2787247  33.9368477
  20.7202206  51.0838776  33.4724617  20.1718502  50.0730019  34.4565315
   1.9334326  14.8362741  36.9661865   2.1446016  13.9111967  37.0921669
   1.5762923  15.1173029  37.8086281  78.1559067  58.1522484  45.5321236
  77.7689362  58.8665276  46.0383759  77.4108124  57.7320404  45.1026039
   4.6003637  35.9038048  77.0833282   4.5974216  35.6800499  76.1526566
   3.8899150  36.5380440  77.1794281  85.8953476  32.9269562  19.3304462
  85.9779129  31.9803371  19.4459019  85.1032715  33.1591759  19.8151283
  52.7238731  48.1327553   3.2744982  52.5317726  47.7485733   4.1299129
  52.0663605  47.7560883   2.6896634  27.2601471  67.8874435  21.9399033
  27.6353569  67.1731873  22.4549656  27.3141060  68.6511078  22.5144825
  26.0315876  44.5343246  81.3882523  25.3853703  43.9383698  81.0094757
  26.2088776  45.1683846  80.6934357  75.6869659   1.7633475  24.3886681
  75.2263260   0.9242756  24.3894253  75.0620270   2.3800092  24.7699890
  61.1504364  12.2897892  33.6911774  60.3151703  12.7339649  33.8370247
  61.7889290  12.8164282  34.1720200  56.4429512  51.4040375  71.6066513
  55.8859444  52.1697922  71.7466431  57.1036949  51.6997643  70.9803925
  38.1199493  27.3449097  70.8841934  38.3344879  26.5510445  71.3740692
  37.8702812  27.9802761  71.5551682  48.1804276  16.3838882  19.2076302
  48.8267899  16.7279205  19.8241444  47.5489197  15.9195137  19.7569809
  29.9186935  12.8328056  72.8386765  29.8052235  12.7289772  71.8939133
  30.0644989  11.9435806  73.1615524  44.2487488  61.0775108  26.2096424
  43.8741913  61.0377235  25.3296680  45.0255623  61.6286583  26.1146088
  64.7689133   1.3843710  70.2674179  64.6828384   0.5965293  70.8041992
  64.0850525   1.2976092  69.6033096  81.5303040  47.6156158  87.2601700
  81.2418823  48.3835983  87.7533722  82.3506699  47.8888588  86.8496017
  35.3746490   3.3836553  29.6570263  36.1276512   3.0376697  29.1779499
  35.1166496   4.1640506  29.1664639  43.3285370  67.9754562  59.4043159
  43.7559052  67.1972046  59.0466652  42.5455704  68.0878067  58.8652687
  64.1375275  65.0702133  21.7023563  63.8309517  64.7968979  20.8377514
  64.7914352  65.7456131  21.5221481  10.1950645  64.6772995  76.4748611
  10.0043364  63.7564507  76.6534348  10.7263422  64.9605331  77.2190094
  62.4287758  48.0726051  22.2771683  61.7712059  47.7060509  22.8683281
  62.6792297  48.9027138  22.6826572  18.8413601   8.3256950  15.1320419
  18.8582439   8.4524221  14.1834183  17.9106598   8.3116732  15.3552790
  54.6072464  32.2246284  33.1015282  55.4970474  32.1949120  33.4531021
  54.5603752  33.0612183  32.6387596  57.8452682  28.7186413  75.1170731
  57.8157387  29.6398983  74.8589249  56.9489517  28.5161705  75.3851395
  44.3307419  55.8699951  60.8310890  45.1238594  56.0865326  61.3213005
  44.0050774  55.0700264  61.2436752  29.6600723  18.4575195  71.4792633
  29.2161846  18.5888309  70.6414337  29.1048946  17.8355656  71.9495621
  86.2599640  57.7925720  25.8009872  86.9579926  57.4974747  26.3857136
  86.4131546  57.3156281  24.9853344  64.4181747  48.3432770  37.1036720
  63.7985458  47.9976311  36.4611588  64.1217499  49.2391129  37.2644310
  36.3705826  45.0109978   2.7035100  36.1469612  44.4863930   3.4722838
  37.3271523  45.0456085   2.7071586  56.2640991   2.9257388  75.1473389
  57.0352440   2.6754820  74.6384735  55.8680305   3.6390851  74.6468353
   0.9048147  47.9460449  76.5045013   1.6995488  47.6362381  76.0701599
   1.1920059  48.6993713  77.0204926  61.8358727  62.1099358   9.7575035
  62.7487831  61.8762932   9.5894594  61.8149796  63.0639153   9.6818924
  19.9900017   3.7954116  74.9186859  20.4681740   4.4592805  74.4218292
  19.0831871   3.8835638  74.6251755   6.9930358  55.0464935  69.0221024
   7.7435064  55.4616966  68.5970917   7.3098698  54.8154831  69.8953094
  57.4909401  63.5262909  84.1777954  56.9917450  62.8184090  84.5851593
  57.1305809  63.5955276  83.2937241  14.6351948  68.4624481  32.5488205
  14.7693233  68.5890808  31.6095619  13.6851416  68.4933548  32.6614037
  25.4150410  42.5849686  12.9388819  25.3943615  41.9271622  12.2438297
  26.2367306  43.0555687  12.7989006  57.6129227  35.5550766  63.5768280
  57.1657410  35.4710388  64.4189682  57.9362564  36.4559517  63.5661850
  23.3490295  69.2556763  53.4348221  24.1304321  69.6231232  53.0217552
  22.6581631  69.3666840  52.7816620  23.5993576  19.0889473  76.4945145
  24.4891758  19.4415359  76.4829102  23.0665474  19.7953796  76.8596115
  10.5150824  36.4695358  64.2922897  11.1057663  35.7348251  64.1263809
  11.0232944  37.0660477  64.8419418  70.0118332  20.7531433  35.9294357
  70.9096146  20.6664486  36.2499275  69.8017654  19.8914452  35.5694656
  62.5356293  29.8682804  59.8294296  63.4754181  30.0261517  59.7393875
  62.2814140  30.3708305  60.6034126  41.1342735  57.3914795  48.4847794
  41.0847778  56.4357224  48.4672546  42.0691261  57.5814972  48.5634041
  61.2753716  55.6783943  73.4722748  61.7899513  55.2385864  74.1490402
  60.3680344  55.5844002  73.7623291   9.0336609  49.2299805  65.1362228
   9.8412409  49.6052971  64.7852478   9.0043211  49.5314026  66.0442505
   9.1642084   3.3687859  40.3920021   9.4157362   2.6439335  39.8196754
   9.8857956   3.9934127  40.3186111  40.0060005  51.8736496  28.7015057
  39.8684731  52.8169594  28.6149998  40.8386230  51.7113342  28.2580814
   5.0816588   9.1272326  68.7801132   4.2549286   9.3897038  68.3753204
   5.7292476   9.2148685  68.0806961  63.9118156  66.0909729  -0.1386322
  63.4350967  65.7768936   0.6296940  64.7476196  65.6253815  -0.1087642
  77.1995697  26.1000519  56.6311760  76.3211136  25.9775372  56.2712593
  77.6809082  26.5533638  55.9390373  25.3499622  25.4634647  89.1994553
  24.9691124  24.9458542  88.4900360  25.1592598  26.3711185  88.9627457
  75.0692673  58.3041573  82.9371719  75.7799988  58.0239105  83.5138397
  75.0771408  57.6689034  82.2211914  22.0008621  59.3207130   9.5389595
  21.1977558  59.8264503   9.4145298  22.1670589  58.9212379   8.6851263
  51.7849808  66.9896545   0.1833435  51.2003937  66.4430237   0.7083939
  51.5320015  67.8871689   0.3994501   3.1865129   4.0358934  61.8515358
   3.9707181   4.5836630  61.8168602   2.4960470   4.6250868  62.1554070
  63.6533127  34.5324821  72.7455368  63.5501289  35.4465256  72.4807587
  64.5955582  34.3725815  72.6922073   8.3159752  43.0701523  70.8123779
   8.4179678  43.9545746  71.1639862   9.0909052  42.9387512  70.2660751
  21.6575718  38.1056442  18.2317829  22.5531502  38.1766586  17.9014397
  21.7552052  38.0728149  19.1834240  50.6327362  42.0663223  43.1150017
  51.1452789  41.5355797  43.7247887  50.1118889  41.4309616  42.6238136
  29.8303413  45.3337021  70.8732605  30.1449928  46.1136589  71.3302994
  28.9433594  45.2014694  71.2079391  65.1874313  39.1623573  20.8146610
  64.5724869  38.9309082  20.1185913  64.7447815  39.8553162  21.3046646
  12.2584114  32.2168579  65.8596802  12.5181494  31.3154202  65.6694870
  11.4180527  32.1339493  66.3104095  47.9211807  66.2500992  30.7210178
  48.7881279  65.9646759  30.4326344  48.0631142  67.1288910  31.0728989
   8.1761103  49.7743683  15.8371849   8.8577509  49.6236610  15.1822910
   8.3425312  49.1161575  16.5119438  50.8016319  19.2572002   5.7557282
  51.1675568  18.6192017   5.1431198  51.4965172  19.9055462   5.8698182
  34.9335785  51.0520287  42.2819290  35.7732391  51.5115929  42.2808418
  35.1603622  50.1392326  42.4597206   7.9394398  69.0760345   6.4367137
   7.0440006  69.0813522   6.7749319   7.8443027  69.2687607   5.5039554
   2.6854453  32.4554787  26.6938725   2.4429252  32.0223808  27.5123119
   3.1686816  31.7896442  26.2046070  24.6294422   0.8987738  13.8480349
  25.5552502   0.9952755  13.6248732  24.2616749   1.7743509  13.7282705
  52.0699081   4.1601577  10.0742130  53.0220757   4.0810499  10.0163374
  51.9260063   4.9783597  10.5496826  12.6142473   8.1792898  53.1317520
  12.0082798   8.9042101  52.9783707  12.8249655   8.2363634  54.0637245
  38.1190567  44.0277824  89.2565765  37.7880859  43.2504425  89.7065048
  37.9560280  43.8553886  88.3292542  77.9094467  62.7560081  15.5047321
  78.5695648  62.0640335  15.5452919  77.2062531  62.3852463  14.9715500
   0.0825880   1.0360578  79.0378799   0.0691513   1.7062666  78.3545990
   0.3330333   0.2331298  78.5809174  25.0266895  16.7836723  42.7444153
  24.8922272  15.9612074  43.2152710  24.9260578  16.5505199  41.8215179
  53.5589142  30.1940498  10.5261574  53.8513908  31.0718098  10.7715664
  54.0563507  29.9884109   9.7346373  38.5282021  44.4847565  74.8793488
  39.2891045  44.2194901  74.3627319  37.7940025  44.0161629  74.4823532
  73.1311340  54.6566658  71.7784500  73.9121475  54.4979935  71.2482986
  73.3319321  55.4543419  72.2679672  59.4890518  33.7840195  32.5237465
  59.3527222  34.5605659  33.0665321  59.6406937  34.1301270  31.6442909
  48.1670265  63.5743752  11.7841749  47.2119789  63.5102768  11.7866144
  48.3919563  63.8337097  12.6776972  53.6007462  67.0404358  68.3543396
  54.1758080  67.2566757  67.6203232  54.1790810  66.6348419  69.0002899
  10.7258587  19.5559368   4.2929845  10.2977018  20.4100342   4.2343974
  10.9112148  19.4443913   5.2254186  68.6024780  68.9296722  61.7175369
  68.2039719  69.5273209  62.3501778  68.4198456  68.0566101  62.0648804
  54.6575928   2.2141285  56.1477432  54.2736168   1.3398321  56.2140732
  53.9342232   2.8090360  56.3453674  60.3757248  38.7822380  85.8384247
  60.6618881  39.3468704  86.5564270  59.6490898  38.2783699  86.2049637
  36.5405960  17.0145283  68.9487610  36.5842590  16.0605526  69.0140152
  35.6122208  17.2029667  68.8114853  60.5109673  11.0191660  28.5899734
  60.6813011  11.2518349  29.5027084  60.1679153  11.8222685  28.1980915
  42.9065475  58.1146088  81.7218628  43.4149399  57.6733818  81.0413589
  42.8250465  57.4643173  82.4195099  72.8826752   9.3094540  46.5717278
  72.5647354  10.0859032  47.0324554  73.5920410   8.9779558  47.1223106
  84.8865814  42.5644112  60.7342911  84.8116379  42.6588669  59.7847176
  84.1635895  43.0848236  61.0845566  75.8829575  17.9195309  35.7035255
  76.2639008  17.1044140  35.3768692  76.2221985  18.0021629  36.5947723
  49.5279236  18.0426941  85.6100159  49.1525383  18.6302757  84.9542236
  50.1761665  18.5777645  86.0679626  82.5078125  52.5011749   5.0276880
  82.6755295  53.4019165   5.3047519  83.3699341  52.0852737   5.0304623
  14.5005732  59.7477646  88.2452698  13.9787283  59.1696701  88.8017883
  14.0153465  59.7890434  87.4212036  33.4001389  32.7870598  66.7106018
  33.0604553  33.6058464  67.0717621  32.6567230  32.4040604  66.2449036
  71.2939835  23.6720257  45.3808289  71.3579407  24.2348385  46.1524391
  72.1962509  23.4069538  45.2022667   8.9356174  69.1600571  41.5311966
   9.6653681  68.5406418  41.5359459   8.3307199  68.8125076  40.8758011
  72.8877716  21.1325817  77.0732880  73.4991074  20.4256992  76.8663559
  72.4032745  21.2758961  76.2602997  25.3053780  64.3561935  54.6298828
  24.6768398  65.0662308  54.4994469  25.1386337  63.7526970  53.9058533
   1.9502084  62.4684067  15.5982676   2.7035036  62.2208405  15.0620861
   1.9153128  61.8020058  16.2845097  55.3328209  57.5557022  11.1273365
  55.7493019  57.9620857  11.8873549  56.0626183  57.2898026  10.5679398
  57.7090034  60.2398911  65.4856186  58.0722580  59.4978180  65.0022964
  58.4050446  60.8968811  65.4743729  78.2236099  11.5980701  49.8056564
  77.4771729  11.8749552  50.3370667  78.5197372  12.3988791  49.3729401
  24.9285030  56.4786911  52.1870155  24.6685905  55.5601959  52.1159477
  25.8782444  56.4505730  52.3029022  50.8153725  19.8244991  56.2739449
  51.6915627  19.5378494  56.5315361  50.2270317  19.1812878  56.6693764
  52.1511993  68.9881134   9.3246765  52.3515816  68.3436127   8.6459274
  51.9208145  69.7814331   8.8411465  72.6216812   5.0779042  56.7018738
  72.0884323   4.2829981  56.7020950  72.7478943   5.2819076  57.6285248
  70.2593536  44.3428917  81.2231293  70.3128281  45.2249985  81.5909119
  69.4599380  44.3509293  80.6967239  33.4409065  49.7286758   7.6311154
  33.8907127  50.2191887   6.9431448  32.7819786  49.2131958   7.1660099
  10.2176018   3.4187024  48.9294243  10.8518381   3.5017087  48.2173233
   9.4533949   3.9099872  48.6279945  76.9500809  24.4438610  26.4241066
  76.4901123  24.6251049  27.2437496  77.3354721  25.2838688  26.1749268
  81.2767715  68.7717133  37.6454086  81.6931915  69.3362656  38.2966499
  80.4397202  68.5275040  38.0403023  36.0476074  67.9801941  19.7499542
  35.9892731  68.4893570  20.5583973  36.1979294  68.6329041  19.0661373
  74.4678497   0.6621985  79.2118607  75.3847351   0.4568040  79.3945312
  74.0341873  -0.1903301  79.1749191  78.7013245  44.7524681  87.8297348
  78.0688477  44.3745995  87.2186584  79.4628067  44.9602623  87.2882538
  79.8227539  18.9841099  85.2801971  80.7209091  18.6688061  85.3808746
  79.5140228  19.1179333  86.1763000  75.5078430  70.9831696   1.0503274
  76.3512268  70.8486328   0.6180900  75.5136795  70.3679504   1.7836137
  45.5655060  32.9736252  76.1791611  45.0496826  33.2751617  76.9269867
  44.9703178  32.4041061  75.6916885  82.3118362  59.8486366  17.0488338
  81.8883972  60.6338768  16.7019501  81.5871124  59.2898483  17.3294811
  58.5711136  42.7650795  70.7762527  59.3461761  43.2014771  70.4226074
  58.1478462  43.4307976  71.3183746  73.3095169  53.3256378  56.6169662
  74.0898361  53.2623291  57.1677094  73.2773132  54.2448616  56.3519745
  81.0674591  45.4396515  21.3774815  80.8500977  44.5087395  21.4264107
  81.7247772  45.4959984  20.6839485  21.4868469  61.5647430   1.9882565
  22.1450653  61.8495178   1.3543125  20.9124069  60.9819489   1.4916670
  43.0453072  48.1422462  11.3353748  43.8515244  48.2285118  11.8441038
  43.3066826  47.6569939  10.5527859  21.5558453  28.4983196  29.0727005
  21.4135437  27.8466778  28.3861561  21.3292732  29.3325901  28.6617374
  39.8405380  39.6736221  73.9531250  39.2140541  40.1275520  74.5167618
  40.3407669  40.3756485  73.5369949  80.4337769   0.2296392  62.4811134
  81.1805496   0.6141304  62.0220604  79.6738968   0.4843232  61.9577103
  86.6049194   1.6174210  49.4586906  86.7062073   2.5584543  49.3157578
  85.9342957   1.3504876  48.8300095  11.9023399  28.5587082  82.6570053
  12.5886383  28.1064262  82.1664276  11.0939350  28.3434963  82.1918259
  54.3366356  13.4561806  27.5086174  53.6511040  13.5258226  26.8442173
  54.5915985  14.3616810  27.6855240   3.1319237  21.9751778  86.4707642
   3.6630597  21.2093830  86.2524033   2.8985894  21.8504105  87.3906708
  26.6172218   0.5471388  58.1288948  27.4351597   0.9376345  58.4366646
  26.7409363  -0.3943130  58.2497063  20.9688358  61.8703079  41.7081490
  21.6471100  61.1996155  41.7878304  21.4389477  62.6987610  41.8024216
  37.8005371  14.7155552  82.5214691  37.5986671  14.9537525  83.4263153
  37.1254044  14.0795813  82.2848969  34.0049629  60.1250801  23.4445877
  33.4511490  59.3459473  23.3948631  33.4162369  60.8509903  23.2379837
  35.0939293  13.2303314  77.6540604  35.5857658  12.8336763  78.3730850
  35.3070297  14.1621971  77.7035141  78.7329788  46.3090515  21.2957764
  78.3641510  46.1123810  22.1568909  79.6015396  45.9070091  21.3097382
  35.3838997  27.3405094  78.5800552  34.7995567  27.9722004  78.1608429
  35.6510429  26.7546577  77.8717880  54.8096466  63.7105713  18.9739876
  53.8722343  63.8257904  18.8183823  55.2305260  64.1364746  18.2271919
  13.0816727  53.0695152  21.0428104  13.2768030  52.1528587  21.2374821
  12.6863747  53.0503807  20.1712589  27.7243004  69.8595276  14.2534933
  27.2370110  70.5127029  13.7513590  27.8157005  70.2461853  15.1243382
  14.9725428  22.8613777  22.2036304  15.7565584  22.3128452  22.2293606
  15.0162439  23.3019848  21.3549919  53.0140800  68.6390381   4.3195691
  52.9825592  67.6846390   4.3855710  52.1349258  68.9254150   4.5671849
  27.2833786  61.1850853  32.0680351  27.8213291  61.7887611  31.5557709
  27.1237564  61.6462936  32.8914642  10.5704145  64.0916367  55.6894531
  10.7734852  65.0227051  55.7795258  10.1550407  63.8557510  56.5189400
  69.1087036  22.7321453  56.4619141  69.5371933  22.5148125  57.2898026
  68.7380829  23.6029396  56.6054077  76.3884888  46.0450325  19.6608925
  77.2235107  46.1483612  20.1172943  75.7268677  46.1606293  20.3428898
  29.5643444   1.7365444  36.2929306  28.7280083   1.2718524  36.3218307
  29.7000942   1.9278693  35.3649216  62.9074364  46.2992325  44.2323608
  62.5671501  46.5711975  43.3800278  63.5047112  45.5783348  44.0328598
  73.3411865  22.4546394  17.7722664  72.5679245  22.9905510  17.9486046
  73.4810028  21.9624043  18.5812092  59.6338081  69.4596252   2.0856211
  59.7309189  68.5325165   1.8682243  59.0194435  69.7955933   1.4329972
  20.6520653  30.9750328  10.6000690  21.0430393  31.2107315   9.7587500
  19.9336128  30.3845882  10.3732796  42.9053383  28.7226086  75.7940445
  43.1784668  28.9122868  74.8964615  43.7131081  28.4720097  76.2423096
  85.2608185  54.5269890   9.0835915  85.1695251  53.6641731   9.4878778
  86.1749878  54.5641518   8.8022661  86.2011261  47.2522202   9.4690123
  86.7411804  47.3927498   8.6913080  86.0084076  46.3146591   9.4605598
  72.0336990  12.7425499  56.0356865  72.1847763  12.1068182  56.7351494
  72.9021378  12.9036922  55.6667976  42.8321190  62.8894653  46.8586884
  42.8535080  63.5906334  46.2074318  41.9029465  62.6810265  46.9557877
  78.9405746   0.0963355  41.0813217  78.2527313   0.7561377  40.9931793
  78.9723206  -0.0927500  42.0191231  41.4384499   2.1492732  27.1439762
  42.3254547   1.8453552  27.3365536  41.4592934   2.3752136  26.2140579
  70.2866516  34.7974014  68.8358765  69.7010803  34.6141281  68.1012039
  71.1262894  35.0064468  68.4265518  29.3111916  49.1326256  67.5022507
  29.1764221  48.1899376  67.5992737  30.1504402  49.2091255  67.0483398
  71.1277618  63.1839104  33.6510086  71.1412964  62.4913712  34.3116417
  70.7554932  62.7666130  32.8741493  80.3030167  49.6356354  38.7226219
  79.8099060  49.6004639  37.9029655  81.2119370  49.7615204  38.4501114
  53.6772575  41.8137131  58.1750908  53.7104187  41.5193329  57.2648849
  54.3756638  41.3249512  58.6104889  77.7593307  33.5342598   5.6319771
  77.9769440  33.9617538   4.8036499  77.9677963  32.6113243   5.4872003
   7.2534113  54.9917488  39.9497452   6.3002210  54.9397202  40.0201149
   7.4890399  54.2786636  39.3562660   0.6952876  60.7283897  57.3349876
  -0.1985480  61.0446587  57.2036018   0.5882666  59.8260193  57.6358299
  12.4969387  70.2814255  35.7724953  13.3893127  70.6175613  35.8556328
  12.0179386  70.6931305  36.4917221  70.2302322   5.9108343  86.9234238
  70.9921722   6.3709445  86.5713120  70.2116623   5.0799265  86.4485703
  15.8742323   4.3603301  81.9915695  15.5242157   4.3431373  81.1008301
  15.3182144   4.9864135  82.4553528   5.8845377   1.3986795  88.6389008
   6.6031203   1.6583592  89.2154694   6.0808239   0.4914227  88.4052582
  61.2293053  29.4679489  50.0972595  60.7949295  28.6248989  49.9675827
  61.6765671  29.6369934  49.2680321  61.9175835  23.8469429  32.1735802
  61.4869080  23.6449852  33.0042229  62.7789040  23.4353714  32.2440910
  12.4158249  55.3370094  37.1590157  12.5106153  56.1928711  36.7409897
  13.1079445  55.3152618  37.8198700   3.3499179  44.0456772  50.7796249
   4.0313597  43.3743973  50.7442436   3.7238886  44.7915649  50.3105507
  69.7260666  68.4462433  22.0929260  69.9745712  69.1000443  22.7463932
  70.4981995  67.8869171  22.0080643  10.7326670  41.6575279   9.5555601
  10.8797703  42.5826302   9.3586426  10.9155083  41.5799446  10.4919262
  54.3087120   6.9933906   9.9751425  54.9727669   6.5759735  10.5237980
  53.8554611   7.5962420  10.5645189  67.0809479  65.5849152  77.7096863
  67.1093750  66.5311584  77.5680847  66.7504425  65.2291183  76.8848190
  81.3113022  20.3422966  28.9284916  80.7331161  21.1050491  28.9401989
  80.7202301  19.5926075  28.9979706  49.8833656   8.9364815  25.5718079
  49.4058609   9.4306679  26.2381420  49.5456352   9.2680616  24.7398071
  43.2942886  41.2541161  55.6602097  43.6980667  40.7364273  56.3567619
  43.4207916  40.7307777  54.8687897  84.7211685  65.5809021  19.1914597
  84.6285934  64.7214584  18.7803421  85.6224823  65.5965881  19.5133553
  77.1365814  55.4263649  83.5254593  77.3360291  54.6146240  83.0590591
  76.1852798  55.4144821  83.6308823  39.5737076  45.6920013  14.7998819
  38.7579689  45.1940880  14.7461576  39.8486443  45.6035461  15.7124701
  33.6450081   8.7361660  13.2868156  33.8516769   8.6462460  12.3565283
  32.7289696   9.0133696  13.3029604  80.6327591  19.1547298  71.3612518
  80.2132339  18.4720669  70.8376083  81.3315048  19.4914093  70.8003311
   0.5048101  14.5097408  65.5854416   1.0780238  15.1930494  65.2379608
   0.0747184  14.9173155  66.3371964   6.1668987  19.5472469  78.1297226
   6.8853512  19.0096245  78.4629211   5.3795290  19.0342369  78.3116608
  29.0883141  34.1207047  87.2214050  29.4241791  34.4906464  88.0378418
  29.1781139  34.8282776  86.5830383  23.6243114  60.9723129  21.2785912
  23.1120529  61.1339912  22.0708561  22.9774857  60.7052727  20.6254921
  80.0934677  33.6884193  79.8212967  79.8037796  34.6003456  79.8478165
  80.3627319  33.4964333  80.7195587  42.0562706  64.0909042  82.6761932
  41.9699402  63.6975327  81.8078384  42.3143539  64.9964828  82.5043182
  46.6254082  70.4740067  83.6294174  45.8913651  70.2679367  84.2081680
  46.8651161  71.3722839  83.8571548  60.4773216  63.0799789   4.5081019
  60.4194794  62.1923294   4.8616028  59.7051544  63.5267487   4.8550639
  79.9288254  37.4821320  61.3005753  79.9544830  36.5869789  60.9625320
  80.5305862  37.9683533  60.7369194  21.3572807  50.1766357  89.1410294
  21.4221268  50.9768753  88.6198349  20.9802876  49.5312386  88.5430603
  70.0781326  14.9514503  13.2696295  70.2706070  14.7596474  12.3518066
  70.9192047  15.2194376  13.6397905   7.4368615  52.0486259  47.4856339
   7.5485020  52.2947731  48.4038811   6.8520389  52.7166824  47.1279831
  78.3669128   3.9482870  38.6592789  78.8431015   4.7740264  38.7466240
  78.8416519   3.4686813  37.9804306   6.0089703  20.9171772  32.1206551
   6.0466027  19.9723015  31.9722462   6.0865426  21.0138226  33.0697975
   5.1792126  64.9424515  84.0997391   4.2589374  64.8806534  83.8437958
   5.1857953  64.7093506  85.0280991  38.3774376  24.3953819   5.9544535
  38.2228889  23.5385265   5.5567818  37.9666595  24.3367043   6.8170362
  62.2295456  51.5222931  49.8338661  62.0227165  52.1144524  50.5569191
  61.5014153  51.6283569  49.2216492  83.2617569  27.5724545  30.8771725
  82.5946198  27.6400795  31.5602455  83.6446228  28.4484119  30.8287525
   4.8462362  13.3150682  13.7199783   4.3464274  14.1252928  13.6201849
   4.7561164  13.0905848  14.6461086  43.9826279   0.9940904  86.0538940
  44.2980194   1.8651028  85.8128586  44.7426643   0.5641794  86.4460068
  82.5529099  70.2763596  69.6403732  83.4547806  70.3929749  69.3415985
  82.6183472  69.6490479  70.3603973  62.3511086  51.4401970  27.8448544
  62.9377861  52.0940514  27.4646950  61.6872520  51.9531670  28.3057117
  74.4830933  31.4022560  75.7397385  73.6841736  31.0283661  75.3680344
  74.7498550  32.0717278  75.1097565  57.9769669  41.0534286  65.6730576
  57.8701744  42.0044403  65.6931915  58.6264153  40.8998146  64.9868774
  27.1394081  32.7335014   0.6556590  28.0665245  32.5693321   0.4832179
  26.7554665  31.8618507   0.7507672  38.8925476  42.7383423  54.4328766
  39.2273140  42.4047890  53.6004677  37.9582939  42.5307236  54.4157677
  11.2122736  13.2958479   4.1075830  11.1141653  14.0523758   3.5294211
  10.3184595  12.9823284   4.2455459   9.0241203  37.1030655  17.7783642
   8.2752018  36.6676407  18.1854973   9.7886658  36.6811829  18.1704311
  66.3240967  31.6741142  51.2169228  66.4246063  32.5386162  50.8184662
  66.8698502  31.7075958  52.0025864   4.3851299  40.4703407  48.1414452
   3.4347305  40.5730095  48.1907654   4.5168853  39.5370102  47.9748268
   2.4790564  63.2014847   6.6927342   2.4510157  62.8142433   5.8178105
   2.4926660  62.4508667   7.2865539  70.3092957  31.2386951  49.6420326
  70.3208694  30.7404633  50.4592590  70.1627121  32.1441765  49.9156113
  55.3021774  45.5199051  68.0014725  55.6059799  46.1939392  68.6094284
  55.3049812  45.9498672  67.1462784  72.9397354  44.5155487  80.4738007
  72.0410538  44.2427406  80.6586990  73.3477859  44.5960197  81.3359146
  38.4969292   9.4017630   3.3099213  38.6368599   8.7129488   3.9596801
  38.0155678  10.0816050   3.7814505  32.3443604  13.5536880  73.9721603
  31.4385414  13.3141747  73.7763214  32.3121490  13.9052114  74.8618927
  55.6350098  39.4358406  75.6097336  55.7372589  39.5209236  76.5576477
  56.4299316  39.8267174  75.2470474  50.1111870  23.6140976  43.2689056
  49.4322662  24.2588654  43.0699768  50.9242134  24.1190834  43.2833824
  25.1974850  62.5357513  25.1610851  25.5631104  62.2194939  24.3349304
  25.8097725  63.2121315  25.4506435  10.4925299  55.7430000  64.2631149
  10.5136375  56.6922379  64.3844833   9.5607500  55.5248566  64.2423325
  71.1525497   2.6705081  57.0247993  71.0896835   2.6775699  56.0696907
  70.6081696   1.9310714  57.2951965  20.1232014  59.2682228  60.8124733
  20.0228996  59.3302612  59.8625679  21.0083027  58.9260788  60.9380188
   2.9664590  35.0577087  57.3252945   3.1867456  35.6558762  58.0393639
   2.3818405  35.5635376  56.7608566  69.9171066   8.7693548  62.1735764
  69.4885559   8.0047808  61.7888641  70.5912247   8.4032812  62.7461014
   5.6951718  12.0857191  69.2432251   5.9494629  12.4454441  68.3934250
   5.2599983  11.2594767  69.0330353  10.7451105  10.4329844  45.5097389
  10.4445829   9.5872583  45.1770821   9.9771910  10.8070202  45.9417458
   3.2574067  58.4084358  26.4598522   3.3965845  58.9536133  27.2342186
   2.7239463  57.6782722  26.7737274  13.0843115  57.4261742  79.9956055
  12.6275110  56.6036530  80.1717453  13.8682060  57.1659584  79.5118408
  82.8859711  27.7690678  61.8126945  83.0121689  28.6798820  61.5467567
  82.0295868  27.5320892  61.4567719  36.4535446  66.7648544  25.2579994
  36.0350075  67.0303650  24.4391212  36.8746452  65.9302750  25.0521393
  77.7476578  30.4935017  12.6917868  77.8477173  31.4445534  12.6503162
  77.8134842  30.2058086  11.7812204  47.9533195  51.3511658  85.6815643
  48.7350616  51.6541786  86.1434097  47.9982338  50.3965416  85.7354584
  66.9607086  43.9276657   1.1506057  66.4019928  43.6073914   0.4424429
  67.7011185  43.3211708   1.1644857  20.9320793  52.9394684  13.0504570
  20.0569115  53.2670403  13.2578440  21.3265190  53.6303749  12.5182028
  43.9427490  32.4956589  58.2688637  43.0521927  32.1870918  58.1017418
  43.8951073  32.9093513  59.1307335  23.8729725  50.5870705   2.4664330
  23.9879665  50.6116562   3.4163826  23.6335335  51.4834061   2.2308824
  29.7328873  70.0573044  17.4296799  30.3215408  69.5487442  16.8719311
  30.0764046  69.9350891  18.3147163  27.7541161  48.7671165  87.4913330
  27.1213474  48.6531448  86.7822189  28.6075268  48.7249031  87.0598907
  60.6351624  27.7688904  83.4626465  61.0322685  27.2442284  84.1578217
  59.8329849  27.2983894  83.2359924  79.3066711  31.9120922  52.0036087
  79.5346146  31.3278465  51.2804680  78.5691299  32.4252472  51.6735687
  48.2212181  66.3865585   6.8021131  47.6760216  67.0012207   6.3110094
  47.6450844  66.0514832   7.4891553  41.6743698  63.4464073  36.5333138
  42.3513832  64.0562363  36.8265648  41.9055138  62.6148338  36.9471893
  58.6979103  15.2852602  86.3756714  57.8304596  14.9215078  86.1983337
  58.6172333  15.6859436  87.2412262  85.9480286  52.5321350   0.1815952
  85.0313644  52.2992401   0.0342062  86.2694092  51.8666306   0.7899162
  19.2851410  42.0078735  16.4296131  18.3729324  42.0280151  16.1403008
  19.7593365  41.6104813  15.6992378  10.3551588  18.7812061  44.4516068
  10.3332748  19.4097633  43.7300339   9.5031977  18.8758049  44.8775711
  47.0758209  14.9409523  29.6569538  46.4071922  14.3372259  29.9804993
  46.7976799  15.1509676  28.7654572  56.9788094  31.2318268  50.2080460
  57.5942612  31.5898304  50.8477974  57.5171967  31.0363770  49.4411240
  50.1026459  38.2489052  20.1716003  49.1899796  38.3165703  20.4521313
  50.5845146  38.7987518  20.7894249  68.6989822   6.6211987  48.9126434
  68.9753036   7.5040402  49.1585541  69.5092239   6.1117382  48.8989334
  73.4525375  29.7735748  72.0278778  73.4273300  28.8453484  71.7955170
  74.3636627  30.0310402  71.8871765  59.0051537  39.7115936  45.8827019
  58.3135071  39.9693604  45.2732697  59.4377098  38.9723625  45.4553146
  11.3548555   4.5345964  84.7428665  11.3574457   3.7705953  85.3195190
  10.4850912   4.5300779  84.3432159  60.7221222  26.7537518  58.1420746
  60.6489258  27.7029457  58.2416115  60.1383514  26.3970013  58.8115311
  73.0681534  24.2907238  51.6235924  72.1281357  24.3183537  51.4451714
  73.1339111  24.3736286  52.5749245  63.3216896  69.5271912  44.8569717
  63.0458450  68.7831039  44.3217316  63.4674149  70.2337799  44.2279015
  61.5622215  46.9059639   1.4793341  60.6531105  46.6738167   1.6686985
  62.0767555  46.3730583   2.0855491  33.0823250  41.0805702  69.4964218
  32.7628937  41.9814720  69.5471268  33.3709259  40.8783264  70.3863831
  49.1759033  40.9226875  79.6797867  49.3347740  40.6101494  80.5704651
  48.4615822  41.5532761  79.7710724  21.5402107  70.6481247   8.8367138
  21.5883675  70.0300064   8.1074409  21.4498138  70.0958099   9.6132488
  51.5808144   2.9305470  33.3299942  52.4043579   3.4122512  33.4072685
  50.9173431   3.5357654  33.6612816  80.4811478   7.3924751  30.4223480
  80.9887695   7.4115915  31.2336349  81.1385269   7.3228030  29.7300816
  10.8796568  69.9182816  45.2240334  10.1700659  69.8418961  44.5861626
  10.6127577  69.3520355  45.9481659  32.8407974  49.2581940   1.5434922
  33.2973289  49.7841492   2.2001371  32.7389679  49.8456268   0.7946343
  13.1128902  48.9029236  81.6165009  12.6084375  49.7008705  81.7747421
  13.7328730  49.1440468  80.9282379  75.8049316   1.7279012  51.6141129
  76.6618347   2.1206386  51.4476509  75.2875061   1.9443333  50.8384476
   2.4772444  36.6768227  38.4038277   2.0430143  36.3733864  37.6065826
   1.7600597  36.9131279  38.9920807  19.7864838  49.1497269  30.7752724
  20.2913837  49.7966881  30.2825756  19.2680321  49.6684265  31.3904057
  68.0133896  60.5407791  25.2573605  68.6257706  60.5013962  25.9919834
  68.5648422  60.4472656  24.4805794  16.3115845  34.0878563  58.4505005
  15.7728996  33.6543045  57.7886238  16.2736721  35.0160522  58.2197418
  75.2827606  31.7490501  17.0419312  75.4645767  32.5570297  17.5218735
  74.4794464  31.9348660  16.5557384  80.3959885  24.8976574  31.6872215
  80.5923996  25.7057743  32.1611404  79.7072067  25.1435299  31.0696716
  85.0740204  29.1913147  11.4956713  85.5820770  29.9005661  11.8894663
  84.1969223  29.5581245  11.3844233  50.5075836  45.3400879   7.9378209
  51.4302521  45.1978035   7.7264757  50.4344444  45.1036377   8.8624687
  11.7820444   5.3330245  14.0191107  10.9470758   5.5396438  14.4390736
  11.5900412   4.5780315  13.4629164  46.8616257  11.2047291  29.3484249
  45.9876633  11.2276773  28.9586906  46.7148628  10.9145212  30.2486877
  69.4550018  54.9698219  36.4757004  69.3561554  54.5476952  35.6223145
  68.5590591  55.1586075  36.7547493  37.2491112  64.4959335  52.4333382
  37.3218880  64.0073624  51.6134415  37.0032921  63.8377113  53.0833740
  67.3681564   5.2234812  45.0770035  68.0308380   5.8258610  45.4149742
  67.5464478   4.3960085  45.5239220  29.0113811  51.5907288  82.2234192
  29.5858021  51.1398468  82.8422699  28.1413364  51.5326729  82.6182404
   8.5265598  57.4805145  30.2029686   8.3169155  56.5762367  30.4365597
   8.2270575  57.9967880  30.9512959  41.1726341   2.2018600  35.3746605
  41.6391182   1.8822275  36.1469688  41.8431549   2.2515268  34.6933632
  52.8276520  54.4660606  20.8597870  51.8987923  54.6675835  20.7464714
  53.0353813  53.8777199  20.1338863  59.5668449   5.6879616  45.5126114
  60.2603035   5.7326016  46.1709099  58.7847519   5.4389305  46.0051003
  74.4378815  64.2554016  70.9056549  75.1176605  64.2651367  70.2318268
  74.5191879  65.1044006  71.3401794   6.8117232  18.7399445   6.2372794
   7.7489100  18.9345551   6.2435212   6.4375367  19.3432713   6.8793178
  35.8198395  43.0286522  12.0582905  35.0060081  42.8881302  12.5421991
  36.0021706  42.1842728  11.6459675  41.3377037  67.5079193  32.8703804
  40.6225319  66.8781662  32.9608421  41.8916588  67.3527679  33.6354218
  43.1044884  32.1203537  75.2072754  42.7908707  32.9397278  74.8245239
  42.7456589  31.4381237  74.6397934  69.2466507  11.2943897   4.5301857
  68.8435516  10.7671137   3.8404608  70.0217667  10.7965536   4.7901554
  60.1333084  24.1449223  17.9102402  60.9723663  24.1811428  18.3694801
  60.3507614  24.3387432  16.9984398  54.1609802  25.7427387  18.5551147
  53.6577873  26.1033440  19.2851772  53.7395248  26.1007042  17.7737885
   7.4148035  47.1254768  70.0985260   7.4969587  46.5224380  69.3597260
   7.5280018  46.5732841  70.8721542  25.9227695  25.7599316  72.1913528
  25.7988129  26.5862827  71.7244339  25.8776493  25.9988384  73.1171646
  80.0901718  33.7069244  75.4240570  79.3629913  34.2788658  75.6696701
  79.6694870  32.9197083  75.0782928  69.2141647  30.0921059  52.7920303
  68.5245667  29.4449215  52.9398422  68.7541046  30.9311638  52.7684250
  48.5139503  16.8782902  30.8631611  48.0482254  16.2292480  30.3358307
  47.9051628  17.6138973  30.9301910  36.4049072   3.4694657  16.2657375
  37.1217308   2.9235246  15.9427147  35.7215424   3.3856013  15.6007490
   1.1930166  22.7559853  18.0064526   1.0616103  21.8143272  18.1170940
   1.8131672  22.9938927  18.6956882  86.5439682  38.2151909  47.9091415
  85.8286667  38.5905571  47.3956451  86.2904663  37.3016281  48.0409279
  82.0313034  34.6250458  63.6549263  81.8840561  34.1160660  64.4521027
  81.9579010  35.5370712  63.9360886  27.0345039  18.8020325  69.6431808
  26.5056152  18.2597332  69.0580139  26.5441532  18.8160992  70.4651184
  29.3656330  57.5108414  20.8826122  29.8746338  58.2953110  20.6782627
  29.8758831  56.7909012  20.5117130  39.6273232  34.1539688  84.8350067
  39.3969612  35.0767517  84.9428940  39.2991905  33.7308464  85.6284332
  65.9697723  37.2933273  68.5401611  65.1399460  36.9006691  68.8111420
  65.7321243  37.8891029  67.8296661   3.3999472  37.2740746  50.1314354
   3.0298049  38.0617790  49.7330017   3.2155013  36.5775948  49.5012550
  65.9529343  71.8460236  20.9209881  66.5894775  71.3226242  21.4079151
  65.8479614  71.3831024  20.0897751   6.2201076  49.6412315  41.0780563
   6.2870865  50.3954582  41.6636200   6.9676170  49.0903969  41.3105278
  38.2769623  40.1291199  21.4460964  38.8999786  39.4208183  21.2836533
  38.2913742  40.2476654  22.3958168  42.1902962  45.4763298  26.7736416
  42.5427971  45.5550308  27.6600857  41.8260994  44.5918274  26.7383652
  14.0138865  61.5453415   7.8336844  13.9937325  61.5907784   6.8777761
  14.1440725  62.4513168   8.1138401  66.1734543  20.1739807  70.5661011
  66.4966202  19.9496632  69.6934738  65.3690033  20.6668148  70.4042282
  34.2135773   4.5399661  20.7186260  34.8494415   5.0107307  21.2574139
  34.6191940   3.6877728  20.5590191  27.8528061  66.5850449  32.3556366
  27.3782234  65.9545898  32.8974228  28.1177425  66.0855179  31.5832882
  -0.1383431  18.3150482  33.8430061  -0.0157181  17.8636284  34.6781197
   0.4130867  17.8328457  33.2268600  55.1733704  24.5187340  83.1585464
  56.0774040  24.5344143  82.8443604  54.9389420  23.5907269  83.1673737
  42.3300629   0.6222111  79.4662552  41.9773293   1.5007545  79.6075821
  43.2798195   0.7408946  79.4767303   2.6243713   4.0184541  53.4282837
   2.7372813   4.0477896  52.4782181   3.1318667   4.7623091  53.7528763
  50.1333771  53.5518913  -0.3168085  49.8106384  54.2764854   0.2189488
  50.8327103  53.1601562   0.2063599  28.0878372   1.3266574   5.0290699
  29.0447121   1.3516202   5.0293093  27.8456001   1.4191546   5.9504805
  50.2563667   1.0671153  81.6144485  50.7379036   1.5432234  82.2909622
  50.3550148   1.6035327  80.8278351  84.7387924  49.8197594  63.3317490
  85.3571243  49.8556061  64.0615463  85.2151794  50.2028084  62.5951653
  45.1013336  16.3132935   5.9108849  44.9796982  15.6988153   5.1871080
  45.2249832  17.1621590   5.4861841  13.1415787  35.5215988  58.0659714
  13.9003572  34.9576874  57.9160080  12.3882608  34.9372978  57.9803123
  39.0968895  10.0486403  61.5177765  39.1398392   9.2216978  61.9979362
  40.0101662  10.3204107  61.4266701  86.0404358  23.6709442  35.7130661
  85.4808960  23.6825523  34.9365234  86.4935226  24.5139122  35.6944313
   1.4863787  10.3047991  51.2636642   0.9210995  11.0445719  51.4859848
   2.0950284  10.2388439  51.9994812  39.6555595  33.5708084  50.1413155
  39.1861610  33.8860970  50.9136429  39.8729935  34.3645859  49.6525726
  59.7361526  61.4849472   7.9005136  60.3967781  61.6009865   8.5834045
  58.9352493  61.2659721   8.3767900  76.6085968  71.0331573  65.6564407
  76.2466125  70.8537903  64.7886734  77.2474442  71.7307587  65.5099487
  86.7373657  32.2246017  52.4306831  86.8666153  32.0858650  53.3689156
  86.3960266  33.1164742  52.3652344  81.7006531   6.6838455   6.3396854
  82.5367050   6.4768553   6.7573094  81.2565613   5.8395309   6.2612824
  82.9119415   6.0019798  19.1527481  82.8518295   6.6959195  18.4961910
  83.3590927   5.2849479  18.7031364  15.2429981   4.7377944  42.8746719
  16.0490589   4.6247401  42.3709679  15.2950916   4.0738544  43.5622063
  39.5170937  31.7936363   0.0371563  38.8509636  31.2584438   0.4685157
  40.0689240  31.1626701  -0.4250075  61.5035095  49.4610825  76.1753616
  61.1285973  49.3703918  75.2993164  61.2032051  48.6835976  76.6460648
  14.5694895  48.5027351  88.2493057  14.6765060  48.7837029  89.1580582
  15.1995316  49.0312271  87.7594299  11.1683216  18.5385361  57.5370216
  10.4827557  18.2775345  56.9221153  10.7021246  19.0015144  58.2331123
   7.8086581   5.8838110  34.0885506   7.7504196   4.9383855  33.9506760
   8.7246046   6.0960622  33.9090385  65.7369919  35.9913712  18.8090706
  66.0170898  36.7399712  18.2824116  64.7903366  36.1017990  18.8978825
   3.7842219   2.5641136   9.1863947   3.5126221   1.9817947   9.8958807
   4.6723385   2.2800484   8.9700899  35.6603088   0.8595096  59.8853569
  36.1793098   1.0679662  60.6621513  35.7559662   1.6263510  59.3205223
   0.6667797  14.7425032  79.7258835   0.7339535  14.4060049  78.8322983
   1.3166304  14.2423677  80.2196350   1.8160589  47.2397270  56.0373993
   1.3627471  47.2437782  55.1943550   1.5926784  46.3936806  56.4253922
  29.6472759  26.3716621  66.3659592  29.1074276  25.9924946  67.0595245
  30.1761665  27.0347614  66.8095856  60.5509338   5.9374070  60.2887383
  60.3462296   6.1458802  61.2002563  61.4784546   5.7011313  60.2995567
  48.2099571   5.5896778  41.2869186  47.5039062   5.7538428  41.9120369
  48.5804939   4.7501421  41.5591583  82.8488541  65.1352539  86.1930313
  83.5999298  65.2624664  85.6134262  82.8947754  65.8667831  86.8086472
   6.6363111  17.4396152  33.7562981   6.7174654  17.9355736  32.9416389
   7.2167716  16.6877766  33.6378250  38.3759880  58.1124229  37.5798950
  37.6129646  58.3145180  38.1213608  38.2220650  57.2188911  37.2730789
   4.3150740  71.0630875  15.1558800   3.8946087  71.1736221  16.0086536
   3.9857543  70.2241669  14.8333998  68.4189911  41.5419044  63.5808830
  69.3478851  41.3292313  63.4905357  68.4035568  42.3097496  64.1521988
  60.5091095  49.4109344  12.7576866  60.4934654  49.4367599  11.8009624
  59.6284332  49.1282234  13.0040874  28.3922043  28.3531208  73.4963455
  28.3777580  29.2957287  73.3304672  28.5551739  28.2778511  74.4365616
  76.1671982  69.5436020  38.3157654  75.2415771  69.6375504  38.5407715
  76.2282791  68.6792831  37.9089966  45.2603836  39.1501122  15.6492538
  45.9487343  39.6076622  16.1320095  44.5650711  39.0156517  16.2932224
  12.5822573  36.8897362  83.2469177  11.9197464  37.0703697  82.5800705
  13.1460238  37.6632690  83.2401505  70.0189743   1.2056955  20.1760006
  70.8129959   0.6730434  20.2211342  69.8801346   1.3498302  19.2399540
  52.5443878  58.2540436  85.5932693  52.5858994  58.3414078  86.5455704
  51.8551178  57.6073418  85.4419022  71.8921204  42.5069084  69.2906570
  71.7463608  41.9161949  70.0296021  72.0718307  43.3559113  69.6945496
  66.0402679  69.0853043   9.1067295  66.3333893  69.1222839  10.0171947
  66.8472061  69.0030518   8.5984793  83.9408417  38.4016228  85.5180588
  84.5670929  38.9402580  85.0344162  84.0332031  38.6852798  86.4275818
  81.9654236  58.3612671  10.0476971  82.6353226  57.6865082  10.1580048
  81.7731857  58.6557236  10.9379644  76.8030624   1.9164169  20.0287819
  76.2816010   2.3196378  20.7228394  77.3693542   2.6212261  19.7144642
   6.5812330  39.1065826  13.7905703   6.7402821  38.3013458  14.2830420
   5.7288809  38.9699860  13.3769665  46.0070801  65.9936142  77.4268646
  45.1843987  66.1908875  77.8746490  45.8141060  65.2161865  76.9028473
  50.9502602  53.0657845  41.3121300  51.5487976  52.3992348  41.6493149
  51.5231361  53.7326050  40.9334564  85.9374466  13.0519447  63.6468163
  86.4127045  13.7501183  64.0972748  85.9286041  13.3220472  62.7285576
  15.7296028  65.2121964  60.9246902  15.0526915  65.2406311  61.6008682
  16.2603416  65.9926605  61.0841293  46.0447960  67.3332138   5.1048756
  45.9674873  68.2507553   4.8433938  45.1406555  67.0259018   5.1705937
  84.9613266  15.7070379  56.7328224  84.6356049  16.3039150  56.0591202
  85.5637894  16.2387753  57.2529449  65.1976166  10.3926096  32.3865280
  65.7366867   9.8290319  31.8315372  65.5419159  11.2735529  32.2394714
  20.1522427  41.8816948  13.0372829  20.8374825  42.5332298  12.8883457
  20.5983543  41.0397491  12.9459543  83.9600143  52.0101852  75.8035049
  84.5693893  52.3947029  76.4336166  84.4485855  51.2885742  75.4075241
  84.8685608  53.6979713  60.1416283  85.5322342  54.2691574  59.7549591
  84.0811996  53.8595810  59.6218452  42.0443306  40.9344902  62.3795776
  42.5418129  40.3510323  61.8065872  42.3645210  41.8107567  62.1654167
  87.0202408  51.6818352  43.9299850  86.6121750  51.8236389  44.7841530
  86.3380203  51.2630424  43.4051857  78.6449661   8.6453934   4.0562224
  79.2952881   9.0551281   4.6266870  78.1131897   9.3744307   3.7369351
  73.7115021  62.0394325  54.2526703  73.9535675  61.9561424  53.3303375
  74.1235123  62.8557663  54.5356483  78.8027420  11.5207129  31.3728409
  78.8955460  12.1774998  32.0629501  77.9326706  11.6792994  31.0067005
  10.3207664  66.8252411  74.3121948  10.4252596  65.9727783  74.7348175
   9.3917084  67.0313492  74.4151688  70.1219330  65.6453705  40.9114723
  69.5566559  64.8767242  40.9881210  70.3403397  65.6901855  39.9806023
  52.9686813  12.1290131  18.8634930  52.1168213  12.4413519  18.5585232
  52.7673759  11.3453598  19.3749561  74.2887268  27.2794476  60.7187729
  75.1009369  26.9573116  60.3279114  74.4296570  28.2205086  60.8225861
  72.8554840   5.0763083  88.7190552  72.6848450   5.4765148  87.8664474
  72.0065002   5.0832362  89.1611099  62.3473778  11.0423813  87.1117630
  63.1882133  11.1126204  86.6597748  62.0694847  11.9489183  87.2429047
  16.2891216  40.0326729  75.8325577  16.7241306  39.1873627  75.9441223
  16.9151802  40.5606689  75.3370743   2.1105497  33.8635406  88.5503922
   1.8950360  34.6863632  88.9894257   3.0033913  33.6673203  88.8342285
   9.2176008   5.4370971  83.0743790   8.3872604   5.7546258  82.7194977
   9.5685558   4.8676243  82.3897171  64.4486008  48.8635864  20.1823997
  64.1026917  48.1039696  20.6509781  65.3902054  48.7012978  20.1251392
  37.5592918  38.8428955  88.5113297  37.9823265  39.3307686  89.2179108
  38.0741348  39.0543938  87.7325897  68.9847488  37.4929428  65.4020691
  68.6934433  37.6680565  64.5072403  69.8575058  37.1133690  65.2998734
  13.1908226  39.7204628  37.8262291  12.9949932  39.5921478  36.8981056
  12.3336163  39.8203011  38.2403069  66.7665710  12.5288963  55.9853935
  66.9577103  12.5717525  55.0484543  66.2788010  11.7123890  56.0932312
  85.9004974  57.2761002  34.5427666  86.5499954  57.9109154  34.2404518
  86.1660995  57.0700035  35.4389839  79.3138580  46.2478142  39.2208405
  79.9829407  46.8584595  38.9115448  79.5323639  46.0989189  40.1407967
  13.8158655  26.0792389  53.6949120  13.1370859  25.5264740  53.3076859
  13.3690538  26.9013805  53.8965950  39.1687508  68.8822784  80.4794083
  40.0076370  68.4349136  80.5906219  39.0193367  69.3225708  81.3161011
   3.9475679  29.2793198  29.7883492   3.8688056  30.0312672  30.3753815
   4.3065190  28.5828171  30.3381386  66.3115387  57.0137024  26.1684589
  66.5444717  57.2640266  27.0625019  66.0656281  57.8365326  25.7457142
  58.5819893  18.0279942  38.3905449  58.6782646  17.5442333  37.5702171
  58.1846619  18.8598289  38.1328430  57.9946747  48.2929688  13.3377037
  57.6564293  48.1482620  14.2213783  57.9277534  47.4379425  12.9126329
  46.1661606  28.5913219  35.2207298  46.4814644  28.8797760  34.3642197
  46.8106766  28.9327164  35.8406334  33.4499702   2.0272779  32.7358055
  34.3786507   2.1490273  32.5384102  33.0331497   2.8343923  32.4340439
  43.9366531  29.1253014  36.5063896  43.8273926  30.0683117  36.3838043
  44.7885551  28.9301414  36.1159973  67.0774078   1.5761659  37.3259735
  66.4732437   1.7634054  36.6075325  67.8014145   1.1051179  36.9134750
  19.4346943   3.5451860  27.0141716  18.9857330   4.2045274  26.4850807
  20.2061138   3.9971166  27.3560791   8.2068844  62.9674034   7.9898424
   8.5761080  62.7291794   7.1394572   7.3587441  63.3591461   7.7814484
  69.8522644  28.3868408  30.4928284  70.0248795  28.5277557  31.4237289
  70.3872299  27.6272945  30.2623253  70.6546173  19.5944939  14.3616705
  70.6606064  19.4734306  15.3111649  69.8105850  19.2412395  14.0804977
  22.0039101  33.4483414   5.0731902  22.6173210  32.7553635   5.3176174
  22.5582695  34.2099342   4.9032207  32.1530151  57.2367516  45.4720573
  31.3094769  57.1781502  45.9206543  32.6653976  56.5116692  45.8297577
  84.4033890   8.4851141  27.7999649  85.2866516   8.7612715  27.5554142
  84.5299759   7.6518502  28.2537022  46.8853073  21.0946198  82.3373566
  46.7208939  21.6148968  83.1238098  46.0507393  21.0987835  81.8686218
  37.3227882  57.4139404  43.9325829  36.6539116  57.1294785  43.3097496
  37.2231216  56.8219109  44.6781044  18.0639610   4.7447529  57.7831917
  17.9141140   5.1155548  56.9135437  18.8175735   5.2274389  58.1227722
  40.6808891   5.5003300  60.4418907  40.1052475   5.7983379  59.7375755
  40.0851059   5.1738377  61.1161880  48.9985390  47.7372971  44.8425865
  48.2314491  47.2421074  45.1299820  49.7446785  47.2087860  45.1257591
  37.9538345  68.1822433  30.6014347  38.3309708  67.3997574  30.1992817
  38.6091003  68.4626846  31.2403488  73.2571106  42.6323814  84.3748474
  73.2713547  43.5867729  84.3029709  72.6053619  42.3534584  83.7316818
  58.1517715  27.6899853  85.5047760  57.8943405  27.8002110  84.5894623
  59.1056786  27.6152859  85.4779663  57.6436348   5.6960340   6.7039018
  58.0422173   5.1072388   6.0630560  58.3127861   6.3607326   6.8671269
  42.8357582  38.9524384  19.8224258  42.1258011  38.6745720  20.4012051
  43.2849464  38.1404839  19.5874958  40.9403000  10.6823635   2.7333348
  40.0715027  10.3017082   2.8618779  41.5416222   9.9433556   2.8255951
  35.5779114  42.0664635  82.8831940  35.5081406  42.9296799  82.4754868
  36.0374680  41.5321083  82.2355042   0.4089635  47.4881554  36.7857742
  -0.1257896  47.5152817  37.5792084   1.2344658  47.9012146  37.0390739
  69.1755371   6.9159064  27.0229874  69.5265274   6.6713181  27.8792667
  69.2483902   6.1190023  26.4977551  36.5508347  14.3126450  69.0853577
  35.7327347  13.8390884  68.9347382  36.6634712  14.2998734  70.0358200
  64.3226166  19.3752174  44.5485764  64.3721466  18.9307213  43.7022896
  64.5267868  18.6939697  45.1892395  77.3975296  17.4805603  75.4029846
  76.9605103  18.1401138  74.8642502  77.9516144  17.9859524  75.9977951
  65.5157623  17.3366375  45.9058495  65.4675064  17.1683311  46.8468971
  66.3374786  17.8136234  45.7896690  53.7944374  57.6349411   8.9628906
  54.0241966  58.5638542   8.9392633  54.0902061  57.3368568   9.8230639
  14.1181545   5.2141724  59.0861206  14.0021896   4.4867191  58.4748955
  15.0468054   5.4366536  59.0202255  31.9495850  60.6342735  71.3839722
  31.2091198  60.0375214  71.2751923  32.3004150  60.4253273  72.2497025
  78.8802032  57.7473297  14.6733389  79.1207657  56.8251495  14.7624416
  77.9286728  57.7577171  14.7768707  67.9003754  20.9157162  47.1106796
  68.6002274  21.3112869  46.5910988  67.1159439  21.4090958  46.8709450
  68.1523514  53.9823685  19.8000603  67.4762878  53.4560318  20.2268333
  68.9346085  53.4311714  19.8222809  27.7644501  43.3482933  14.4714470
  27.8847942  44.1449318  14.9882793  28.6335125  43.1585617  14.1179457
   6.3972368  44.3385086  76.9182968   6.1198473  44.2251663  77.8273849
   6.5246501  43.4470329  76.5938416  19.9654694   6.1732821  58.9103127
  19.8902512   6.0469627  59.8561554  20.7292080   5.6537490  58.6592751
  71.4229050  61.4382896  77.2740784  70.9067001  61.1170654  78.0133972
  72.1937103  60.8710594  77.2557220  76.4813232  67.7224731  73.6112289
  77.3470612  67.3481293  73.4481354  76.4320068  67.8059692  74.5635071
  67.1322403  43.1792412  83.5476303  66.7571106  43.5047035  84.3659134
  67.9496841  42.7562294  83.8104553  34.3384399  67.2201538  84.6721268
  33.6799622  67.4793167  84.0275574  34.1420097  67.7529602  85.4426956
  55.5706100  50.2946625  41.9324303  55.3794060  49.8438339  42.7548790
  56.3215294  49.8242531  41.5703964  63.5471878   2.6780913   4.5285244
  62.8619080   2.1155622   4.1677136  63.5932007   2.4362812   5.4535336
   4.8282480  70.3761978  32.7353554   5.0212860  69.4624405  32.5255432
   4.1390309  70.3293533  33.3979416  55.3278770  37.5256424  31.8270741
  54.8848991  38.0996017  32.4520340  55.0731049  37.8641701  30.9687481
  59.3127594  24.0493088  23.1179161  59.7189941  24.8686275  23.4006214
  59.9672966  23.6403103  22.5517578  40.6743965  65.7637329  12.1138535
  40.3257637  65.8189545  13.0035934  41.2042007  64.9665298  12.1132536
   1.6215696  53.0575256  65.8845749   1.9317559  52.2456589  66.2856750
   1.0101737  53.4223938  66.5243378  52.9715004  63.1167755  44.4346237
  53.4454765  63.1093750  43.6030464  52.3985672  63.8814011  44.3769569
   2.9375505  32.6333618  43.3500977   3.2125771  32.1624718  44.1367722
   3.6914928  33.1764374  43.1201591  32.4977989  54.9349899  37.7117882
  31.7279644  55.4406853  37.9722862  33.0592651  55.5673676  37.2633591
   4.6359854  62.0589027   2.1601596   3.8593161  61.7863884   1.6715360
   4.4550557  62.9645157   2.4118712   1.3483496  69.1396713  63.5825081
   1.4689915  69.2341537  64.5273590   1.4497156  70.0270309  63.2381897
  26.0190239  67.2370834  40.3673096  25.9527569  66.7280045  39.5594215
  25.3506336  67.9164047  40.2778473  70.4959488  49.3439980  43.0854111
  70.0668793  49.5678787  42.2595711  69.7884674  49.3424149  43.7301598
  19.2102108  58.9171829   3.1416430  19.3022575  59.8417702   2.9116435
  18.8937130  58.5012474   2.3397329  83.2497482  23.3968506  24.2391853
  83.2296677  22.4718075  24.4843884  83.8488464  23.7984924  24.8684692
  68.2281799  41.4108620  14.1712093  67.5261383  41.1312447  13.5836859
  67.7988281  41.9945526  14.7966690  29.3201580  54.7645187  22.0489368
  28.5026569  54.3504257  22.3254395  29.2315998  54.8597679  21.1006145
  22.5759773  10.2671041  50.9078598  22.9730301   9.4260292  50.6816406
  23.0406590  10.5469284  51.6965294  67.6415710  55.3366928  51.0439415
  67.0859070  54.8637924  50.4243965  68.5130615  54.9609909  50.9191360
  23.9523602   9.4507713  78.8814240  23.3428993  10.1455107  78.6321716
  23.9490452   8.8504019  78.1359177  59.5068092  37.1940041  66.5329895
  60.3746414  37.0915642  66.9236298  58.9160957  37.2807503  67.2811584
  79.2208710  49.9157639  85.3825302  80.1296844  50.1391640  85.1815872
  79.1433411  50.0540504  86.3265076  37.8386688  28.7474728  63.9596138
  37.9046364  29.6945305  64.0819397  38.3149757  28.3762932  64.7023010
  37.9422760  29.6941509  72.0353699  37.3842468  30.0293865  72.7371140
  37.9021988  30.3667488  71.3554840  49.8061714  35.3233757  28.7261600
  49.1906242  35.9938812  29.0223904  50.1765289  35.6784554  27.9180851
  71.4811096  67.1095276  55.5579910  70.5864334  66.9034500  55.2872200
  71.7980042  66.3055038  55.9695206  60.9843559  66.3473129  53.4417496
  60.2811432  66.2814178  54.0877953  61.7858162  66.2015457  53.9443932
  13.2074537  31.1781044   7.7970409  12.2644320  31.1707230   7.9610114
  13.4907942  32.0514221   8.0677147  19.8285618  37.5269356  74.9775391
  19.4639130  36.6544762  74.8289490  20.1976929  37.4851875  75.8597107
  38.2730942  61.1663551  15.0443535  37.4362679  61.4729309  15.3935966
  38.0529785  60.7868881  14.1935959   6.3149529  53.4485703  79.1649780
   7.0044098  52.7930107  79.2704315   6.2748871  53.8924179  80.0121078
  64.2517548  21.3711758  69.0669479  63.8790855  20.5478535  68.7515335
  63.5208511  21.9888573  69.0450592   4.9573941  48.5506668  44.0723801
   5.3618279  48.4088135  44.9282684   4.0669565  48.8389091  44.2730484
  74.1146164  21.1214046  55.8482094  73.2385941  21.5065994  55.8271179
  74.4599152  21.3586445  56.7088547  63.6042786  47.7758598  59.0489082
  63.2426529  47.0386887  59.5408821  63.8377838  47.4045258  58.1981354
  15.2696733   4.9153337  16.6395702  15.4627752   5.4072289  17.4376831
  14.4087963   4.5284386  16.7990570  16.0792332  63.6421165  10.2537909
  15.6626492  63.8228798   9.4111681  15.3492756  63.4932327  10.8548155
  69.2931366  42.2957954   9.3548241  69.4776001  41.5170670   8.8296700
  68.3379898  42.3578300   9.3638916  53.8342667  30.3680134  19.3836193
  53.4718857  29.4822903  19.4038124  53.9329834  30.5652275  18.4521732
  11.4001961  62.3399200  41.1930275  10.6077576  61.9711304  41.5832405
  12.0712729  61.6729164  41.3379288  18.9751053  66.5602493  21.9465027
  18.9829617  66.0701981  22.7687054  18.9243717  67.4776382  22.2149372
   8.8103523  56.4639969  67.3837051   9.1373825  55.5748825  67.2467270
   9.5556688  57.0278587  67.1768417  66.2258072  34.9247971  12.6535711
  67.1304703  34.7355576  12.4045782  65.8669586  35.4037476  11.9065304
  47.8900108  31.1205692  78.8225937  47.6163445  30.8641186  77.9419250
  48.4317856  30.3923683  79.1266174  22.0631084  36.4591789  30.0860748
  21.8503551  37.2808456  29.6435471  21.2129459  36.0637321  30.2786350
   9.8213749  21.8133430  19.6338596  10.7474766  21.6877899  19.4269676
   9.4333067  22.1245060  18.8160515  12.4085770  52.3199425  85.3203049
  11.7012424  51.6751175  85.3097916  12.6955156  52.3458405  86.2331161
   4.0542746  49.5377884  21.4961529   4.5552421  49.7490463  20.7083492
   4.7043662  49.5308228  22.1986942  43.5820427  34.4532738  21.4760017
  44.2556686  34.1429329  20.8708992  42.7707062  34.4189606  20.9692631
  65.9564056  55.6122246  86.7935791  65.8400879  56.5433235  86.6044846
  65.0661087  55.2749214  86.8927460  71.6690063  30.5650368  77.5293198
  72.4204254  30.0335903  77.2663193  72.0371857  31.4315662  77.7019577
  85.9657364  12.1157837  69.6979980  85.2411880  12.3549614  69.1200180
  85.8942566  11.1658115  69.7911453  39.0337906  22.0622025  86.3743286
  39.9195824  22.2000675  86.0387726  38.5486145  22.8389397  86.0959244
  32.2522469   2.9872105  28.6332207  33.1432610   2.6421261  28.5763340
  31.7395325   2.4231753  28.0542374  20.2971897  60.8427048  50.2885056
  19.6140862  60.1723099  50.3015900  19.8248539  61.6680984  50.3973923
  52.0117531   4.5544758  71.9598465  52.0758705   4.7894654  72.8855362
  52.2155495   5.3645477  71.4924240  57.6228333   8.9531050  13.4497461
  57.9340248   8.3314581  14.1077347  58.1658897   8.7798328  12.6807861
   9.7271099  22.4782848  87.6116943   9.9176416  21.9734230  86.8210983
   9.5474939  21.8174000  88.2804260  85.8680725  11.7989712  11.6860638
  86.0376892  11.7133188  12.6242142  85.9836884  12.7319393  11.5059652
  22.1044712  59.1017151  79.4986343  22.7860985  58.4463654  79.3498688
  22.3820076  59.5601768  80.2917480   7.4554834  70.5087128  72.2449265
   7.8971124  71.1921921  72.7489624   8.1670904  70.0024261  71.8531113
  63.8027649  19.4237328  11.6515322  63.8284035  19.9688282  12.4379444
  64.5316849  19.7394085  11.1174345  61.8671150  14.1816759   5.8615518
  61.2760963  14.8511047   6.2062154  61.8786469  13.5022755   6.5357285
  69.3167572   8.8471794  33.6032257  69.6246033   9.7078161  33.8874207
  68.4595718   8.7504129  34.0180817  10.5084867  71.2469177  40.7834091
   9.7934875  70.6546173  41.0161896  11.2890472  70.6928940  40.7863655
  80.2428589   6.4183159  38.6950417  79.7194519   6.3167849  39.4900055
  80.8566666   7.1233830  38.9008331  66.4611740  64.7097931  86.7738953
  66.3440628  64.9709930  87.6872864  66.2304306  65.4902954  86.2701111
  84.8731461  16.8863316  72.8588562  85.4383621  17.3784180  72.2633667
  85.4743881  16.5015888  73.4965973  71.5316544  69.8020248  55.6671410
  71.8939590  70.0140839  56.5273705  71.6913300  68.8638153  55.5646591
  51.0867310  65.9894638  55.2020836  51.2900772  65.0947189  55.4746971
  51.1598434  65.9715729  54.2478485  49.2630196  36.8446274  62.0860252
  49.7341499  37.0546150  61.2796898  48.3416290  36.8265877  61.8272934
  82.4549942  57.5479507  40.8770599  83.1031418  57.1490250  40.2965431
  82.4061737  56.9536819  41.6258545  83.5327606   5.8112164  36.2836494
  83.5641327   4.8638678  36.1503105  82.6289673   6.0519428  36.0800514
  30.4140453   8.4834929  35.0028152  31.0704842   9.1801338  35.0059891
  30.9242077   7.6736321  35.0123291  26.8169861  50.9043922  64.6641922
  26.2203674  51.3093529  64.0346832  27.6255302  50.7636757  64.1715622
  79.3201294  22.0353947   8.6228275  80.0489807  22.6505680   8.7039385
  79.7148361  21.1757603   8.7693462  24.9150200   1.8674049  56.4863129
  25.5685234   1.8230582  55.7883148  25.2265358   1.2475215  57.1458092
  81.6719589  66.2482300  36.4395790  82.4457397  65.8381424  36.8260117
  81.5947495  67.0881195  36.8921890  83.3981247  57.7532310  20.3950939
  82.6561432  58.3365936  20.2357807  83.9247513  58.2093124  21.0515194
  71.7448730  38.0270691  14.7128687  70.8320312  38.3150711  14.7151299
  71.8603439  37.5903816  15.5567894  37.2853394  23.8502750  10.8652830
  38.0412598  24.0580883  10.3160725  36.5963058  23.6131248  10.2446175
  48.7270737  29.6067181  40.2839661  48.5150986  30.3182831  40.8880959
  49.1351929  28.9385681  40.8346481  29.2725525  55.8400345   8.1446857
  28.8080711  56.6103706   8.4719028  28.9184151  55.1119843   8.6553326
  38.8520889  42.7474670  57.4222260  39.5568962  42.4011993  56.8748856
  38.0605545  42.3243942  57.0894852  18.0004044  11.0731497   8.6748276
  18.5369835  11.6172628   9.2512436  17.1515617  11.0232449   9.1143799
  76.8535843   6.0949578  87.5290375  76.9707489   5.1625590  87.3470001
  76.9971313   6.1747746  88.4720383  74.8789597  58.3906593  89.2881622
  75.5025635  58.2739716  88.5714111  74.2524643  57.6751785  89.1794281
  50.4626579  43.8685837  21.9018154  50.5688515  44.8190117  21.9423370
  49.5474815  43.7194901  22.1394157  23.1477432  68.1374435  57.0914383
  23.5324898  67.3723907  56.6637688  22.7304401  68.6244583  56.3808746
  44.5001640   1.3086292  72.8420486  44.2479172   1.7455723  72.0286102
  44.4092522   0.3751726  72.6506729  27.7583771  51.0935631  77.3233414
  28.5910206  50.6520767  77.1559372  27.4360027  51.3341980  76.4547729
   6.0747967  36.6495323  56.9583473   6.2433033  36.5966759  57.8991127
   6.9186854  36.8919106  56.5771179  75.6433945  67.6107559  11.1657009
  75.6118240  66.7895050  10.6750107  74.7266922  67.8707733  11.2567091
  84.7428513  15.5771561   0.3734115  84.7309799  16.4823647   0.6843567
  84.8793716  15.6501541  -0.5711867  84.8137741  29.2895584  39.9915352
  84.9976730  28.4973049  39.4868126  84.1782303  29.7696304  39.4606438
  56.0421257   3.6657469  78.0263977  56.0683746   3.5243251  77.0800629
  56.2086258   2.8014004  78.4024506  42.0774612  48.8142014  28.8160286
  42.8591003  48.9336052  28.2765751  42.1386757  49.4995766  29.4814167
  38.2573090  60.8325157  87.5575562  38.6689606  61.0732613  86.7276077
  37.9138451  61.6566963  87.9025116  14.7819366  67.3491135  82.1283798
  14.5546570  67.2244797  83.0498123  15.7208061  67.5353775  82.1363449
  46.6062241  21.7312584  85.1893692  46.7911415  21.8714867  86.1180115
  46.3787651  20.8035107  85.1278839   4.6715598  21.9681015  30.0079079
   5.0387812  21.5837517  30.8039322   4.2361550  22.7666073  30.3063107
   3.4591968  54.9560928  67.4547958   2.8946390  54.4061508  66.9115982
   3.7641597  54.3731575  68.1500778  45.9433594  26.5597115  14.9746847
  46.5265350  27.0023403  14.3580666  45.0627594  26.7962685  14.6834564
  57.9895897  27.3694878  48.3301659  58.7503128  26.8152714  48.1558762
  58.0476074  28.0678444  47.6781197  40.4281158  50.8644180  56.1109085
  40.2756653  49.9239464  56.2031364  41.2571068  51.0182495  56.5640602
   4.3692713  11.3362846  28.3444557   4.8547158  10.8477106  29.0091896
   4.8896384  12.1266775  28.2004795  28.5071468  54.2854996  41.2205849
  27.6296444  54.0434723  40.9245377  28.3795204  54.6012611  42.1151466
  33.3726921  13.3827477  80.3896179  32.6189804  13.1344700  80.9248810
  33.0505638  14.0960703  79.8385849  69.7067108   5.9188299  72.0947266
  70.5924149   5.6302466  71.8745422  69.6638260   5.8537154  73.0487442
  41.1405029  25.7125530  62.5516815  40.5359230  26.4075546  62.2915230
  41.7687149  25.6595459  61.8314247  47.5098877  22.2443581   9.7516966
  46.8924942  21.8280144  10.3531227  47.1053543  22.1492825   8.8894072
  34.0359688  57.5611801  33.9869957  34.2749596  58.4547272  33.7406464
  33.6815720  57.1781578  33.1845436  41.2871094  30.4535236  71.0088501
  41.1017952  29.6088753  70.5984116  40.9483681  31.1001415  70.3896790
  41.2302818  54.6454315  49.0491638  41.6109009  53.7720070  49.1413116
  40.9607430  54.8840294  49.9360962   4.2428465  58.0519905  11.0712137
   4.4387531  58.7153702  10.4095659   3.6509988  57.4420128  10.6308975
  80.4776993  32.2602348  69.7643509  80.1825027  32.9865227  69.2151718
  81.0303802  32.6716461  70.4288177  18.9674034  69.6852875  61.1339493
  19.0487881  69.3942719  60.2257004  19.8393288  69.5541992  61.5065002
  82.0720749  13.2734118  53.7138290  82.3574677  13.1415291  54.6179237
  82.5521317  14.0483036  53.4217415  36.2070656  59.1850357  22.1068344
  35.3335190  59.4804192  22.3635387  36.3268661  58.3578110  22.5732880
  18.7059231  49.9693031  46.8619347  18.4252148  50.1849213  45.9725838
  19.6500549  49.8301125  46.7879753  36.1531944  22.9229832  70.5085602
  36.5643806  23.1448421  69.6731339  35.3079758  23.3716850  70.4861374
  45.4283791   6.8793998  76.0983963  45.2103806   5.9474792  76.1136398
  45.6111336   7.0675964  75.1778412  38.6777382  40.1440620   1.5138460
  39.4060059  40.7254562   1.2951163  39.0968742  39.3430672   1.8284277
  62.3050003  51.0994148  14.0376644  61.7112885  50.4471130  13.6658592
  61.9844131  51.2343750  14.9294281   2.3081479  61.7586441   0.4454834
   1.3680375  61.9304123   0.3914475   2.6886303  62.2852173  -0.2575017
  39.8399467  -0.1285042  67.0274277  38.8831177  -0.1045738  67.0390320
  40.1051025   0.6859016  67.4548187  62.2557106  35.2273178  23.3802109
  61.8548050  34.3587418  23.3473473  63.1639938  35.0820541  23.1153450
  62.0082741   0.7236590   3.1406894  61.7746162  -0.1495413   3.4555817
  61.1755219   1.1126692   2.8734365  53.3561630  23.9541359   6.6140480
  52.6202469  24.2133102   6.0595307  53.3795013  24.6154995   7.3056293
  41.6958771  36.2813377  53.5261078  41.7458191  36.8487625  54.2953720
  41.9251671  35.4119492  53.8544769  49.7830086  20.7363987  53.8481598
  50.4851608  20.9936657  53.2506409  50.2164192  20.1953602  54.5082054
   4.0126433   9.4666243  56.3589821   4.2770662  10.2935925  56.7620163
   4.7770138   9.1917839  55.8525925  25.6755867  64.4742432  50.3308487
  26.1333389  64.1723175  49.5462875  25.8185749  65.4206314  50.3422928
  84.8604889  30.3637180  50.9731598  85.4260330  30.8228168  51.5941391
  85.2557373  29.4963779  50.8852386  24.9239998  10.1057034  14.3202543
  24.2106228   9.6153994  14.7288246  24.5269966  10.5065546  13.5469885
  67.4988251  19.5479279  78.6861343  66.7637024  19.3868351  78.0946426
  67.7363586  20.4618816  78.5296097  30.6611176   1.3235817  59.8729477
  31.5814037   1.3451481  60.1353226  30.6809330   1.4248679  58.9213295
  54.0765533   1.6937360  48.7763290  53.4287567   1.4568276  49.4400063
  54.0129395   0.9991006  48.1208382  40.2948112   7.3285155  13.2316675
  39.8116379   6.8249216  13.8867769  40.3422165   6.7490768  12.4712496
  43.5609474   1.1085263  76.8139954  43.6215134   0.2951877  76.3129501
  43.5510063   1.7983927  76.1505051  56.5397949  37.7187424  35.1761742
  57.0175819  37.7710190  34.3483925  56.5941391  38.6023064  35.5403023
  85.2514038  35.6747971   6.7144217  84.9204254  35.5716171   7.6066313
  85.9220886  36.3541031   6.7848225   1.8713053  41.2971382  60.6106606
   2.7051623  40.9305458  60.9048119   1.2407733  41.0225067  61.2764206
  49.7802925  50.8554726  26.1565418  50.6923981  50.9549522  26.4292984
  49.3909988  51.7175102  26.3034115  78.9341965  15.0018206  38.5035439
  79.2210007  14.1076269  38.6890068  79.7163162  15.5369825  38.6381645
  27.2029648  45.4652290  86.0362473  26.5307465  44.8513947  85.7403412
  27.3400631  46.0484505  85.2897263   7.6929998  58.4194450  48.0132103
   7.5345163  58.6550980  47.0991058   8.6378193  58.2742157  48.0627632
  16.4304943   1.6789910   1.6521677  16.2153683   2.4979289   1.2057452
  15.7490749   1.5827123   2.3174713  72.4880371   0.1097927  65.3967514
  72.5325012  -0.3716457  64.5706329  72.7811966   0.9935969  65.1749878
  71.7237549  64.0103226  18.3429470  70.7701721  63.9365082  18.3811798
  71.8819122  64.8362122  17.8856544  30.5259781  30.5796833  61.5857697
  30.8036270  30.7949543  60.6953773  31.3379421  30.5629234  62.0923958
  76.4705048  57.0188026  77.4703674  76.8937378  56.9944305  78.3285675
  76.9317856  56.3556175  76.9569092  29.3540764  46.1695290  68.2006760
  29.0026875  45.4823685  67.6344833  29.1973839  45.8508797  69.0895691
  71.3945389  66.8118744  68.7352219  71.2233505  66.1170883  68.0994492
  71.7751389  67.5215530  68.2177887   3.5475292  33.9199905  63.5541687
   2.6022294  33.7700844  63.5671043   3.6396174  34.8719673  63.5927658
  66.8921738  50.7555542   2.6825638  67.7874451  50.4187584   2.6468315
  66.9407425  51.6107101   2.2552698  43.0465317  61.4591255  71.5401459
  43.2704773  62.3876915  71.6021118  42.1310730  61.4516602  71.2606659
  11.7514629  23.0462818  62.8682251  12.0266638  23.8529987  62.4326706
  12.4832888  22.8229675  63.4433708  60.4498978  65.0000916  83.2266922
  60.3841934  64.2518921  82.6333084  61.0202370  65.6185379  82.7701035
  24.0531006   2.6355133  28.5537739  23.6126652   2.1050065  27.8898392
  24.7928791   2.0984209  28.8374882  21.6289330  53.4895439  64.4342499
  21.7384396  52.7258949  65.0008850  22.4418430  53.9839706  64.5388870
  38.0265884  17.7191257  64.2039337  38.6491127  18.0669231  64.8424683
  38.4783592  16.9721413  63.8113136  30.5447998   1.7659702  85.0525208
  31.1708851   1.7697868  84.3284760  30.3952236   2.6916730  85.2446976
   7.9521251  11.9910688  70.7682648   7.3674693  12.1295748  71.5133972
   7.3646450  11.8471966  70.0263748  12.3641891  68.6731415   6.7900825
  13.2163992  68.6177444   6.3577628  12.2003860  67.7863770   7.1111054
  86.0688171  52.3354301   4.6172891  86.8247910  51.9629326   5.0711422
  86.1445618  53.2788506   4.7602897  85.1971207  17.8475590  45.8818970
  84.7530975  17.0751648  46.2318840  84.6440811  18.1327095  45.1545258
  16.1643009  52.6865845  17.1596146  15.6803160  53.3113632  17.6996517
  16.0766182  53.0226822  16.2676620  11.7092848   8.0402327  28.0253525
  12.3690872   8.0792923  28.7177162  11.3304033   8.9190350  28.0057087
  51.1005058  70.6812592  77.5257645  52.0221672  70.8814850  77.6891098
  50.8784332  70.0220490  78.1833038  23.0760365  22.7138882  77.1909866
  22.5489578  21.9497929  77.4246063  23.3065205  22.5741272  76.2725296
  43.4744034  44.7633972  69.3638687  43.3937836  44.1816750  70.1197357
  44.2147293  44.4121017  68.8691635  61.5726128  38.1304817  80.6670074
  61.6722145  39.0338020  80.3664627  61.2110329  38.2102356  81.5496902
  64.7848663  42.0904236   7.9313750  64.9291382  42.2282753   8.8675451
  65.6346207  41.8023605   7.5979505  17.5531788  43.2722549  29.9954853
  16.6410351  43.3099709  30.2832336  17.5045204  43.3057861  29.0401096
  76.4437714  60.9358521  66.9337463  76.9748383  60.7047958  66.1716385
  75.7689972  60.2579079  66.9698944  33.6681671   5.0797200  12.3525686
  33.3706894   5.9513345  12.0917463  33.5720863   4.5475545  11.5627584
  61.7179222  34.9316139  26.4934196  61.6345711  35.0715065  25.5501728
  62.0150299  35.7748756  26.8352833  30.9519939  47.5477066  55.7342567
  31.7795010  47.0733376  55.8145065  30.6363983  47.6326637  56.6339302
   7.6483326  20.3658085  20.7469349   8.4768324  20.7609177  20.4754429
   7.0045476  20.7101498  20.1279030  25.6243095  38.3273735  50.8898735
  25.2298393  38.7555923  50.1301041  24.9209785  38.2946014  51.5383224
  22.3358383  48.4186134   1.9100454  22.9373322  49.0334167   2.3301122
  21.8854561  48.9402351   1.2457415  45.2864227  51.0017471  53.6758728
  44.6897316  50.2920876  53.9137230  46.1332970  50.5722656  53.5551147
  83.0598679   1.9115602  12.8486395  83.4665604   1.2637755  13.4241419
  83.7300415   2.5855408  12.7353020  74.2355652  56.6542130  73.0027466
  74.5326157  57.2683296  73.6742096  75.0037994  56.5147095  72.4490433
  86.2544174  33.5648117  81.3026505  85.7011185  34.3384628  81.4101486
  86.9546356  33.6800003  81.9450455  69.9305420  14.0259161  32.1673203
  70.7261887  13.4949856  32.2033119  69.5454330  13.8228207  31.3148689
  15.8905258   0.6181668  63.3183365  15.1705446   0.9279644  62.7688980
  16.6388607   0.5632421  62.7240219  61.6564369  32.5872574  24.2052917
  61.5925636  31.8454018  23.6037903  62.5710831  32.5887222  24.4875088
  61.2463264  43.8945312  52.5513115  61.2110901  43.0527191  53.0055618
  60.9855766  43.6928673  51.6526604  70.7983932  25.7443771  43.5392799
  69.8455734  25.8336658  43.5196152  70.9526978  24.9280109  44.0146446
   0.1860638   7.7326517  26.8223591  -0.0980303   6.8586054  26.5548420
   1.0682094   7.6017900  27.1701031  31.6287098  67.2631226  51.3713188
  31.6430817  66.9127274  52.2619629  32.5454445  67.4563522  51.1751366
   7.1105151  38.0758858   8.1050987   6.9656739  38.9454880   7.7322173
   7.7651129  38.2147560   8.7895308  21.4077721  67.5870972  27.2023811
  21.1795712  67.5792923  28.1319485  21.6580677  66.6835327  27.0096111
  59.3285942  34.0840530  35.6227570  59.6448021  34.8608208  35.1613693
  58.4722786  34.3407288  35.9649124  60.5716972  61.0003967  58.6313744
  60.7825394  60.8539009  59.5535011  61.3027802  60.6088829  58.1533928
  12.1666203  48.9735336  56.7277565  11.7559786  49.4300728  57.4620438
  11.7214136  49.3168945  55.9530754  74.3844376  46.1220703  21.5966129
  73.7087860  46.7999229  21.6125774  74.3876038  45.7660828  22.4851494
  16.4845562  18.5113049  69.0176926  16.2905045  17.6431789  68.6642303
  17.2492161  18.8058910  68.5229721  51.2438583  41.1623535  78.0938721
  50.4276543  40.9432564  78.5433578  51.6208076  41.8718872  78.6141586
  85.7367325  24.9944229  42.6074104  86.0380249  25.8309307  42.9619637
  86.5142365  24.4361897  42.6171303   1.3532162  65.6120758  80.5511627
   0.4456325  65.6250992  80.8550568   1.5557472  66.5283508  80.3623428
  86.1196136   7.9990220  61.4171791  85.5420074   8.7294817  61.6386032
  85.7714767   7.6598415  60.5925636  33.1862106  39.1999397  67.7575684
  33.1929169  39.8629227  68.4479599  32.4131660  38.6673088  67.9444885
  73.5460358  59.4185715  53.9392281  74.2463989  59.2135735  54.5586586
  73.5176010  60.3751106  53.9178238  25.9074001  40.4339752  81.7007370
  25.2461529  39.8170738  82.0144577  26.6657581  40.2791214  82.2638931
  47.5235062  15.7077112  15.3092709  47.1523247  16.2371273  14.6034546
  47.1990471  14.8230152  15.1411257  69.3347092  16.7979145  23.9013271
  69.0500412  16.1123524  23.2970123  69.1618423  16.4374580  24.7710514
  81.7094345  53.4064484  76.4984207  82.4379654  53.0333672  76.0021439
  81.6027908  54.2880287  76.1411057  48.7387733  45.7362061  73.4780197
  48.4367943  45.8046913  74.3837509  49.5269470  46.2784576  73.4466782
  77.2711563  53.7170715  68.8270721  78.1173553  53.3619385  68.5549240
  77.0971069  54.4240799  68.2057266  49.4334869   5.1565518  54.2388954
  49.0401802   4.9208617  55.0791283  49.1551132   4.4627228  53.6411171
  24.8561974  61.6058655  61.6946945  24.3840752  62.4227791  61.5334854
  25.7741241  61.8689003  61.7614441  81.0716476  69.6317520   5.2043285
  80.3863373  68.9884491   5.0233679  80.6503830  70.4784698   5.0565662
  51.7806778  31.7314548  70.9688568  52.3575096  31.2580070  71.5683136
  51.7702255  32.6278419  71.3044281  37.7098770  67.6961746  57.9990234
  36.8855095  67.2468643  57.8125496  37.5868874  68.0699463  58.8716049
  42.4540367  27.8040752  31.3039780  42.0175781  28.1258240  32.0927849
  42.5643501  28.5818901  30.7571087  58.5966721  43.0914574  88.2644958
  57.9607658  43.1941261  87.5564575  58.0848198  42.7523232  88.9988174
   2.2035108  52.5594025   5.2081046   2.0771625  53.4943199   5.0462661
   2.8434653  52.2868385   4.5505333  74.1989136  56.2048569  81.3052444
  74.1857529  55.8507957  80.4160309  73.4834671  56.8405685  81.3205338
  79.6482925  34.4439964  14.9830856  79.8706207  35.3712006  15.0673389
  79.4145889  34.1721268  15.8706093  45.2385521  27.0557041   7.5211940
  45.4364319  26.6318989   6.6860509  44.7657356  27.8521194   7.2795281
  42.9828987  44.8061943  83.6084366  43.6633263  44.7784691  84.2810974
  42.2177200  44.4100037  84.0252914  21.0403481   7.4889312  78.0670013
  21.6927700   7.1670818  77.4449158  21.0474243   8.4390955  77.9513702
  14.4365129  64.2564163   7.9365420  13.8393078  64.9503784   8.2158127
  14.8136292  64.5798492   7.1183677  78.6151505  33.4782066  40.7636223
  78.5122299  34.1251831  41.4615211  78.8322754  32.6655731  41.2204781
  22.5469494   0.5879636  83.1364899  23.2021847   0.6573211  83.8308182
  22.9530735   1.0122447  82.3806610  42.9159927  70.2448044  14.1568670
  43.0063934  70.1867981  15.1080217  42.2137413  70.8809738  14.0213728
  57.9115829  15.9637175  60.1338196  58.7673683  16.3538170  59.9558182
  58.1056023  15.0546856  60.3623962   9.4710922  42.6873779  76.8495712
   9.1981487  43.5138435  76.4512100   9.2817001  42.7966118  77.7814636
  17.4762802  49.9510345  84.1727142  16.5674419  49.9215317  83.8737640
  17.9453411  50.3998604  83.4693146  84.5771408  15.0137663  20.3193073
  84.6972580  15.9573898  20.4259777  84.8195038  14.6439857  21.1682796
  39.5613976  45.2640495  54.0118790  39.2330704  44.3817787  54.1851807
  39.8300781  45.2434998  53.0933914  30.6038837  29.8529263   7.8577914
  30.3673172  30.7558556   8.0698891  31.2459755  29.6105156   8.5250158
  53.8508644  32.6478691  77.4702911  53.0928230  33.2122231  77.3182831
  54.5620651  33.2533188  77.6797104  47.8460693  39.4579659  50.3270416
  47.5476151  40.1309547  49.7152863  48.7032471  39.7654533  50.6218758
   6.0382228  25.4873352   3.5391099   5.6422334  26.3491497   3.4098799
   5.3230720  24.9418087   3.8665116   2.8555593  67.3439255  55.9892349
   3.5325224  67.9549637  55.6984100   2.3388147  67.8424759  56.6222038
  29.8492756  66.1049118  67.7228928  30.3190346  66.0387726  68.5542679
  29.9541893  65.2433243  67.3193054  17.8212566  61.3972816  83.2048416
  17.5879173  60.9638367  84.0257645  17.5279655  60.7928200  82.5230484
  36.6807404  62.1293411  35.3414307  36.6945419  62.5067368  36.2209816
  35.8706398  62.4586601  34.9521790  37.8334770  47.1127625  87.6309128
  37.9871674  47.3958015  86.7295303  38.2434273  46.2494278  87.6840668
  48.9301529  28.6976929  70.8422241  48.9916344  28.1084061  70.0904312
  49.4427109  29.4649734  70.5876617  28.7107506  29.0448360   0.9814736
  28.6523438  28.2492180   1.5104438  28.2200413  29.6994152   1.4784272
  12.2416458  66.0699234   8.0942125  12.0417299  65.1343994   8.0617828
  11.5569696  66.4420242   8.6500816  50.5298271  31.5738201  21.5259953
  50.1658440  31.8657398  20.6902122  49.8345642  31.7423573  22.1619511
  78.2205582  37.0628548  52.4541283  78.9265213  36.7806320  51.8725815
  78.1235809  36.3444939  53.0792542  77.8333817  50.6994057  76.1956406
  78.7504425  50.4308853  76.2515869  77.3905640  49.9557037  75.7869339
  28.8176136  32.0413857  81.6582413  27.9802380  32.4592705  81.8592606
  29.3725471  32.2422523  82.4118576  36.7453537  15.7853260   0.2521497
  36.0351982  15.3398428   0.7141622  36.3031807  16.3263111  -0.4021043
   2.8035910  34.7164841  19.3034973   3.6550853  34.2816963  19.3498478
   2.1695290  33.9997292  19.2819977  50.5450706  29.9324169  16.7758198
  51.4722710  30.0196648  16.5546341  50.4803200  29.0788860  17.2042141
  69.0069046  47.0988579  53.9639969  68.9363098  47.6119652  54.7689629
  69.9421616  47.1004066  53.7602234  42.7905273  54.2535934  34.9664917
  42.2154541  55.0183678  34.9411659  43.0102692  54.1497116  35.8923187
  27.1796246  22.1841965  70.1088409  26.6575947  22.7856274  69.5778046
  28.0844994  22.3617229  69.8520889  84.5674210  11.6944342   9.1048908
  83.6531830  11.9535961   9.2199297  84.9484253  11.7653494   9.9801292
  67.7612915  63.8436165  71.9198151  67.0441666  63.6564255  72.5255508
  67.8855133  63.0270538  71.4360504  15.3468237   4.0638695  66.9204483
  15.5621967   4.9939260  66.8508682  16.0376282   3.6205590  66.4280014
  44.6297112  55.9413185   4.1981153  44.6992607  55.0038223   4.0178518
  44.1778450  56.2992744   3.4339712  33.6931000  51.2895088  85.0317764
  33.5831985  50.3737297  85.2876968  34.6404495  51.4264717  85.0328751
  25.8679829  44.7091904   5.8454056  26.7873669  44.9581909   5.7507353
  25.5432472  44.6459846   4.9471936  80.1105423   4.5254598   6.1391764
  80.0115128   3.5913258   5.9552789  79.4892502   4.6974597   6.8467345
   2.3083551  35.1271400   6.3940434   2.3405538  34.4132957   7.0309286
   2.5275438  34.7133484   5.5591989  32.3374519  36.7231560   4.5566301
  31.7687683  36.1625557   5.0844150  32.9889984  36.1256447   4.1896181
  46.4089966   4.5145750  74.3572617  47.1899109   4.7341595  74.8653793
  46.2446899   5.2915096  73.8228378   6.7027035  37.2087021  63.0367126
   6.7739019  36.4123001  63.5629311   7.6005731  37.5340843  62.9720001
  83.2734375  62.0203056   6.5686312  83.6896133  62.8784065   6.6504483
  82.9928131  61.8044434   7.4579482  25.1029243  21.7782001  83.3235779
  25.7418823  21.7332420  82.6122818  24.7399006  22.6618786  83.2639389
  57.8444061  12.7566299  43.7910233  57.8237724  11.8140402  43.6257019
  56.9757538  13.0642767  43.5321159  57.4678268   8.6884775  72.0357971
  58.0914345   9.2978239  72.4308167  56.6135139   9.0980501  72.1723022
  51.0145378  67.3896179  16.5543365  50.3234177  68.0296860  16.3843403
  51.6387329  67.8536148  17.1122990   9.1715498   5.6985140  69.8102264
   8.2382221   5.5269833  69.6848907   9.5140629   5.8185625  68.9244995
  19.1209068  18.3195000  68.6534424  19.3166351  18.3286572  67.7165070
  19.9565411  18.1100159  69.0706558  55.0367393  37.9672165  54.9581680
  55.2582283  37.5502548  55.7908249  55.6101341  38.7323647  54.9134636
  82.0146255   2.4429796  55.7024040  81.9639816   1.6563747  56.2454720
  82.2085724   2.1155729  54.8240967  33.9197197  24.3760090  70.1739731
  33.7863960  25.2682037  69.8539047  33.0369415  24.0131454  70.2464905
  62.9327850  15.9357595  83.6909485  62.1398010  15.5550404  84.0683899
  63.1723557  15.3373785  82.9832916  78.0584946   5.2289996  72.8804398
  78.4061966   5.4047680  73.7547607  77.5975342   4.3948169  72.9692383
  78.2936325  45.7685738  64.0767288  77.7385254  44.9979439  63.9575157
  77.6799088  46.5020905  64.1159058  24.7127895  66.8514557  82.4498901
  25.4002457  66.1865463  82.4107513  25.1773949  67.6824493  82.3507690
   7.4366302  64.0960770  43.6243477   7.0364051  63.6378746  42.8853607
   7.2810807  65.0231705  43.4439926  22.3970375  51.2072105  38.2113075
  22.0752239  50.3453674  37.9469299  22.5195312  51.6800117  37.3880920
  35.7925873  52.8279495  27.7304497  36.0148430  53.4829636  27.0687923
  34.8413849  52.7396622  27.6700268  50.6278534  22.4311771  11.3013821
  51.0074310  22.4515343  12.1798677  50.0767937  21.6485233  11.2966490
  52.8514023   4.1496382  56.7704315  52.8571625   5.1050568  56.7123451
  51.9278259   3.9217050  56.8766403  68.4435349  20.8244209  28.1348515
  67.7768478  20.9556770  28.8090382  68.4391937  19.8808060  27.9742126
   6.7326932  63.4583588  12.7879314   6.5595422  64.3359604  13.1286249
   6.9609327  63.5988846  11.8690233  70.4738846  13.7897053  81.1286697
  70.4696884  14.1554279  80.2441025  69.9456558  12.9942827  81.0614853
  86.5881729  37.7851486  68.6929550  86.8368149  38.5042038  68.1121216
  85.6649170  37.6266403  68.4962082  56.2102585  35.3300629  65.9044266
  56.6595001  35.9960938  66.4248199  55.5123978  35.0099297  66.4760361
  30.2388630  42.5730133  67.8613892  29.6873703  42.5927811  68.6434937
  29.7503128  43.0775566  67.2110062   7.8676023  23.7770691  84.3141632
   7.3420706  23.6428013  83.5254822   7.2273598  23.9738922  84.9979630
  72.2142639  71.3219986  33.1130753  72.4468765  70.7271042  33.8259773
  71.8413620  72.0868683  33.5514183  25.0770798  40.3318558  11.5959949
  24.9636803  39.8020515  10.8068953  25.0011768  39.7069016  12.3170357
  29.3273907  54.8811150  67.6486893  29.4265900  54.3965874  68.4682159
  28.3909016  55.0717506  67.5950089  42.6559258  45.5136490  49.5340614
  42.6043320  44.5667152  49.6640091  42.3299179  45.6514740  48.6447067
  20.9840412  65.9907074  56.0971756  21.5041809  66.0758591  55.2981529
  21.2072506  66.7661591  56.6120415  85.9317322  31.0579910   3.6885076
  86.3924789  30.6314430   4.4110007  86.6131363  31.2313595   3.0389967
  16.1543312  63.8829765  83.5379639  17.0204124  63.4780045  83.5841751
  15.9483728  63.9019623  82.6033707  85.2944717  33.4882965  74.2255783
  84.9320908  32.7831993  73.6891556  85.2380371  33.1598129  75.1228714
  46.9930649  57.9158401  22.1840477  47.4956398  58.7253952  22.2749748
  46.2502365  58.1560059  21.6301899  28.3979511  67.7061844  38.9057541
  28.2489471  68.5968552  38.5883827  27.7956047  67.6109085  39.6435471
  62.7406082  20.7465668  62.6672363  63.3614845  21.4245853  62.9337578
  61.9131737  21.0070858  63.0718575  62.8163033  44.0141754  29.1217804
  61.8835793  44.0493851  28.9095993  62.9462700  43.1384163  29.4856300
  37.9915848  68.7499084  77.9712906  38.7925682  68.5435867  77.4895325
  38.2720566  68.8190918  78.8838577   0.5490234  40.7195396  14.1188745
   0.2534382  41.5497704  13.7452707   0.8983305  40.2320480  13.3728399
  34.0569420  63.6111488  88.7789459  34.4405746  63.2862244  89.5934906
  33.9309883  62.8273392  88.2441483  85.5676575  43.0178947  78.2941589
  86.1133804  43.2937965  77.5577545  84.7031250  43.3803139  78.1005936
  42.6351089  37.6173973   2.2075315  42.8231964  37.0227165   1.4814423
  42.9054680  38.4783096   1.8882076  78.9989853  15.4267025  12.7192535
  79.2770004  14.5580139  13.0096292  78.0597000  15.4510822  12.9019709
   6.8619013  15.0980501  17.4447174   6.6204395  15.4150190  16.5743961
   7.7872906  15.3257685  17.5343342  44.3061981  48.3536720   5.4080644
  43.3497734  48.3155251   5.4026031  44.5699730  47.8615723   4.6305714
  28.1440811   4.2843409  80.3763046  27.3844280   4.0821357  80.9224472
  28.4152622   3.4381480  80.0204239  70.3706436  13.3763494  84.2904053
  70.3611984  14.2024021  83.8068924  70.8995972  12.7889137  83.7506256
   0.3026818  61.6121292  19.9768143   0.8079663  61.5268707  20.7852993
   0.0687219  60.7134552  19.7446918  48.2078171  42.0501900  46.1701622
  47.5154572  41.6478424  46.6945534  48.2916183  41.4798470  45.4060135
  26.1221581  25.4245224   3.9029496  26.4019642  25.6524525   4.7895093
  26.3835678  24.5098248   3.7970140  13.2570572   3.4331450  20.4778824
  12.6742926   3.4247165  21.2371883  13.8887939   4.1265459  20.6685009
  46.5535393  47.2241173  27.2160320  46.1590767  47.0469971  26.3620644
  47.4437637  47.5118065  27.0136204  85.7596970   6.0162926  34.0333557
  85.2362595   6.0423951  34.8343315  85.8951035   5.0836124  33.8660126
  83.9447403   9.2610340  16.1181774  83.9475861   9.7392435  16.9473572
  83.4961395   8.4392166  16.3171883  64.1769333  22.1405182  32.3339500
  64.4160385  21.2201691  32.4435921  64.2688751  22.5177364  33.2088699
  38.0579758  44.5413284  64.4644623  38.7557335  45.0561447  64.0590820
  38.4593468  44.1710129  65.2505875  15.1874189  42.6369896  45.6448936
  14.2334414  42.5594330  45.6329308  15.4090605  42.7237358  46.5720291
  76.7520065  65.8172455  29.7570896  77.1212997  65.0488358  30.1923008
  76.3243713  66.3076935  30.4591045  65.7862473  71.2440491  39.3029251
  66.5099182  71.5578918  39.8451805  65.9719391  71.5921783  38.4308281
  26.5482864  35.0418129  78.4341125  25.9510078  34.6113586  77.8223953
  25.9765739  35.4116440  79.1068726  69.4019394  52.9692078  69.3248901
  70.1758118  52.4298172  69.4873962  68.6635056  52.4004631  69.5428009
  77.5619354  69.5176086  12.0850554  78.4160614  69.1777496  11.8182249
  76.9365082  68.8610077  11.7785616  80.0915909  11.8803005  85.6314545
  79.4443130  11.9495335  86.3332138  80.8518677  12.3611326  85.9585724
   1.5852710  46.4021606  83.5400925   1.3662710  46.6555481  84.4367905
   0.7379763  46.2695808  83.1149521  19.3799629  57.9540482  44.1907043
  19.7352810  57.1025467  44.4455070  19.0700512  57.8257027  43.2942047
  81.6422119  70.2029953  13.1886139  82.0477905  69.3589935  13.3871059
  82.2178192  70.8479080  13.5996885   1.4715979  37.6643562  45.7912827
   1.0517422  37.7455978  46.6476402   0.7445459  37.6443443  45.1690063
   9.0607748  11.5459528  11.2176733   9.8919191  11.7010555  11.6664200
   9.2699928  10.9007177  10.5422983  39.5775337   0.9350874   7.0463104
  39.4476166  -0.0113507   7.1063719  40.0114250   1.1698176   7.8665991
  50.3044891  33.4528160  56.2432365  50.5043831  32.5723305  56.5610657
  50.7282639  34.0365372  56.8724556  81.8133621  50.8649101  57.9795380
  81.6756668  51.6031647  58.5730438  82.5835648  50.4168816  58.3292503
  35.6112633  70.3477707  76.6395340  36.2278175  69.9951706  77.2812271
  34.7767830  69.9314499  76.8552933  75.5074615  18.6786766  79.2354584
  75.7141418  19.5308628  79.6192474  75.1244659  18.8863754  78.3831711
  79.3534012  58.2762108  25.1419353  79.9477463  58.2239532  25.8904400
  79.8566360  58.7330818  24.4679508  44.3139305  57.3917809  45.9668465
  44.8777657  58.0452995  46.3806496  44.2605972  57.6665802  45.0514908
   2.8330996  21.5722218  25.3657665   3.3207726  20.7620029  25.2175980
   2.8353846  21.6826801  26.3165703  29.9308567  62.2613487  58.1332970
  29.2727852  62.5757484  57.5133553  30.0998783  61.3580284  57.8655739
  30.2899075  17.9846210   3.0047452  29.7544994  18.2160892   3.7636871
  30.2091026  17.0333328   2.9357920  70.0560074  39.0423012  67.5724411
  69.6050873  39.7771797  67.9881973  69.4384689  38.7239075  66.9140320
  40.1798744   4.0904098  67.2668762  40.0715790   4.1210613  68.2174377
  40.1543083   5.0072994  66.9932175  63.9336815  50.9820137  76.3225098
  63.1164436  50.4959412  76.2125626  63.7060890  51.7037392  76.9086380
  50.2810326  47.9692726  73.6781845  51.0139313  47.7030182  74.2333374
  49.6573906  48.3726540  74.2819901  47.0561981  47.5547981  64.8625183
  47.4800987  47.1970749  65.6426315  47.4055977  48.4426498  64.7859116
  69.2915726  12.6924944  29.8985882  69.8666992  11.9954357  29.5830441
  69.5794754  13.4731464  29.4253788  61.0432243  48.4735260  49.9782753
  61.1879272  49.0924911  50.6939392  61.3849831  47.6423225  50.3077202
  30.7561398  30.0447102  70.9151001  30.7155399  29.0931244  70.8198776
  31.6921368  30.2449093  70.9230042  18.7245579  45.1218491  68.3348694
  19.2593460  45.2551384  69.1174698  18.0822201  44.4609528  68.5934219
  53.2808876  36.5132904  59.9202461  54.2275314  36.5202065  60.0618401
  52.9502754  35.8659477  60.5430412  85.4773865  46.0110893  16.7064438
  85.9352646  45.3172302  16.2319546  85.1153183  46.5717735  16.0203171
  30.9334812  43.2077370  16.4932289  31.8689995  43.1717529  16.2938766
  30.7981319  42.5097275  17.1340866  19.3614445  33.1709251  63.8524513
  18.7953930  32.9093018  63.1262512  20.1008968  33.6110229  63.4332199
  80.9054108   2.3935711  42.2448883  80.7259216   2.6228986  41.3330650
  81.6529160   1.7974274  42.1992378  56.2785416  52.9666443  41.2798843
  55.7542572  52.2351494  41.6058807  56.0433159  53.0363197  40.3546562
  70.9153290  44.4605789   9.6192446  70.5041580  43.7115135   9.1878862
  70.5996246  45.2210350   9.1311178   0.9245943  36.9675903  63.4264603
   1.6322880  37.4833603  63.8129578   0.1259671  37.3353195  63.8048820
  23.3187714  59.9386711  31.5937214  23.2706871  60.6296692  30.9330807
  22.5395699  60.0693054  32.1340981  83.6064911   6.6656070  40.7017212
  84.2572250   7.2649627  41.0671654  84.1175995   6.0447016  40.1826019
  29.3999157  47.3838806  13.1422663  30.2758217  47.6318321  13.4381418
  28.8207817  47.6552811  13.8544292  63.1504402  40.0385361  15.0637760
  63.9170570  40.1042709  15.6331739  63.0100784  40.9308662  14.7471075
  79.1067963  49.9621887  36.1223373  78.8593063  50.6939316  36.6876144
  78.2925949  49.7099571  35.6868057  47.5952911  65.7096786  56.6395950
  47.5398216  66.1150818  55.7742653  48.2024612  64.9788971  56.5232468
  34.2711258  61.3518982  87.2714539  33.9670792  60.6100426  87.7943649
  33.7511711  61.3083839  86.4689636   3.7539163  60.8733711  47.2306252
   3.1291685  61.3317032  46.6686172   4.5355787  61.4257545  47.2201118
  56.5691910  64.3698730  75.6533661  56.1252823  65.1759644  75.9168015
  56.7215271  63.9011803  76.4739456  66.8811264  51.6019630  68.7782822
  66.8008728  51.1206131  67.9548187  67.0469742  50.9261627  69.4355621
  77.1008530  59.0014114  58.3633652  76.8767471  59.6441422  59.0363464
  76.3065720  58.9206810  57.8353157  34.0043297  46.9950867  20.9070492
  33.0654449  47.0520744  21.0844784  34.4061127  46.9021111  21.7708530
  22.9387741  56.0866623  65.2340393  23.7338886  55.6804390  64.8890610
  23.2430801  56.8930283  65.6504517  14.6018066  67.6474228  19.7479630
  15.4167881  68.1486969  19.7204914  13.9309702  68.2929153  19.9705601
  13.3508558  51.4110413  59.2623749  12.9190741  50.6735153  59.6934776
  13.7923431  51.8780708  59.9717445  13.4082422  42.2589912  66.7504120
  13.6887579  42.7879982  66.0036240  13.6301661  42.7888222  67.5160904
  25.7653008  15.8663616   7.8913794  26.1635818  15.3836679   8.6156797
  26.3222008  15.6702900   7.1379542  56.3427620  46.7259941  48.3733177
  57.2326813  46.7908096  48.7198296  55.7787781  46.8702469  49.1331482
  43.2726440  28.7428932  14.3175011  43.0285721  29.6093922  14.6428318
  44.0354958  28.9018974  13.7616186  44.4352150  52.5729980  55.9867630
  44.4161530  51.7276688  55.5381126  44.9792061  53.1283417  55.4282913
  47.9473152   2.7035344  55.3888931  47.3389168   2.7365904  56.1271286
  47.4332886   3.0081313  54.6410789  26.3445587  41.7251587  67.8201904
  25.9508934  42.5954781  67.7585220  26.3811855  41.4142075  66.9156494
  14.3094444  16.3876343   4.5260057  14.2951384  15.4559050   4.3071251
  14.5508080  16.8221569   3.7079804  44.7181931  36.2260056  32.4715805
  44.7148628  35.6455269  31.7104855  43.9295197  35.9870224  32.9585266
  78.1238251  30.2775917  40.6992073  78.8996735  30.3340187  41.2569809
  77.6504898  29.5116577  41.0240631  32.3907967  48.5692787  48.8071556
  32.4467964  48.2817192  49.7184219  31.8579025  49.3637848  48.8390350
  80.9712372  10.0799360  57.1340179  81.3284454   9.6746950  56.3438187
  81.4729996   9.6910257  57.8504105  40.2383575  17.3827667   6.7274694
  39.8292923  18.1969872   7.0206256  40.3443680  17.4945946   5.7827535
  44.3103943  15.4223557  10.0048389  43.7603760  16.1979961  10.1148024
  44.0907707  15.0946846   9.1326990  82.1104660  57.0185127  80.5859833
  81.5799026  56.2402573  80.4155350  81.5009308  57.7500458  80.4882126
  10.6996021   3.2645013  60.2623024  10.5563393   3.3785040  61.2018318
   9.8234787   3.3087826  59.8793182  29.5588512  71.6176834  33.7667313
  29.3685970  70.8828049  34.3498192  30.4540520  71.4599152  33.4668045
  64.4055176  64.1432114  54.3330078  63.7398109  64.6846466  54.7571793
  64.8865433  63.7435188  55.0576363  56.3823433  47.9819870  63.2882004
  56.5333900  47.7951660  62.3616409  55.5835686  48.5093155  63.2990913
  65.0040207  26.8365765  67.8257446  64.8991547  27.7515945  68.0864639
  65.4020691  26.8793812  66.9562836  70.5706787  -0.2110081   7.9559054
  69.7767181   0.3096772   8.0773249  71.0734711   0.2688397   7.2977414
  77.9522018  67.4829483  34.5692940  77.8827209  67.9511642  33.7373238
  78.6786804  66.8730392  34.4409485  10.3112488  45.3457565  11.6415024
   9.4311228  45.4067612  11.2701693  10.8743439  45.1511955  10.8923025
  58.2283821  66.3168335  85.0251007  58.1413498  65.3984299  84.7697754
  59.1542435  66.5169907  84.8874588  33.7418213  36.7766762  83.2008972
  33.9766464  36.1182899  82.5469742  34.3747368  37.4824028  83.0682297
  84.9456558  45.3379021  51.6734962  85.8310623  45.6701965  51.5256462
  85.0559082  44.3906021  51.7553291  70.2030029   8.1321430  76.2322922
  69.6585770   8.7232265  76.7523499  69.7000046   7.3188963  76.1892090
  32.5075722   0.1208065  19.9692116  32.7854118   0.8567812  19.4238853
  31.5695438   0.2599471  20.0994911  82.8186035  13.9633198  56.5627060
  82.0755386  14.4681301  56.8932419  83.4864655  14.6204643  56.3668785
  76.5655441  47.8787575  33.1051598  76.0265961  48.6075745  32.7976036
  76.3140030  47.7649536  34.0216827   9.6362629   1.9024318  56.7419167
   9.3649569   2.2532332  57.5901871   9.9790077   1.0312773  56.9415359
  77.3625870  11.7566576  39.0888481  76.9433975  11.9954634  39.9155807
  78.2806549  12.0006456  39.2065582  39.9489441  71.2937164  88.3412933
  40.5234680  71.4865799  87.6003723  39.4419289  70.5323410  88.0593796
  15.1325531  35.3986320  78.3120270  15.1994839  36.2135277  78.8097229
  16.0152702  35.2525330  77.9718857  74.4384613  12.2765589  19.2279873
  74.3013840  13.1300936  19.6389885  75.0939255  12.4397945  18.5497913
  46.5909271  20.1863270  57.5124626  46.4673767  21.0520782  57.9016151
  46.7613068  20.3618031  56.5870399  33.2612343  43.8517761  57.5128365
  33.1763344  43.0554733  56.9885025  32.3617554  44.1560364  57.6336403
  83.6099319  29.6636372  34.0991096  83.4305801  30.0688667  34.9475517
  82.8011703  29.7825546  33.6011276  54.3733749   5.8172259  52.2066002
  54.1642647   6.6589470  52.6115799  53.5333290   5.4918184  51.8830795
  26.8627510  15.5328360  62.0749893  26.1379929  16.0706615  61.7560883
  27.5869751  16.1486893  62.1866074  19.1439972  21.6885605  77.9253769
  18.4250622  21.0760212  78.0808029  18.7457142  22.5539570  78.0186081
  23.6461239  12.5241308   9.1870050  22.8866463  11.9477234   9.2717438
  23.5071659  13.2021694   9.8482056  20.2918320  25.3030529   2.2298794
  19.7343082  25.5998344   2.9491296  20.0625610  24.3809853   2.1138799
  46.0350761  54.2227974  79.1865463  45.2948456  54.5017776  78.6476059
  45.8503075  54.5848694  80.0531464  51.7346916  61.5104752  40.0857201
  52.5190697  61.3255463  40.6022339  52.0658302  61.9145889  39.2836800
  75.6114349  62.6535034   1.2258191  75.4203796  63.3234711   0.5694082
  74.9185486  62.0028648   1.1126797  32.2444801   7.8430338  63.7001038
  32.2476501   8.7524595  63.9987106  31.6056881   7.4077897  64.2646713
  84.7245865   9.6621656  30.4529457  84.7134476   9.9678459  29.5459366
  85.6518555   9.5285702  30.6493053   9.2474432  19.3420658  82.2777634
   8.9456587  18.5840626  82.7783508   9.7736683  18.9682369  81.5709610
  81.9022827  12.8955059  50.5920830  81.0318375  12.4987040  50.6254120
  81.7642441  13.7400589  50.1632385   0.7133992  48.2442017  45.9664650
  -0.1387264  48.3895988  46.3775291   0.6833126  47.3352585  45.6678772
  42.2204361  25.0788116   8.0564718  41.7039070  24.2955017   8.2458277
  42.6896477  24.8670101   7.2494931  12.0354967  54.0609589  65.4778748
  11.3110504  54.5920448  65.1471863  12.7327080  54.1785736  64.8326721
  78.3477859  12.9639902  19.5970516  78.9220505  12.2595911  19.2965832
  77.7513199  13.1158819  18.8639889  79.2646561  23.9039001  64.6236038
  79.8606415  24.6135006  64.8633881  79.3414001  23.8380089  63.6717606
  64.2154617  45.4047012  72.3712616  64.1191254  46.0427895  73.0782166
  63.9809532  44.5671616  72.7709656  22.3783092  22.1372471  74.2002029
  22.0484524  21.2805939  74.4714355  21.9639606  22.2958698  73.3520355
  53.0791855  71.0993805  10.9804068  52.7670174  70.4293213  10.3722954
  52.3211174  71.2948456  11.5311890  64.6805115  17.3755188  23.4712601
  65.5703735  17.6757755  23.2862377  64.7416916  16.4204197  23.4546432
  69.5773010   0.3508868   4.8801036  70.0627441  -0.3158863   4.3943119
  69.9076157   1.1826293   4.5405030  50.2317085  63.6256943   9.8238354
  49.5260620  63.7317162  10.4618406  49.8283463  63.1506233   9.0973101
  54.5392036  52.6124725  54.1382065  54.0029907  52.8115425  53.3706894
  54.5962105  53.4420853  54.6122551  25.8696041  22.6118393   2.2038033
  24.9772873  22.5622196   1.8609618  26.4016666  22.1522999   1.5542156
  71.5253830  60.2494698  50.7422409  72.4016647  60.0513916  51.0725822
  71.0935593  59.3972893  50.6827316  44.6174660  47.1872864  45.6595154
  44.0543671  47.5513115  46.3426208  45.1968193  46.5829163  46.1235428
  30.9095364  40.3518028  57.4295731  30.6203365  41.1001205  56.9074478
  31.7048836  40.6572342  57.8658791  54.6666260  46.7200661   5.6293759
  54.7103500  46.0394478   4.9577541  53.7425270  46.9677811   5.6595373
  67.0211868  67.2048340  44.9014549  67.7837448  66.8753052  44.4258995
  66.5935593  67.7998352  44.2855492  47.0288124  20.2005692  11.7489529
  47.2152596  19.2617226  11.7429619  47.1229057  20.4575977  12.6661854
  45.8210793  63.2773666  76.4516983  46.2786636  62.9057846  77.2058792
  46.5115776  63.4406586  75.8092194  55.9517555  69.2603149  77.9967728
  56.3549538  69.0256882  78.8326035  56.5793648  69.8555222  77.5868073
  18.0609283  33.8120918  69.3113251  18.8451748  33.2633133  69.3057861
  17.6734257  33.6848221  68.4453659  20.0066624  42.6017303  61.7598267
  19.0787392  42.3668060  61.7617302  20.4173374  41.9601974  62.3394928
  53.8610954  50.5804672  34.2514648  53.1630936  51.2134933  34.4196968
  53.6131325  50.1642761  33.4259148  13.1487103   8.3519926  58.9384727
  13.1231279   7.4001007  58.8411102  13.4125662   8.4927435  59.8477592
  45.7023010  30.5986271  74.0867538  44.7733612  30.4667778  73.8972473
  46.1245041  30.5975456  73.2276993   5.9991770  54.3112259  46.7463531
   6.3619261  54.6796570  45.9408073   6.3406401  54.8733406  47.4418144
   8.0818472  41.0312271  29.8639259   7.4121881  41.2525215  29.2167664
   7.5889239  40.8295326  30.6592751  31.0816917  40.2500763  64.6323242
  30.3167725  39.6819725  64.5407257  31.0431499  40.5596123  65.5372696
  77.6328812  33.9451561  38.3367119  77.7795410  33.7883186  39.2695160
  77.7180634  34.8933258  38.2369652  81.2254333   2.5714157  80.5649490
  81.5558319   2.9228790  81.3917160  80.5629349   1.9311616  80.8245850
  15.5462561  62.2031937  43.1420403  16.3690014  62.5958176  43.4338760
  15.6795053  61.2612610  43.2480354  19.8905468   2.1346173  18.0522938
  20.5151196   2.2719851  17.3400650  19.7438374   1.1887890  18.0631104
  41.8928680  54.1462326   9.6843100  42.6550102  54.7232780   9.6354284
  41.5950241  54.2191238  10.5910673  83.2535706  35.9288063  24.2167873
  83.7943344  36.5714569  23.7576523  83.8463287  35.1976738  24.3908997
  81.8630600  18.5400085   1.3535417  81.0550385  18.2815266   1.7968564
  81.6354370  18.5439510   0.4238084  28.1550789   5.1179295  23.4459763
  27.8426151   5.8205624  24.0159817  27.9813366   4.3153601  23.9378376
  41.1456146   2.1658905  12.1508970  40.9551430   1.2981459  12.5072289
  42.0834084   2.2857225  12.3006039  30.4442196  30.5634861  37.9545441
  30.8630333  31.3227501  37.5491524  29.6605816  30.4117165  37.4262352
  46.6051750  70.8839874  71.6945953  47.3929100  71.4191360  71.5980225
  46.5144615  70.4372177  70.8529282  72.3281860  31.8144855  29.2071609
  73.1780472  32.0884476  28.8623219  72.5174942  31.0212898  29.7083931
  62.9317551  15.6371269  45.4022446  62.4933586  16.2136955  46.0280304
  63.6374702  16.1714573  45.0379753  28.7654953  64.4236526  21.9728298
  29.4321747  64.9668655  22.3931694  28.9211006  63.5441895  22.3171673
  10.5065689  52.6301880  62.8277092  10.2307987  53.5462532  62.8595238
   9.7463455  52.1631012  62.4811211   6.2065115  54.1259613  65.9834213
   5.3279405  54.1785698  66.3596878   6.6985636  53.5826645  66.5990067
  80.5857391   6.1965246  13.9085398  80.0084763   6.1009665  14.6660776
  81.3837814   5.7289906  14.1550579  24.5815086  64.9763107  66.5490570
  25.4028263  65.0353317  67.0371017  24.8309116  64.5997086  65.7051392
  62.1590767  13.1540775  39.1966019  62.2856865  12.2272758  38.9935226
  62.6018600  13.6176834  38.4857979  34.6812401  63.1734428  34.1891670
  35.0958633  63.9415817  33.7963829  33.7429314  63.3560448  34.1394768
  80.6342239  68.7069931  21.6257286  81.2075272  67.9588547  21.4588604
  80.7985382  69.3024445  20.8945160  72.8273849  61.2218552  80.4991684
  73.4984207  61.4235229  79.8470459  72.7831802  62.0051994  81.0474854
  59.0822563  47.0847321  69.2578812  59.2698669  46.2442398  69.6757355
  59.5951691  47.0702629  68.4498291  50.6220360  15.6006651  86.6836777
  50.2210007  14.7665272  86.4395065  50.2366104  16.2370911  86.0814819
  85.2903900  28.7088509   0.2375363  85.4000015  27.8639832   0.6738988
  85.1223831  29.3261490   0.9495400  18.3844566  41.8887329  10.5953264
  18.6232262  42.5872650   9.9860029  18.9283905  42.0475426  11.3667860
  18.5777645  37.8215637  45.8251762  19.3917370  38.0494690  45.3760223
  18.5522652  38.4035492  46.5846977  71.6058807  67.9856720  41.9315491
  71.7868423  68.6153107  41.2336655  70.9235458  67.4189072  41.5717926
  76.9517975  54.1002541  46.4370079  77.3877792  54.8274155  46.8812943
  77.6508179  53.4681168  46.2696457  66.8331375  21.7652168  37.8128548
  66.9217682  22.6509266  37.4608688  67.2690277  21.8011189  38.6642914
  80.2020798   3.2022631  53.0353394  79.8877106   2.5008869  53.6058426
  81.0236511   2.8680880  52.6753654  45.4840050  58.3344078  24.7967472
  45.7082748  59.2647476  24.8169308  46.1709633  57.9339447  24.2638817
  12.2032738   9.8193493  80.8400650  12.3043633  10.7048006  81.1893311
  11.3655787   9.8385963  80.3773270  62.6439171   3.5165882  71.5061493
  62.2644691   4.3811078  71.3484802  63.2024345   3.3577592  70.7451859
  29.7290287   3.5237880  19.2736111  29.4853497   2.6673982  19.6249638
  29.9986496   4.0293593  20.0403786  72.5776978  10.2809820  57.5311775
  72.1751099   9.7536983  58.2211952  72.2876205   9.8709450  56.7163429
  78.4361801  42.7951775  41.2367210  79.2307739  42.6184082  41.7403221
  77.7951355  42.1689873  41.5731354   8.9797201  31.9448700  18.8962860
   8.9371195  31.1733913  18.3312740   8.7165585  31.6246681  19.7591000
  55.3501701  51.0541000  20.3570137  55.3420563  51.9547997  20.6808968
  54.8874474  50.5537109  21.0291214  25.2652359  18.8604736  44.8174667
  25.2647781  18.2157116  44.1099968  25.6050930  18.3844185  45.5751648
  34.9703751   8.7335033   4.9297867  35.3062592   7.9564691   5.3765883
  34.4269257   9.1706161   5.5853958  32.7326469  63.1306190  25.1661396
  32.5658646  62.3373146  25.6751423  33.4395828  63.5726624  25.6363163
  60.0231400  31.5897770   4.7471647  59.8269882  32.4474297   5.1242452
  60.8495750  31.3319359   5.1555200  49.0650558  41.3403587  36.4704475
  48.6441498  41.1946411  35.6231956  48.9514046  40.5138245  36.9396553
  65.1385345  58.9879608  50.0481834  64.5770874  58.2861633  50.3775558
  66.0295410  58.6663704  50.1857376  26.9460964  66.6429672  60.5205765
  26.6292706  67.5280609  60.3403816  27.5016994  66.4301682  59.7707443
  28.0604534  56.9798851  59.2256050  27.5393581  56.5240288  58.5646324
  27.4787273  57.6623306  59.5604095   0.5621774  36.8656807  25.4862080
   1.2659038  36.2168922  25.4776745   0.1524878  36.7859993  24.6247921
  10.6383076  64.4641876  26.2575626  11.5834045  64.6129837  26.2872944
  10.5157928  63.6162758  26.6844902  71.5583420  11.7448215  17.0117035
  71.1326141  11.0227976  17.4739456  70.9028397  12.0460920  16.3825912
  51.8020363  26.0184765  68.8674164  51.4744720  26.4943237  69.6306381
  52.2065201  25.2310600  69.2315674   3.7043235  70.5451889  26.8761024
   2.7564356  70.4139481  26.8533783   4.0681252  69.6601715  26.9010735
  69.2134933  52.8806839  23.5290909  70.0163803  53.3985405  23.5877552
  69.3733978  52.1258812  24.0956039  53.6483917  33.6649246  25.1543922
  54.3207359  33.7454300  25.8309307  53.0127373  33.0499420  25.5204182
  68.9548111   3.5197139  84.9496002  68.2934570   4.0765123  84.5387192
  68.4527359   2.8203487  85.3679810  36.7080078  18.8674946   3.7699554
  37.1010246  18.0975609   3.3588953  37.3756943  19.5487099   3.6901238
  32.8773232   1.3470252  14.2843704  32.6817627   1.4805293  15.2118206
  32.6096687   0.4445773  14.1106443  19.7762222  13.6463490   8.9030466
  19.2303810  13.4498949   8.1416693  19.6622009  14.5863180   9.0433664
  47.5021400  43.6379967   7.8772564  47.2994614  43.5105438   6.9504824
  48.4436874  43.4777222   7.9407649  46.5833511  55.0904045   6.1915412
  46.0351562  55.2810478   5.4303789  46.2628555  54.2474670   6.5124354
  31.9931831  25.4507999  17.3227921  32.8229790  25.5216904  17.7946434
  32.2040291  25.7131290  16.4267120  15.3763714   8.7411499  88.4004135
  16.1377468   8.4223900  87.9157181  15.2715282   9.6479416  88.1123734
  67.5177689  23.3238354   2.9344430  67.0308456  24.0077591   2.4746702
  67.2360840  22.5087929   2.5190012  51.0610847  53.0023956  66.8256912
  50.2284737  52.5338402  66.7670212  51.7194748  52.3119850  66.9036942
  20.2999458  41.2730827   8.1509228  20.0229359  41.6699448   8.9767551
  20.9023457  41.9112434   7.7686992  37.4973602  51.2880325  57.1930771
  38.3503036  51.6507530  56.9540062  37.4960327  50.4091530  56.8138618
   8.1131592  57.3484955  38.9743195   7.4486623  56.6675720  39.0792885
   8.4458237  57.2235336  38.0855255  45.9260445  46.4412498   7.2179346
  45.8176079  46.0632401   6.3452482  46.4374695  45.7906151   7.6989202
  82.3982849  37.7702637  78.5471878  81.6628799  37.6326981  79.1442566
  82.6221008  38.6950111  78.6519470  82.8182831  25.2055664  19.3457623
  83.6753311  25.2821503  18.9264393  83.0031357  24.8117847  20.1984024
  64.3821411  61.8520699   8.8138990  65.1948013  62.0643044   9.2729998
  64.6662903  61.3906441   8.0248642  75.7070694  32.8869400  69.0990677
  74.9535675  33.4609718  68.9614105  76.3068390  33.4038315  69.6369553
  10.1913795  59.5106277   2.1485970   9.4228039  58.9563599   2.2839265
   9.8382463  60.3283501   1.7980876  83.7063599   8.9250174  45.0122643
  82.8515854   8.7521391  44.6176682  83.6831360   9.8554277  45.2359352
  35.2128067  11.5034380   7.0578408  35.8395233  11.3798065   7.7707043
  34.6648064  10.7189980   7.0819659  35.2776070  52.8643456  56.1606216
  35.9282036  52.2375641  56.4770164  35.6310005  53.7199135  56.4042358
   5.9527183  48.4586563  47.9622955   6.5916934  47.9777832  48.4883232
   5.6432791  49.1562653  48.5400696  75.2633667  35.2052879  72.1700287
  76.1431122  35.5640297  72.2866211  74.8375397  35.8084564  71.5608597
  15.7157850  28.5304070  13.9319191  15.8396120  27.8729706  13.2473192
  14.7824240  28.4869423  14.1397190  51.3375435  53.9513893  51.8095093
  51.9926834  53.3452034  51.4637299  50.8808823  54.2782211  51.0343475
  82.5180740  35.2488136  73.7582245  81.9978104  34.7038803  74.3486557
  82.8171844  35.9757538  74.3044205  24.2059422  66.8359528  30.7692738
  24.3721714  67.7785721  30.7774544  25.0722389  66.4408188  30.6711388
  26.2436256  25.9020844  12.3889942  26.8390045  26.6512833  12.3675470
  26.2780170  25.5433636  11.5022202  72.7456741  38.7921448  54.9964447
  73.3423615  38.0498848  55.0925674  72.1400604  38.7095642  55.7330894
  41.0531158  39.2480392  82.5996933  41.1368408  39.8437462  81.8551407
  40.3190918  38.6784821  82.3693771  55.9056053  24.7699718  75.3791428
  55.0613174  25.2056007  75.2623749  56.2592583  24.6916161  74.4931259
  58.8966980  16.0444107  70.9540482  59.0848732  15.2535496  70.4487152
  58.0406303  15.8783846  71.3487854  81.7092819  47.7161903  73.4943466
  82.0445404  47.1300621  74.1727905  80.8714218  48.0260506  73.8381653
  76.3853455  12.8186455  17.4014015  75.7367783  12.2059040  17.0547962
  76.9884033  12.9665489  16.6729279  45.9908905  25.3105412  60.6082382
  46.7750359  25.0851593  61.1087875  46.2899551  25.9639893  59.9759445
  78.9752045   8.4830770  10.9843521  79.4023514   7.6557593  10.7622671
  78.3195114   8.2456417  11.6400356  10.3541269  25.9418621  85.1368256
  10.1991339  25.5548058  84.2751999   9.5330095  26.3843098  85.3518524
   8.7454815  39.1204376  78.4306717   8.4968624  38.2431335  78.7218094
   8.3901434  39.1883736  77.5444717  64.9628143  69.7585449  57.3559151
  64.8979568  70.5699997  57.8594742  64.0590439  69.4536285  57.2755814
   0.8757186   4.7846870  65.4849701   0.9629377   5.7342439  65.5684280
   0.4789561   4.5071154  66.3106537  40.1732254   4.2791080  77.6773224
  39.4782143   3.9002230  77.1391449  40.8020935   4.6279387  77.0456009
  34.5863991  34.8745880  74.3032684  34.8637199  33.9687653  74.4404068
  35.3356247  35.2928352  73.8790436   0.4319847  35.7023277  22.0809155
   0.4519667  36.6122093  21.7843571   1.0908250  35.6618233  22.7741127
   8.3939962  16.8396568  67.3082657   8.5569201  15.9008360  67.2171402
   8.2075224  16.9611320  68.2392349  81.2603226  28.5791569  69.5105591
  82.1567917  28.4137039  69.2186584  81.2510300  28.2995033  70.4259491
  80.9833755  53.0605659  32.2395134  81.6461029  53.7279129  32.0615158
  80.6488571  52.8188705  31.3758526  63.5285301  37.1992912  43.7456589
  64.0336075  36.4115067  43.5443611  63.2591705  37.5359840  42.8910751
  16.5979671  36.7420044  14.5622377  15.9731531  36.7499466  13.8371334
  16.1267929  36.3184929  15.2797794  26.0853882  55.2821465  57.7714653
  25.4151840  54.8860626  57.2145348  26.8494492  55.3694839  57.2015419
   5.2312508  53.6313210  41.5496521   5.1168003  53.4383888  42.4801941
   4.8268900  52.8894958  41.0997391  58.2895622   4.1932659  30.3901978
  58.7885742   4.1465344  31.2056961  57.3799858   4.2925735  30.6713371
  59.7964249  42.6447105  27.1386795  59.8836861  43.5961227  27.0800934
  58.8683472  42.5002213  27.3231411   3.1967363  57.5234146  58.7889252
   2.8189070  56.8534927  59.3587303   2.5441930  57.6474342  58.0996971
  37.5845757  30.4884853   8.1279497  36.7173691  30.2742844   8.4719028
  38.1281433  30.6085110   8.9066410  74.7745667  42.6548576  47.4048996
  74.4825516  42.9487267  46.5419998  73.9653015  42.4698143  47.8814354
  62.1289978  71.1348114  10.9984674  62.7782059  70.9071808  10.3329248
  61.6434784  71.8671951  10.6188440   9.6232347   0.6118627  25.1186314
   9.2995138   0.2392692  24.2985020  10.0430031   1.4322410  24.8597755
  77.0454483  47.3523216  42.0086517  76.6944885  48.0860291  42.5133629
  77.8503799  47.6931877  41.6186180  10.9853954  58.9184837  35.1572189
  10.2689562  58.8650894  35.7897491  10.8413534  59.7478943  34.7016335
  55.8062630  23.5154247  29.0091820  56.2453079  22.8094521  29.4836044
  56.5118904  23.9694233  28.5485191  40.9664955  66.3114700  81.4738922
  41.7398758  66.8590469  81.6090851  40.6255913  66.1567612  82.3548431
  73.4572678  68.6888275  21.5118332  74.2039642  69.1390228  21.1168747
  73.6936874  67.7617416  21.4825306  83.6310883  35.8994255  45.9657021
  84.5361786  35.6207504  45.8264847  83.2500076  35.2116928  46.5116348
  67.0072632  67.8796158  52.3487244  67.9584503  67.7873077  52.4031601
  66.8232574  68.7175293  52.7733192   1.5984137   9.9609480  11.7598076
   0.6567895   9.8483934  11.6297808   1.6972998  10.0792007  12.7045135
   2.2336068  27.0968876  88.5281143   1.6567612  27.3272877  87.7998276
   1.7805569  26.3822823  88.9756775   3.0532169  35.5979156  45.2773132
   2.6063068  36.4197769  45.4799232   3.9620259  35.8525047  45.1176834
  51.1342125  67.1025314  64.5943756  51.1026726  66.6589661  63.7467422
  52.0549469  67.3387527  64.7069778  11.6545458   1.4438162  78.6727142
  11.5416603   0.6685109  78.1228104  12.5563412   1.3845105  78.9881134
  21.5888901  28.0578365  81.7926331  22.4560127  27.7014751  81.9858551
  21.7477455  28.9810295  81.5958710  71.7491837  31.0084858  70.3899078
  71.9699631  31.8761673  70.7284622  72.1452332  30.4000702  71.0137787
  37.7095871  48.9692345  11.1078253  38.2522202  49.6887131  10.7851315
  36.8493500  49.1244392  10.7177753  26.1911488  47.9254494  29.7763157
  25.6404247  48.3693886  30.4211807  26.8455868  47.4618645  30.2988377
  12.9932079  65.6468964  18.2065735  12.3043299  65.6044998  18.8698101
  13.3906097  66.5090790  18.3287830  49.1198387  58.7238426  30.9067078
  49.5437164  59.5715065  30.7724476  48.9752350  58.3857155  30.0229702
  58.8318825  26.2378483  80.7654190  58.6457977  26.6587124  79.9260864
  59.7859764  26.1650295  80.7905197  74.4109573  57.7386284  75.8673477
  74.1626511  58.6530533  76.0030212  75.1357803  57.5944748  76.4756927
   1.8972915  16.2497234  25.7965755   1.8947071  15.3170204  26.0117302
   2.7748194  16.5482082  26.0354958   5.4541392  54.8905296  76.8343506
   4.8690381  55.5459175  77.2142944   5.9727283  54.5747185  77.5743256
  55.8011894   7.2978544  18.8101959  56.5789146   7.0367432  19.3033428
  55.9810295   8.1977959  18.5381775  40.1137466  13.8765793  71.0947113
  39.9201775  13.6857958  72.0125122  39.4908981  13.3418560  70.6024017
  49.8713341  61.5697212  53.1046410  49.8779984  62.4555817  52.7420959
  50.7777901  61.4121895  53.3687477  14.6743259  44.9546585  29.6071911
  14.8290157  44.5107613  28.7733688  13.7210560  44.9979591  29.6822395
  20.8326130  26.5680008  56.8847389  21.1240520  26.2071609  57.7220497
  21.3576965  27.3599815  56.7694740  56.9433441  54.2000809  51.0592041
  57.5228691  54.9558449  51.1551437  57.5358353  53.4525795  50.9790573
  19.4238892  63.5235786  86.9944229  18.5000706  63.6428680  86.7740555
  19.4186954  63.2628555  87.9154129  54.8783760   6.6738172  65.8955536
  54.6798592   6.2310033  66.7206268  54.6032410   6.0548120  65.2192688
  35.0119019  46.2831345  44.9893417  34.9625702  47.2032089  45.2486916
  35.8046036  46.2268639  44.4557800  47.0873032  67.2104645  80.8531647
  46.7956848  67.9822083  80.3677750  47.1862411  67.5175858  81.7543411
  41.9334793  47.6782684  41.7847328  41.9090652  48.0761299  42.6549873
  42.6565056  47.0524750  41.8276711  32.0535545  57.5871964  19.6706982
  31.7081051  57.0083046  18.9911518  32.5925026  57.0174370  20.2194614
  19.5919399  37.2522087  12.1362610  19.0626755  37.6870842  12.8048391
  19.8147316  37.9476204  11.5173922  12.9598875  63.1815796  58.7369385
  13.8933372  63.2950058  58.5579491  12.6676235  62.5415154  58.0879898
  10.6448307  28.7652111  10.7393513  10.3723679  29.6555290  10.5172520
  10.1272316  28.2050247  10.1609793  26.1897354  71.3535385  77.2349548
  26.5852585  71.7426758  76.4549789  26.8529949  70.7457962  77.5620117
  39.7103882  52.3286552  22.1708431  40.3856087  52.8029938  21.6857529
  40.1875763  51.8796844  22.8686600  21.0226555  58.0500908  48.3030281
  20.1704826  57.6141891  48.3078117  21.4878426  57.6748123  49.0506935
  54.2600212  53.4995041  63.7663231  54.0067558  54.3741760  63.4712982
  54.5144768  53.6196709  64.6812286  20.0203800  55.3284264  66.4105682
  20.5100555  54.9320602  67.1312256  20.6070004  55.2616920  65.6571350
   3.4367111  46.6274643  40.1510887   4.0568180  46.6902924  40.8775558
   2.6456439  47.0593910  40.4734001  65.8350754  43.1705017  34.7937546
  65.8299103  43.7738380  35.5368500  66.0339203  42.3172760  35.1793709
  49.7038689  51.8913231  31.2382660  49.3372231  52.5427856  31.8360939
  48.9404831  51.4377365  30.8808727  65.7758560  39.5866661   9.8830929
  66.3313293  38.9617653  10.3491201  65.3750000  39.0738297   9.1812773
  41.7185822  27.0588074  10.1438761  41.9054031  26.6392460   9.3040562
  41.7316666  27.9963608   9.9513865  28.1580601   6.0393357  78.2726669
  28.0786438   5.3247733  78.9045868  28.2197361   5.6022196  77.4233398
  86.4739838   6.7782664  85.6306839  87.1270981   7.3846302  85.9799576
  85.6955719   7.3179984  85.4928436   9.5213900  43.5303535  13.4582968
   9.6010933  44.2780724  12.8660145   9.8137608  42.7812691  12.9390469
  70.4204636  67.2562103  14.5286007  69.9189606  66.9439850  13.7754459
  70.3568420  66.5477066  15.1690769  34.7509117  51.5972824  19.5541935
  35.2078781  50.8017387  19.8271809  34.2894936  51.3458786  18.7541180
  79.9813461  69.1757126  11.1033316  80.6657639  69.3127289  11.7583342
  80.1864777  69.8009567  10.4081841  70.1802139  57.0236855   4.7065372
  70.3758850  57.7031517   4.0613465  69.9472046  57.5064087   5.4995780
  85.6180344   1.7317406   8.0817022  86.1245117   2.4954271   7.8051229
  86.1296005   1.3507400   8.7954006  71.6409302  49.6557808  82.7671585
  71.5166855  50.3914909  82.1675568  71.7282410  50.0617828  83.6295853
  12.5389204  66.8135910  68.3022842  13.3980732  66.4449768  68.0968323
  12.2350349  66.3073502  69.0556793  42.7657471  54.3152161  57.1184120
  42.6253510  53.9292641  57.9830284  43.4171867  53.7480621  56.7058640
  42.3578835  54.9506035  12.8767738  42.9520569  55.6921883  12.9918509
  41.4885788  55.3106880  13.0525045  76.5243988  34.7802315   9.6079359
  75.9560547  35.3243141  10.1530886  77.2620850  35.3493423   9.3884649
   6.8081164  70.1061401  56.3818130   6.0787640  69.7784500  55.8556023
   6.6625023  69.7334824  57.2513885  81.0699768  23.5516357  68.6937256
  80.5758896  23.1512089  67.9783554  80.5606003  23.3502808  69.4787292
   5.6212950   3.9966891  45.0045586   5.8273368   4.1952639  45.9179840
   6.4606948   3.7462220  44.6186752  26.1336708   8.5110531  80.2624435
  25.5143356   8.9617939  79.6884384  26.9482174   8.4824476  79.7605209
   9.5264359  16.0042591  16.9534092   9.8725119  16.8907166  16.8501835
   9.6852264  15.5851517  16.1076145  38.6050873   2.4617000  43.0941811
  37.8968430   3.1055610  43.0862656  38.9301147   2.4520915  42.1939011
  15.9110708  46.9500427  17.2723999  16.4027786  47.7712708  17.2661514
  15.3022947  47.0297928  16.5380535  51.6066284  37.8279457  31.6663342
  51.2842941  36.9744682  31.3766594  51.3324814  37.8895340  32.5813675
  59.4915848  43.6032753  73.9241714  59.5342751  43.7135086  74.8740387
  58.5643311  43.7102356  73.7120667  25.2196922  66.8778992  24.3902721
  24.3191910  67.1809387  24.5064297  25.1724854  66.2610626  23.6598492
  65.1002350  38.7779770  30.5727673  64.6746674  38.5597992  31.4019413
  65.9060440  39.2271385  30.8280315  83.9539719  66.4905319  40.8157806
  84.7676239  66.1144791  41.1516113  83.3747635  65.7382507  40.6940422
  43.7000885   8.2317867   7.1073532  43.8841209   8.0829544   6.1798768
  44.3272324   8.9051762   7.3709216  29.6985378  36.4621849  85.9720078
  29.3949547  37.1119232  85.3380508  30.3892422  36.9093018  86.4611359
  56.6461029  53.2978439   2.2931139  55.9461060  53.9506302   2.2825863
  57.4413033  53.8021240   2.4651132  85.2715988  37.9104118  50.8470268
  85.3809433  37.8306694  49.8994408  85.6665115  37.1138077  51.2015686
   6.5902081  61.7040215  42.2272491   6.1494145  62.3034973  41.6251221
   7.3285661  61.3597488  41.7247238  61.3270760   2.7206402  64.3721542
  62.0095100   2.3264611  64.9154205  60.7088089   3.0959756  64.9991302
  16.7309437  53.6474991  50.8850746  17.6172428  53.4298172  50.5964203
  16.2473431  53.8065758  50.0744858  82.5530167  49.4519730  61.6754189
  82.6128311  48.5331154  61.4139748  83.2487335  49.5623665  62.3235092
  86.7521362  45.2413177  48.4332199  87.2831268  45.1710052  47.6399117
  86.1567612  45.9703178  48.2590981  69.1124115  70.4413452  49.8885345
  68.6356506  70.0539627  49.1544609  68.9651566  69.8365097  50.6156693
  55.3705177  36.0889091  29.0865765  55.9093895  35.3405991  29.3432598
  54.4765129  35.7471161  29.0738277   8.3379803  39.6379547  53.1516533
   9.1605501  40.1274414  53.1551132   8.1334972  39.5197754  52.2240448
  33.3849297  21.8488426  11.3196030  32.7078362  21.3921375  10.8204041
  34.1889191  21.3647385  11.1312561  82.8042221  29.1815033  26.5678959
  83.5113068  28.5915070  26.3068218  82.0326462  28.8480148  26.1099701
  56.3607674  18.6825542  73.9061508  57.1754341  18.4175797  73.4791336
  55.7133522  18.0460930  73.6028290  12.1956806  12.3917122  81.8123398
  13.1314793  12.1974754  81.8651047  11.8978863  12.3844252  82.7220078
   2.9301758  63.0455399  26.7932682   2.3487589  63.2863426  27.5145168
   2.8715861  62.0912666  26.7467747  24.1707726  33.2594223  12.6936016
  23.2552090  33.0997429  12.4645262  24.4495010  32.4589729  13.1383734
  84.7439651  59.1507225  44.3690720  85.1255569  58.2728844  44.3657494
  83.8964844  59.0418549  44.8005333  78.3977203  70.4833069  58.2199440
  78.3610382  69.7183075  57.6457748  79.2435532  70.4105606  58.6621170
  52.6098595  48.0306892  88.4211884  52.4403572  47.0886307  88.4165039
  53.5021629  48.1118240  88.7580109  47.6151314  34.0488968  85.9143219
  48.4938240  34.2774124  86.2174911  47.4889603  33.1455688  86.2046890
  29.4455986  50.5066643  56.0701408  30.0156803  49.7982140  56.3690376
  28.5720310  50.1162529  56.0439034  43.8464851   1.7470797  12.3011208
  43.8935623   1.6618646  11.3488836  44.7320938   1.9986041  12.5631552
  59.6643295  37.8119278  54.3151588  60.3400459  37.4122276  53.7675476
  59.2562141  37.0743217  54.7686005  54.7592506  43.8020859  81.6309738
  54.7764969  44.4767532  80.9521790  55.5390854  43.9734993  82.1589050
  12.6428728  17.4495583  18.3038559  13.1802483  18.1470013  18.6793995
  12.2045879  17.0530968  19.0568218  74.1211090  36.5930481  78.1802979
  73.1983566  36.6957588  77.9474564  74.1062927  36.1448441  79.0259476
  53.3158646  57.0413399  47.6180344  52.8341522  57.0402946  46.7908821
  53.9112244  57.7875366  47.5475388   0.4933927  50.7975693  15.0986500
   0.4644949  49.9191208  14.7195454   0.2819969  50.6666031  16.0229816
  44.1568794  54.8168564  47.2363625  44.1854858  55.7027130  46.8748779
  44.6873589  54.8654480  48.0316391  47.9380608  51.9322281  51.6633797
  48.6131668  51.3947945  51.2490959  48.2214737  52.0127831  52.5741081
  30.8757935  68.1129379  66.1579132  30.3394814  67.5739670  66.7393875
  31.7775993  67.8986740  66.3967972  30.6926746   7.8602376  19.2551861
  30.2948189   7.0969739  19.6739597  31.5541801   7.9365683  19.6653252
  37.3814583   0.6391620  10.9667997  36.8463745   1.1661625  11.5602560
  36.7556267   0.2712140  10.3429575  51.7888031  24.2927723  72.8274231
  50.8693352  24.3548431  72.5686493  52.2591362  24.1454868  72.0068588
  22.3938160  50.7494316  18.7785511  22.1036682  49.8737373  19.0338974
  22.6546001  50.6576118  17.8621483  47.5188675   1.5508437  83.9969635
  47.1010818   2.2124255  84.5483246  47.9097023   2.0492408  83.2792740
  39.2202415  48.1824875  78.3449783  38.8805618  47.6107521  77.6565247
  39.0614090  49.0688171  78.0202866  40.5501633  71.3316269  13.3484364
  39.9328461  71.5556259  14.0448380  40.0067825  70.9444656  12.6620874
  15.6534472  53.4614906  11.7867537  15.0182295  53.6163750  11.0876532
  16.2972336  54.1625099  11.6850395  40.6950035  45.7782784  44.8375206
  40.4023209  44.8915901  44.6269264  39.8907051  46.2967186  44.8611221
  54.1943207  16.0340233  54.3321838  54.3564186  16.8005962  53.7823486
  53.2490044  16.0425243  54.4823112  72.6092606  24.6891708  54.3022079
  73.2052689  24.7294102  55.0501251  72.2681046  25.5796909  54.2196274
  19.9504642  28.2828026  70.6428833  19.3278923  28.9958363  70.7850723
  19.9851646  27.8241673  71.4823380  67.6073761  22.5746956  40.2702713
  68.4311142  23.0244904  40.0821724  67.0782089  23.2264080  40.7301445
  50.5383072  34.9917679  80.4323349  50.1674576  35.1324997  79.5611877
  50.4027252  34.0596466  80.6026459  28.4063225   4.6755233  68.9990921
  29.1570263   5.0466900  68.5355072  27.8673458   5.4329367  69.2272644
  81.0885010  71.6441956  71.6688919  81.6485519  71.5381927  72.4378738
  81.6475754  71.4029541  70.9303284  74.5233154   1.9284489  49.0743713
  74.1633224   1.8583472  48.1902161  73.7876968   2.2262106  49.6095695
  44.3263702  37.8830032   9.1079159  43.6776276  38.5586014   9.3052235
  44.6804810  37.6343346   9.9617329  69.3656464  22.5093079  88.8139191
  68.5457001  22.4562302  89.3049393  69.5064240  21.6210861  88.4860840
  55.4035759  28.0415058  61.2815056  56.1633186  28.5588951  61.0144234
  55.6612434  27.6511421  62.1166420  53.3796463  56.8176918  76.0423431
  53.4921761  56.6279106  76.9737701  52.4329720  56.9002838  75.9273987
  10.2752371  62.0254517  27.0585918   9.7286320  61.3101540  26.7333145
  10.9109955  61.5988770  27.6331158  21.6913357  35.0181274  86.2717590
  21.6758041  35.9746475  86.3043518  21.4624386  34.8055534  85.3669662
   0.4501044  56.8608246  77.9077148  -0.3494777  57.0912018  78.3808212
   0.8111060  57.7007904  77.6242294  51.0422211  31.0398693  82.6415329
  50.3789597  31.4729729  82.1041946  50.7754555  31.2203217  83.5429230
  70.1995468   7.7457733  88.9640961  70.6283112   7.4329853  89.7606888
  70.1323624   6.9697590  88.4077530  68.2306442   3.9257658  63.2227402
  67.4437408   3.3906417  63.3259773  68.9435959   3.3646398  63.5278053
  80.5932770   4.8747940  23.4638844  80.2099609   4.8309712  24.3398857
  80.6661148   5.8115144  23.2809048  71.8753052  43.0303345  38.6895905
  71.3702011  43.8390770  38.7735367  71.8751984  42.8442497  37.7506523
  57.7590752   6.6815972  51.9934540  57.4785461   6.8719726  51.0983047
  58.7150040   6.7148762  51.9570694  28.0476665  14.4120331  88.9040451
  27.4819984  14.4824257  89.6730042  27.4666348  14.1093349  88.2061920
  82.9326096  12.0124435  60.0061531  82.7442169  12.3024426  60.8987007
  83.8882751  12.0090952  59.9520912  49.9867592  19.7345104  68.2399902
  49.6315422  19.1234493  68.8854828  49.5752029  19.4773846  67.4149246
  15.6047268  60.8546524  14.6530056  15.3393049  60.0931778  14.1373129
  16.4131603  61.1551208  14.2378120  12.0697889  55.1198997  43.6997032
  11.7168789  54.4676285  43.0945358  12.7144318  54.6400986  44.2197571
  45.0682030  32.4414482  84.3980789  45.5819397  32.7448654  85.1465759
  44.1978645  32.2710495  84.7582245  15.3119068  47.3255882  23.6635284
  15.9687157  47.9987068  23.4853535  15.7827578  46.6573753  24.1615467
  37.3841171  27.5074158  80.9960251  37.6611176  27.7463589  80.1114883
  36.5072784  27.8816414  81.0817184  26.6009064  49.4914970  52.0483131
  26.0475330  50.2288246  51.7907143  26.3193169  48.7718773  51.4834328
  17.9626884  66.1133804  83.6237946  17.7260170  66.5823135  82.8235931
  17.2076817  65.5538177  83.8056870   8.4482698  33.4743996  39.8325615
   8.1068211  34.3315468  40.0874023   8.9859905  33.6506691  39.0605392
  72.1851120  71.2431641  20.6748085  72.4979477  70.4591217  21.1260700
  72.8887482  71.8819962  20.7888985   5.4550838  34.4673691  41.7327690
   5.9002090  33.6249008  41.6414032   5.4429569  34.8291893  40.8466682
  36.0176811  37.7189598  59.6310997  35.1863823  38.1700401  59.4837914
  35.8310165  36.8015709  59.4316444  80.8530884  65.2178421   2.0024488
  81.7521744  65.4598236   1.7803766  80.6454315  64.4966888   1.4082695
   2.4483986   3.4739909  33.5431328   1.9624307   4.0533643  34.1299820
   3.3316562   3.8421898  33.5203819  33.4614487   1.6130736   1.6442479
  33.5676231   2.4760292   1.2439154  34.2868042   1.1626679   1.4649293
  46.9202461  63.5440788  19.9122791  46.7006493  62.6211014  19.7853127
  46.4499855  63.7949867  20.7073479  86.8840179  12.1952991  16.3442211
  87.0533447  13.0949812  16.6237411  86.2536469  11.8608990  16.9822197
  63.7896309  61.6147957  77.2824020  64.6147003  62.0978470  77.2359619
  63.7450790  61.1366692  76.4543610  55.6516724  23.0270538  80.3177490
  54.6980553  23.0820160  80.2558746  55.9308434  22.7261105  79.4530334
   1.3901619  41.2027016  75.7109909   0.5141050  41.1159859  75.3351822
   1.2398303  41.2832718  76.6528778  82.9819183   2.6210334  50.6416473
  83.0611877   1.6726698  50.7443848  82.1745453   2.7411308  50.1416855
  72.7892761   3.1445873  38.5051422  72.9621658   3.3487697  37.5860939
  73.3385315   3.7573798  38.9940605  68.7878571  52.8743172  11.1670074
  68.1761856  53.0825005  11.8732328  69.3136368  52.1520424  11.5106754
  65.5131378   5.7584133  32.0279160  64.7124481   6.2604275  32.1799164
  65.9814072   6.2523756  31.3548946  47.6846046  27.0772076  64.8175278
  48.3550644  26.4027042  64.9259644  47.8490105  27.4406452  63.9474068
  86.1853256  24.8967094  63.6231766  87.0062256  24.6843319  63.1790428
  86.4552078  25.3546486  64.4192200  24.0386276  36.8370590  10.4427185
  23.9102077  36.6845856   9.5065069  23.1894531  36.6371536  10.8366385
  40.4667168  61.6958466  70.5731125  40.7121964  62.6178818  70.6494064
  39.8403854  61.6738205  69.8496094  52.8093185  22.7429523  58.0314369
  53.0235062  22.5045967  57.1294746  52.3060455  21.9991512  58.3626633
  56.0403290  52.9597588  31.3490543  55.6697464  52.0907822  31.1948395
  56.0635567  53.0445251  32.3022118  58.9830666  20.9890556  11.1204815
  58.7870827  21.9259777  11.1213617  59.9210587  20.9403934  11.3049536
  32.6859322  59.1266632  12.0705824  32.0158653  59.5317688  12.6211576
  32.2005348  58.7668381  11.3281918  47.4271889   9.9192886  82.0590973
  47.2145615   9.0025263  81.8842545  47.1462364  10.3847723  81.2712936
  66.8562012  13.6240482  24.8162422  66.3908844  14.1157160  25.4929790
  66.4480133  12.7582970  24.8257961  13.0738420   2.0484383  65.1956635
  12.7665310   1.1734322  65.4326324  13.8748894   2.1673186  65.7059784
  72.2533493   2.4032950   8.8637571  72.2107849   3.3373911   9.0684147
  72.4945297   1.9874901   9.6915073  48.6770859  69.4915009  19.8069763
  47.9890366  69.0206070  19.3367882  49.2171021  69.8777771  19.1174812
  84.0484085  68.4970551  59.1471519  84.6574631  68.2024460  59.8242722
  84.2171173  69.4356995  59.0652122  23.7831230  48.7132378  57.9209480
  23.6611080  48.7298164  58.8701935  24.6928463  48.9814301  57.7916832
  77.1539307   2.4969962  45.2678375  77.0012283   2.9768555  46.0818710
  78.1065979   2.4277890  45.2057114  33.7898903  25.2561340  12.5874825
  34.1443176  25.6523457  11.7914734  34.5248642  25.2520256  13.2006989
  14.0286665  62.8645172  11.8541622  13.8930073  61.9186668  11.9107237
  14.1411905  63.1450768  12.7623777  40.1803894  52.9335709   3.9676330
  40.8302269  52.8784294   4.6682782  39.5699997  52.2192345   4.1503296
  69.5585098  36.1711197  36.3601532  69.7047424  35.4787865  37.0047646
  68.6831894  36.5031509  36.5596809  64.3221588  65.3227386  45.3938522
  65.2133026  65.1983871  45.7204094  64.4185104  65.9297256  44.6600189
  23.4497738  60.2963562   3.5072157  22.7602005  60.6379814   2.9379966
  23.2209682  60.6170006   4.3796062  51.6094513  34.4697380  76.7041016
  51.5600243  33.7629166  76.0605164  50.7009087  34.6196442  76.9654617
  55.3848152  64.0932999  51.8922539  55.3156052  63.5072289  51.1386261
  55.9979324  63.6541214  52.4816933  73.9540939  54.7116432  20.0093975
  73.8028412  55.2288971  20.8004761  74.8905640  54.8074608  19.8359890
  41.9791756  69.5082245  86.5678711  41.5783157  70.3136139  86.2409210
  42.3238449  69.0775452  85.7855988  58.1151581  36.1933784  56.2619362
  58.5898323  36.8962669  56.7056313  57.3144760  36.0840759  56.7749634
  30.0441799  64.4891052  26.0359402  30.7016602  63.9950485  25.5461864
  30.5468006  65.1502304  26.5118713  22.8230076  60.0932426  27.9080143
  23.6802521  59.6989174  28.0688572  22.7909794  60.8458900  28.4985428
  36.0453529  66.2581482  75.2204514  36.4881935  65.4439087  74.9814377
  36.5128403  66.9368744  74.7335968  67.1778641  45.6789627  56.4966888
  66.3375854  46.1220093  56.6145058  66.9490051  44.8250351  56.1297226
  70.9940567  22.9899693  12.8724375  71.1668549  22.2123470  13.4031677
  71.8442917  23.2165546  12.4956226  37.2887726  11.3743773   4.8191071
  37.8158684  11.6264486   5.5773044  36.6462135  10.7570095   5.1686854
   5.7731061  54.2129021  17.7159729   5.3260555  53.3935318  17.5038185
   5.4610033  54.8334999  17.0574265  59.8618469  31.7573776  60.9534836
  60.7024536  31.6256218  61.3919449  59.5935593  32.6396523  61.2100792
  29.9421062  51.7735291  79.6980286  29.7486858  52.6862221  79.4839935
  29.7585087  51.7031097  80.6348114   1.9312433  20.8915348  31.4438229
   1.9305173  20.6252823  32.3632469   2.8340056  21.1599388  31.2729092
  30.6044769  68.8358231  85.6120300  30.1700668  67.9829254  85.6208496
  30.7125816  69.0399628  84.6831207   8.4619398   9.0970793   4.4076009
   9.3624382   8.7741375   4.3752937   7.9293437   8.3488760   4.1378517
  19.7448997  54.4524269  55.4109688  20.1105671  53.7946014  56.0023956
  20.5015774  54.7917633  54.9329300   3.1398728  18.5640011  33.4079247
   3.5176451  18.1342564  32.6405640   3.0153520  17.8571548  34.0412445
  82.8001022   7.2293038  61.8960495  83.2933655   6.5658393  61.4136200
  82.7917557   7.9905539  61.3158264  41.5164871  13.2122803   4.0582533
  41.3718872  12.3722782   3.6226840  40.6685104  13.6541090   4.0140357
   4.3165126  32.9162331  21.0616264   3.4086266  32.8579445  21.3592453
   4.8292117  32.9786797  21.8675232  84.6158371   4.3460445  77.1286469
  84.1199341   5.1288834  76.8889008  84.4632339   4.2442293  78.0681000
  54.8740463  70.2574539  49.7112389  54.7938805  70.8820877  48.9903831
  53.9962006  70.2154846  50.0905342  59.7928123  21.5151405  45.3478699
  60.2074051  22.3428288  45.1044006  58.9808540  21.7732067  45.7841721
   5.7259893  70.8706665  62.6206093   6.0080924  71.5207596  61.9771576
   5.2890296  70.1947784  62.1024704  57.1304207  42.7280235  27.6989117
  56.7732735  42.7517624  26.8111534  56.6970177  41.9809418  28.1115417
  59.0742378  32.6686249   9.0714016  59.0147209  33.0531197   9.9459620
  59.4131126  31.7859058   9.2203989  80.2065430  65.7176285  85.0735245
  81.0290985  65.8510132  85.5445328  80.3553925  64.9303894  84.5497589
  38.5646477  71.1553421   4.5017271  39.3661613  70.6323166   4.5176969
  38.8376236  72.0212555   4.8048906  77.4203491  31.7955799  43.4256554
  77.3407822  30.8530865  43.5726433  78.0380325  32.0910034  44.0945549
  27.4204788  59.1050339  30.2814655  27.3169022  59.7056427  31.0195522
  27.7789040  59.6479721  29.5793400  21.5508823  44.1365623  55.6890793
  21.9882622  44.7893257  56.2357330  21.9041042  44.2834778  54.8116493
  17.6632881  53.0481529  57.0457497  17.8181705  53.3189087  57.9506989
  18.5188503  52.7527046  56.7343750  83.4944992  68.1952057  32.9913902
  83.9281235  69.0261459  32.7971344  82.6386108  68.4470139  33.3381882
  58.0094986   0.9010623  85.3211060  57.1632462   0.4882254  85.4933090
  57.8716316   1.8253710  85.5281754  29.5357990  67.1463394  71.3150864
  30.0194721  67.9707413  71.2636185  30.1199417  66.5007095  70.9173813
  70.7980804  66.8580017  82.6873779  71.3083267  67.6587448  82.5661392
  70.8451614  66.6840286  83.6274567  74.9519424  49.0154800  29.0042572
  75.7387619  48.5133095  29.2163506  75.2723465  49.7573586  28.4912376
  38.0266571  17.6498108  75.9640198  37.8003311  16.9663334  75.3332520
  38.1016388  18.4459419  75.4379196  47.4980011  12.0677452  83.7980194
  47.1496391  11.3297138  83.2978287  48.4318695  11.8773918  83.8868332
  53.0290947  13.4531994  11.6142530  52.4094963  13.2850561  12.3242226
  53.4411812  14.2849455  11.8479528  51.6912880  18.4543133  52.4218903
  51.4308205  19.3751335  52.4437523  50.8696671  17.9708786  52.5082664
  62.2970581  45.0695763  76.2068787  62.9061050  45.3375092  76.8949966
  62.1112328  44.1498871  76.3962784  43.4734154   3.2820444  63.9803047
  43.5737038   4.2265215  64.0992050  43.1367073   2.9693530  64.8199997
  49.9054756   6.1637807  82.0211029  50.3756332   5.9477334  82.8264008
  50.5429230   6.6447010  81.4932709  38.5549164  64.2275925   2.4002140
  39.3934402  64.1976395   2.8608809  38.0272980  63.5473595   2.8187096
  37.9790764   6.9457912  27.4548988  38.5589294   6.6942124  28.1737232
  38.5325203   6.9043717  26.6750183  51.1821480   5.0718589  46.5144310
  50.4875984   4.8915792  47.1479416  51.7891312   4.3378043  46.6091194
  26.2048721  50.0305023   9.4247646  26.9172382  49.7213326   9.9843903
  26.3363895  50.9770775   9.3706236  65.1970749  44.5890465  19.4289780
  64.3148346  44.6849174  19.7877178  65.4822540  45.4854126  19.2516861
  18.7339764  38.6338577   3.0582929  18.8898430  38.0344772   3.7881429
  19.5818386  39.0511093   2.9057634  67.2522125  62.2606583  88.0612335
  67.6303329  63.0838394  87.7519913  66.3087387  62.3713455  87.9436188
  31.7115116   7.8350482  69.2688522  31.9576778   7.2854548  70.0128784
  31.1945629   7.2586799  68.7060013  82.8971710  56.2739716  60.4235077
  83.6154099  56.6476364  59.9128914  83.3299408  55.7845345  61.1230774
   0.8496523  63.0624771  65.1326752   0.6066831  63.6748390  65.8270874
   0.3056790  63.3173447  64.3874435  45.7154617   3.0203631  43.0436287
  45.8776207   2.8628747  42.1135063  46.5652695   3.2889631  43.3927917
  82.7254639  41.4770088  82.5126495  81.8623581  41.0655670  82.5572586
  82.5716782  42.3081322  82.0634079  64.7511673   7.2021971  81.2847137
  64.8804703   6.7672377  82.1275253  63.8094635   7.1397691  81.1249466
  84.3908539  11.0441866  72.6027527  83.7666473  11.7555065  72.7463608
  84.1194763  10.6512251  71.7731934  73.6303101  66.0318756  79.5042648
  73.7957916  65.4774399  78.7417450  73.9487762  66.8965988  79.2452927
  81.5337753  21.7267303  74.2150955  82.0009689  22.5621605  74.2109222
  82.1956635  21.0834293  74.4686661  46.7723198  26.3726883  73.6336136
  46.4503059  25.6561642  73.0866852  46.2382851  26.3272858  74.4266968
  67.5111694  56.2570152  76.0731506  67.4301376  56.5170937  75.1555328
  66.6581879  56.4615822  76.4562988  39.9981270  15.9438324  63.2497597
  40.3127327  15.2627487  63.8442154  39.1507759  15.6212244  62.9429207
  81.5260773  39.4689293  84.0631638  81.5116577  38.6994019  83.4940796
  82.3144455  39.3589363  84.5947800  75.2347031  65.5323257  46.8235931
  75.5387039  66.4392471  46.8598251  75.9963989  65.0362015  46.5237389
  26.8619022  18.1557293  49.7296524  26.5621681  17.6593418  48.9680824
  27.1483078  18.9955368  49.3705864  57.7117691  63.5754395   1.6182265
  57.1845436  64.3722382   1.5600908  57.4425964  63.0544128   0.8617154
  64.4758148  63.0203781   5.9579668  65.3797455  63.3216476   6.0494399
  64.0120926  63.4287910   6.6889896  32.2942162   2.4049921  79.1239548
  32.7066231   2.6536989  79.9511719  31.4354630   2.8271258  79.1480179
   0.1605428  38.3972778  21.3092384  -0.0823003  38.7236137  20.4427719
   0.6349455  39.1232910  21.7143078  63.8280411  54.6474800   7.6847510
  64.0521393  55.5708847   7.8002076  63.3787880  54.4069176   8.4950190
  42.3770447  39.5214043   4.8551345  42.0625305  38.6627388   4.5722761
  42.4109955  40.0406265   4.0517116  73.1965332  13.6761608  28.9778309
  73.6342468  13.9645567  29.7787457  72.2820663  13.9315310  29.0994034
  41.5571976  20.3826885   6.3520522  41.8229446  20.1057320   7.2289243
  40.6036873  20.4508591   6.4011045  43.2448845  18.0979748  64.4220581
  44.0442696  18.5688744  64.6575851  42.9817200  17.6545258  65.2284927
  63.4639626  24.5130997  38.4826355  64.3282089  24.7488995  38.8198357
  63.6010933  23.6781216  38.0351562   5.2861466  55.1391182   5.5047207
   5.2042933  55.9330597   6.0331073   5.3422132  54.4299240   6.1451344
   0.5377780  11.3850431  36.6469231   1.4631072  11.6048756  36.7549591
   0.4309760  11.2547760  35.7046623  81.8977509  15.5183372  63.8602448
  82.3249741  16.2086086  63.3530617  81.8655090  14.7690973  63.2654037
   7.3988261  43.7806931  44.7501259   7.4407139  44.5534897  45.3133850
   7.8499055  43.0977859  45.2465096  16.7137299  43.2069206  69.3898773
  15.7732706  43.3608093  69.2999496  16.7858009  42.2731400  69.5875854
  79.1708221  35.0564919  59.4759712  79.3263397  34.6662445  58.6158791
  79.5530548  34.4336815  60.0942230   2.4537985  58.9480057   1.7688819
   2.2176881  58.6835785   2.6580181   2.7049580  59.8679771   1.8513275
  75.3758774  50.3612900  43.3766632  74.9149475  51.0135078  43.9042931
  74.7289734  50.0738220  42.7323761  47.4500999  10.9694538  60.2437935
  47.9032936  11.4279470  60.9513474  47.3436852  10.0749779  60.5675545
   6.6762695  70.3265991  52.3637352   5.7758875  70.0742264  52.1591568
   7.2156625  69.6825867  51.9048958  39.4618759  61.5898552  85.2463379
  39.2244606  61.3448372  84.3519974  40.1837654  61.0031090  85.4717941
  81.7005157  62.1517258  49.6655884  80.9337616  61.9801140  50.2122803
  82.1685944  62.8507767  50.1221695  37.9806786  71.2044144  48.5249138
  37.7564201  72.0818176  48.8349228  38.0836182  70.6871872  49.3237343
  70.8653641  60.4657669  20.2111568  70.5857315  60.3575592  19.3021317
  71.4109497  59.6991348  20.3867874   5.1597276   4.1634355  75.6526031
   5.7837229   4.1298790  76.3776779   4.5222206   3.4782183  75.8533325
  79.7147369  55.7231712  68.4042511  79.9403305  56.2993088  67.6739120
  80.1364212  54.8905830  68.1916199  39.4608231  12.6464310  88.0630569
  39.2498894  11.7979584  87.6734009  39.7320175  12.4385862  88.9571991
  77.1603317  12.2820272  52.7161407  76.3148804  12.6351833  52.4391556
  76.9583817  11.7565641  53.4903069  25.5146484  19.2823811  51.7853813
  26.2168179  18.9295006  51.2388802  24.7091389  19.0089626  51.3464851
  63.0503082  33.3044930  43.9970818  62.4549980  33.7355614  44.6102867
  62.5088615  33.1148911  43.2308464  71.9800110  56.5962334  83.3565063
  71.9080505  56.3881035  84.2880249  72.3419876  55.8031960  82.9611664
   0.3530980  67.5675964  77.0212021   0.6798619  68.4609756  77.1276627
   0.5782778  67.3359909  76.1201553  72.5098877  35.4550209  10.3792992
  73.4255524  35.6163635  10.6067934  72.0126877  35.8332748  11.1045208
  69.0430984  66.0452042  12.4149599  68.9567413  65.5293503  11.6132956
  68.2016449  65.9403839  12.8590326  14.0875912  47.9864235  60.5969887
  13.3752747  48.6116142  60.4629211  14.7673473  48.4901924  61.0446243
  31.6366768  60.4382248  14.5909739  32.5583801  60.6455879  14.7449141
  31.2105598  61.2909584  14.5043669  74.6192017  63.3930168  35.2794762
  74.1129227  62.8168335  34.7068291  74.5776062  64.2497406  34.8545914
   1.7357354  69.3862991  66.1565781   2.1073024  68.8791351  66.8783493
   1.8445237  70.2988739  66.4241638  26.0888271  53.8191910  60.2825432
  26.0619907  54.5790710  60.8640022  26.0097179  54.1879005  59.4027557
  75.9609451  18.2748508  28.2107182  75.9548950  17.9497204  29.1109867
  75.2801743  18.9475498  28.1944313   2.9649220  15.6876307  69.4819336
   3.4416678  15.0556326  70.0200119   3.0221570  16.5090733  69.9699783
  77.9301910  52.0507278  72.2205963  78.7657547  52.5162735  72.2571640
  77.4991150  52.2670403  73.0474091  82.7857208  22.6397820  37.3580627
  81.8935013  22.4680157  37.6591911  82.7466583  22.5150280  36.4098320
  65.5730362  69.6316605  34.8380814  65.0634537  68.8841705  34.5253334
  66.4006882  69.2511368  35.1320572  33.1713257  55.0995369  87.5064545
  32.2826920  55.4386787  87.6138916  33.1425591  54.6082420  86.6854553
   4.3167200  38.3706703  39.4180374   4.8892689  38.2815742  38.6561432
   3.5099163  37.9219704  39.1651192   6.7120533   4.6474528  31.6322117
   7.1305709   3.7876456  31.6747150   7.3604875   5.2087078  31.2070560
  34.4043846  60.5696640  15.2993851  34.9791641  59.8662529  14.9976091
  34.9052620  61.3707657  15.1457853  63.9377708  41.1395760  70.2027283
  63.4230423  41.2215729  71.0055695  64.7682800  40.7590294  70.4884949
  48.6823578   9.4393368  66.2812271  48.4321709   8.6079550  65.8781815
  49.5190201   9.2561255  66.7086105  55.7808151  42.5550880  18.2795677
  55.1094284  43.0154266  17.7760220  56.4128380  43.2348099  18.5135708
  68.1735306  26.0962830  43.9107857  67.7356415  25.3565769  44.3318825
  67.8801956  26.8614616  44.4054489  65.4309464  39.0146828  71.9598770
  64.7725677  38.3437691  72.1405563  65.5090942  39.5007668  72.7807617
  26.3937340  26.1869125  80.5509644  27.0433598  25.5500717  80.8487091
  26.4589233  26.1670189  79.5961990  83.8370972   3.9275885   2.7589002
  84.5456619   4.0636077   2.1298773  83.2862930   4.7054973   2.6711311
  49.0506363  43.1279755  73.1772995  49.2092056  44.0509109  73.3754883
  49.8211212  42.6739273  73.5185013  77.0807190  24.7068100  16.0902252
  76.9252853  25.1136265  16.9426174  78.0306549  24.7416859  15.9778376
  54.7246132  26.0576382  10.0572472  55.3187332  26.2789993  10.7743626
  55.2060318  25.4140663   9.5373602  17.7047348  66.8661499  44.6705055
  18.2738724  66.5876236  43.9530525  18.2327023  67.4924240  45.1657524
  55.8416748  50.7311249  50.9325905  56.3137436  50.3666267  51.6812706
  55.2773094  50.0176315  50.6348534  32.6758308  62.9523163   2.8553610
  31.8836708  63.0702744   2.3311505  33.2447243  63.6771584   2.5961299
  69.8717651  10.1188040  43.9578743  70.0475159  10.7426758  43.2535095
  69.6402588  10.6648159  44.7092094  21.4730587  69.9456863  62.3122063
  22.2626991  69.4730682  62.0488892  21.3602962  70.6171951  61.6394577
  79.5744553  50.7496109   5.2163453  79.7986069  49.8435822   5.0039744
  80.2687531  51.2693558   4.8113184  32.5504265  57.9305992  23.0145321
  32.9274330  57.2019119  22.5214710  31.8248367  57.5401802  23.5016956
  66.9533615   3.2868884   6.6490893  67.0670319   3.3837743   5.7036138
  66.3255920   3.9695230   6.8860478  39.2152405  38.0299416  60.7816200
  38.8816071  38.3086853  61.6343956  38.9768219  37.1048355  60.7218895
  49.8678169  16.1778564   9.3940287  49.9313545  16.5856152  10.2577000
  49.0796204  15.6368599   9.4419804  10.4359894  61.8900566  12.6231174
   9.7115774  61.4158745  13.0312958  11.0229139  62.1017570  13.3490200
  64.0244522  44.4514618  84.5107880  63.1551476  44.8112679  84.3345108
  64.1912079  44.6667519  85.4284363  61.0766182  41.8456688  33.2412300
  60.2985687  42.1695595  32.7874031  60.9488792  42.1082420  34.1528015
   3.7380764   9.1774387  21.3071938   3.1108403   9.4587994  21.9732590
   4.4560242   8.7857466  21.8045464  16.0726929   6.9975324  18.4855213
  15.6548996   7.3909631  19.2516117  16.3538589   7.7439151  17.9562874
  53.7159729   8.2002010  53.4953613  54.3645439   8.2701063  54.1958618
  53.1873932   8.9939032  53.5782700  66.5191574  33.4557571  18.2405472
  66.3558121  34.3837471  18.4090290  65.6566467  33.0454674  18.3034611
  80.8258591  38.7743721  88.7840652  80.1393585  38.6152725  89.4318619
  80.5792465  38.2312851  88.0354233  63.2616997  60.7542267   4.7287750
  62.3313141  60.6162529   4.9064765  63.5286446  61.4251175   5.3571672
  75.8383560  44.3307838  17.4054813  75.2251587  44.7009010  16.7704659
  75.9780197  45.0329170  18.0408821  40.5707397  71.1238022  22.8872280
  39.7136002  71.3521347  22.5275002  40.4370155  71.1108322  23.8349514
  23.8904705  31.6642303  88.4466705  24.8110161  31.4965267  88.2449188
  23.5639706  32.1501503  87.6893616  54.2427597  69.4529724  56.5552711
  53.6606903  68.7064209  56.6970406  55.0750465  69.1851273  56.9448738
  61.4354744  53.1624603  56.5735741  60.7704697  52.5262222  56.3105087
  61.3782196  53.8548775  55.9151573  46.8713799  49.1471443  67.4687195
  47.7618141  49.3353996  67.1722107  46.9845886  48.5232086  68.1857452
  39.8258858   4.6359234  63.4069901  39.1737213   4.6207638  64.1074753
  39.9808655   3.7134161  63.2040253  52.9157944  60.6459160  26.1481285
  53.7535210  60.2602501  26.4044685  52.2713928  60.2126236  26.7077999
   9.2744818  67.6041489  89.1536255   8.3646278  67.4206696  89.3875656
   9.2560205  67.7367325  88.2058334  45.7951546  52.3881721  83.5285110
  44.9863319  52.0846443  83.9407043  46.4851074  52.1412163  84.1443100
  24.0438519  41.6614761  21.7668514  23.7819691  41.2714424  22.6008301
  24.4890423  42.4728508  22.0112133  51.8446617  60.3364410  32.5626831
  51.6288261  60.3675575  31.6306553  51.0104446  60.4880104  33.0069122
  77.1808929  53.5331764  21.8845062  76.5012741  53.7150688  22.5335560
  77.1132202  52.5919266  21.7242012  73.6428452  16.0267735  50.9802971
  73.3265076  15.9743462  51.8821907  74.4607925  16.5201664  51.0416756
  21.1732826  38.5489235  72.8825760  21.9316387  37.9750595  72.9912338
  20.5199261  38.1997986  73.4887695  66.6082001  18.8363438   1.1124239
  66.0525360  19.0818577   1.8521478  67.4685287  18.6784058   1.5011741
  62.5738258  51.6158447  85.9507980  62.9329147  51.5314789  85.0675278
  62.5489922  50.7195511  86.2858734   0.4037568  14.1095390  71.2952805
  -0.1458952  13.4343596  70.8974762   0.5666674  14.7333279  70.5877686
  51.2733498  22.8866768  24.4893494  50.7431526  22.9250565  23.6933270
  51.1147652  23.7249374  24.9234009  18.3083935  50.2291107  50.9260559
  18.1316013  49.3563652  51.2771797  18.7128086  50.7024078  51.6531525
  63.7114372  15.1631775  32.1509323  62.7743111  15.3554087  32.1837616
  64.0757904  15.6169939  32.9108849  31.4196224  71.2722473  44.4250565
  32.0778885  71.2115021  45.1173210  30.6104965  71.4994965  44.8832130
  17.9936943  37.9947052  65.0561905  17.6021500  38.8405495  64.8383102
  17.8446960  37.4547539  64.2799835  73.3241119  32.2882233  62.4971390
  73.1182022  33.1638336  62.8244553  72.6093674  31.7383423  62.8180695
  20.8193493  50.0870514  49.5749702  20.9260349  50.0186920  48.6261940
  19.8997478  49.8704948  49.7288055  78.0590897  42.7809410   0.9832847
  77.7396469  43.5776672   0.5597082  78.4917755  42.2938499   0.2820312
  49.7414131  51.3086815  47.3122635  50.2124710  52.0126457  46.8664246
  49.8878555  50.5378151  46.7640419  47.5130959  14.9424133  88.4708023
  47.2916145  14.1001663  88.8680344  48.2567749  14.7497416  87.8997879
  70.5793152  41.1228790  24.2860451  71.4835892  40.8230209  24.3787632
  70.1613846  40.8828125  25.1130466  75.6383820  43.1260567  54.6691284
  76.3129730  43.3205376  55.3197670  75.1130066  42.4328308  55.0686951
  44.1508942   0.9156091   9.5611210  45.0046349   0.6414400   9.2261763
  43.7997818   1.4898872   8.8805647  21.5361881  10.1087170  34.3879089
  20.6317902  10.1169872  34.0744934  21.5859432  10.8468504  34.9952927
  28.6207809  17.9449329  27.4719467  28.9513111  17.5081940  28.2569580
  27.6752644  18.0019283  27.6097202   8.5948439  23.3270855  21.8300114
   8.7578030  22.8158493  21.0373478   7.8704934  22.8745632  22.2621822
  64.0903168  67.1249847  43.3589211  63.4156952  67.2753601  42.6967163
  64.6802063  67.8740540  43.2742767  76.9652328  70.2543488  74.7308502
  77.7186279  69.9135132  74.2487030  76.2254486  70.1339340  74.1354904
  50.5592194  49.8923759  67.6109848  50.5124969  48.9988098  67.2710037
  49.9668541  50.3932724  67.0502396  71.9118729  17.4086151  75.3323898
  71.9837112  17.6685944  74.4139786  70.9797058  17.2318802  75.4590759
  19.9925728  53.5344620  77.0224762  20.6073742  53.9727440  76.4341202
  20.2509594  52.6131783  76.9958496  47.9444771   2.9506650   2.9514623
  47.1951523   2.6033363   3.4353080  47.5626144   3.3358777   2.1627760
  59.8568497  43.7860298  41.5027275  59.0109520  44.2123718  41.6402702
  60.2534142  43.7542343  42.3733330  41.1516914  26.8885231   1.7838917
  40.6693802  26.9725666   2.6064143  41.9065094  27.4677677   1.8885884
  51.6449547  44.9656601  72.5416718  51.7101402  45.2079430  73.4654007
  51.6028557  44.0094032  72.5472641  12.5299950  28.3544464   3.8053014
  13.1390743  28.8383446   4.3630624  13.0781002  27.7148533   3.3506222
  56.1472206  22.3376904  85.6656570  56.1532059  23.2295494  86.0131989
  55.6520615  22.4021797  84.8490219  58.9754257  25.1719990  76.8334427
  58.1281281  25.1965904  76.3887863  58.9341621  25.8880939  77.4672699
   9.1040373   2.9742405  -0.1647793   8.7870932   2.3614352   0.4987321
   9.4525261   3.7112405   0.3368372  30.0215054  58.6739502  41.6842537
  30.5354881  58.5569839  42.4832344  30.6594639  58.9540825  41.0279236
  37.7580795   9.3477421  15.3092556  38.1513748   9.5260611  16.1635113
  36.8171082   9.3131132  15.4813290  35.3527870  46.4704933  41.6757545
  35.8311424  46.2046623  40.8904266  34.4555283  46.1751175  41.5211334
  27.2268944  45.8602371  71.6960983  26.9258881  46.3582687  72.4560928
  26.5022945  45.2677574  71.4957047  55.4004898  12.7563686  21.5571594
  54.8837509  11.9779015  21.3493099  55.1771164  13.3829212  20.8688507
  18.4943047  12.8553820   3.6772957  18.5836029  12.1945400   4.3639884
  18.5670280  13.6911211   4.1382542  26.0965939  19.0412159  54.6790237
  25.5856056  19.6809521  55.1748657  25.8455124  19.1889973  53.7672386
  12.6967697  51.8513756   6.6774902  11.7486992  51.7273216   6.6327324
  12.9729824  51.9183006   5.7634554  25.8829517  41.3948250  52.5654716
  25.0365162  41.5252724  52.9929771  26.3978004  40.8969231  53.2004929
  44.7638626  49.2650795  28.1908417  45.2418747  49.8666840  27.6200447
  45.1855087  48.4170723  28.0518169  62.8330917  46.1524124  27.3157711
  63.4421883  45.7034111  27.9019737  62.4663086  46.8591042  27.8470764
  70.9554062  27.6703053  83.8669052  71.8797226  27.6445179  84.1143036
  70.8270416  26.8830566  83.3377533   8.5218124  40.1506538  66.7374039
   7.7414908  39.9695740  66.2134323   8.3424082  39.7409973  67.5837021
   8.3389072  15.8786182  11.6774712   7.5005550  16.1108017  12.0768309
   8.9775639  16.4389915  12.1183004  84.8213348  34.3690338  59.1444054
  84.7654190  34.5976677  60.0722160  85.3997192  33.6067314  59.1200142
  80.5547867  14.2071705  28.1500835  80.8104172  15.0882082  27.8768444
  81.3427734  13.8435822  28.5539589  24.7392006  55.0994034  42.0053253
  23.9086761  55.4766083  42.2954559  25.2377224  54.9688263  42.8119583
  41.4130325  51.6884155  53.0459862  41.4611702  51.3063278  52.1696739
  41.0814972  50.9802971  53.5981483  14.9433317   7.5127082  22.9527950
  15.2819519   6.6185932  22.9066792  15.3554487   7.8849859  23.7324104
  56.7990570  68.3832932  57.3959351  57.0601387  69.3035812  57.4295235
  57.3155937  68.0137711  56.6797829  16.2665386  51.2985306  44.0420761
  16.6757812  51.0654984  43.2087402  16.0690937  50.4579849  44.4552727
  83.1990509  32.4033051  86.5863190  84.1498032  32.5139389  86.5781250
  82.9909973  32.0547905  85.7194443  68.3196030  65.6499252  37.2706795
  68.0552597  64.7313461  37.2198792  69.1142349  65.6413269  37.8042641
  11.2719994  25.2389812  53.4005280  10.4578342  24.9194794  53.0115738
  10.9963617  25.6819649  54.2030373   3.2492325  56.5846863   0.8060336
   3.8079302  56.7187004   0.0404429   3.0065107  57.4682007   1.0830169
  30.7796135  62.6867714  61.6322250  31.0543289  63.3591080  62.2557068
  29.8237953  62.7381630  61.6302452  84.8103256  51.0287209  32.9099770
  83.9052429  51.1418800  32.6197205  84.7735138  51.1438828  33.8595085
  66.7854843  48.8860741  10.3438845  66.7507401  49.5688972   9.6739788
  67.4500809  48.2740097  10.0277767  85.9649887  31.4665604  12.4937830
  85.2354889  32.0381737  12.2543602  86.6765900  32.0668411  12.7163010
  71.5990143  22.7190857  82.3804703  72.3782959  22.3827877  81.9379044
  71.3795624  22.0453644  83.0240250  47.0239601  42.7721901  61.4823112
  46.1535950  42.9487457  61.8394127  47.0343971  43.2277184  60.6405182
  12.0401211  19.3063335   8.2627602  12.3895388  18.7701283   7.5509849
  11.6621943  20.0689640   7.8248138   6.1582890  66.9537735  18.7052021
   6.7199702  66.8491592  19.4731884   5.5326228  67.6330872  18.9568062
  65.2396469  68.6793823   0.4619211  64.5737152  67.9923096   0.4357300
  65.2789230  69.0092163  -0.4357992  79.4896851  42.8935699  10.5810299
  79.6336136  43.4192963  11.3678761  80.3634872  42.7760162  10.2083702
  35.5948067  52.0384827  88.4161072  35.0941048  51.2393990  88.2518158
  36.5086441  51.7750740  88.3076935  64.5651703  44.1458130  43.8346405
  64.9557037  43.7897263  43.0365677  64.8742065  43.5668564  44.5314484
   8.6199379  52.5054359  58.8512306   9.3888788  52.1225204  58.4289322
   8.1796932  52.9901199  58.1530228  11.6337786  33.3676796  59.8969536
  11.2675743  32.6599770  60.4273109  12.2779293  33.7862587  60.4679985
   2.2150874  21.1129303   0.2472245   2.5373614  20.2564640  -0.0335562
   1.2673109  21.0649967   0.1221086  28.2181530  67.9375076   9.5454950
  27.3012753  67.7298431   9.3653708  28.6848984  67.1166306   9.3888187
   4.4727001  46.4807014  37.2446022   4.1744804  46.5385704  38.1523170
   5.4117503  46.3076973  37.3115768  76.3343201  67.5039215  40.9042358
  75.9784088  68.3618622  40.6729584  76.1428375  67.4087830  41.8372498
   1.5486894   0.9505128  58.1368446   1.3973964   0.1332626  57.6620331
   1.4084924   1.6363099  57.4839592  82.3503418  43.0750237  68.5926437
  83.1651764  42.7651901  68.1973190  82.5426178  43.1259880  69.5289459
   8.7651224  47.8339996  26.4994793   9.3507881  48.5794067  26.3668213
   9.3355217  47.1353035  26.8199482   1.7985318   2.1896274  65.0207672
   2.7207935   2.3457775  64.8175888   1.4451759   3.0582519  65.2127686
  74.4499664  26.6663246  51.8670311  74.0494080  26.0159626  51.2901306
  75.3388748  26.7720299  51.5280762  60.9139137  67.4979172  29.7629395
  60.7037544  66.5955276  30.0032616  61.4566841  67.4167175  28.9786968
  69.5749893  45.7287598  48.2205811  70.3513489  45.3744926  47.7870064
  69.6225891  45.3873367  49.1135521  75.5901718   0.0191461  44.9331970
  76.1406555   0.8016538  44.9630013  75.2786636  -0.0889202  45.8318138
  75.7998123  66.0286942  24.0781078  74.8903809  66.3092041  24.1804771
  75.8495941  65.1993256  24.5534039   2.2834480  55.5502968  84.8945618
   1.6192526  54.9015808  85.1274643   1.9167982  56.3844185  85.1878891
  50.7819023  35.3472137  47.7330704  51.0920792  34.9873848  46.9020805
  49.8278961  35.2939453  47.6759300  34.9885063  60.6077919  26.1815777
  34.7336540  60.5572815  25.2603130  35.3774147  61.4774055  26.2751675
  68.5909348  38.2261734  58.6984482  67.8852768  37.5815544  58.7508659
  68.7948990  38.4327202  59.6105728  47.5168762   5.4332676  50.9737473
  47.4803505   4.4856820  50.8434410  46.6088371   5.6876063  51.1381111
  26.5736160  32.7199326  10.5200081  26.1176720  32.9483871  11.3300419
  25.9892673  33.0195122   9.8235760  45.2562408  24.5912361  17.9574261
  44.5442848  24.0795784  17.5732918  45.6211510  24.0225430  18.6354084
  26.7053795   3.9701135   8.9981470  25.9354954   3.8394551   8.4445791
  27.2454739   3.1950004   8.8441019   1.2393357  46.8073273  33.8262520
   0.9454016  46.9259148  34.7294502   2.1819129  46.6573067  33.8988647
  38.2523346  53.9786491  78.2877731  37.4799004  54.3580322  77.8686829
  38.9878349  54.2872963  77.7586212  83.7769775  43.0933228  37.5550957
  84.2752686  43.9101448  37.5278740  83.9889297  42.6558723  36.7305069
  16.0115547  52.5689583   5.7790155  15.4244623  52.8478813   5.0763369
  16.7740135  53.1416054   5.6955495  67.6256409   9.7009993  82.4591751
  66.6743927   9.6327858  82.3772659  67.7613373  10.2097130  83.2585678
  30.4231529  54.9603729  83.4922333  30.9207096  54.9790726  82.6747284
  30.3538895  54.0306778  83.7092514  83.4790726  46.7128830  69.7871323
  83.3453979  47.6568832  69.8721542  82.5961685  46.3524017  69.7048798
  78.5436096  48.3231163  83.2818985  78.5423279  48.8775558  84.0621719
  79.4663391  48.1120377  83.1395798  66.7891159  61.7128258  82.5727997
  66.4211807  62.4574585  82.0970078  67.3789139  62.1069984  83.2154465
  84.2148895  13.0470381  18.4504871  84.4128647  13.5918522  19.2122059
  83.9721832  13.6709518  17.7663403  25.7500477  39.4913330   3.6640770
  26.4014931  38.9384689   4.0955763  25.6349392  39.0959663   2.7999778
  60.4728889  15.5659609  23.3643436  60.7042465  16.2553406  22.7418804
  60.5167999  14.7575579  22.8536720  70.9735260  32.4842072  73.6709137
  71.5090332  31.7403164  73.9467545  71.2918472  33.2170219  74.1980591
  66.1096039  56.0461235  67.1179276  66.1319199  56.7536583  66.4736252
  67.0206833  55.7625771  67.1939392  25.5768986  44.5110512  67.5977859
  25.5001240  45.4178123  67.8946457  24.6898003  44.2706451  67.3304062
  12.0510416  41.3521805  79.7212982  11.6162472  42.0708275  79.2622452
  11.7296467  40.5616951  79.2876205  47.8008003  70.3582458  12.0368261
  47.7564125  71.2266693  11.6366863  48.5497894  69.9378510  11.6143131
  37.9893684  55.9027748  51.7284279  37.8121185  56.2582779  52.5993080
  38.9442368  55.8605003  51.6767769  72.1834869  49.1099968  62.4665070
  71.4890594  49.6718140  62.8105354  72.0119247  48.2520828  62.8548164
  69.0512314  24.8347816   6.8480501  69.7229385  24.3819790   7.3579683
  69.0169678  25.7141857   7.2244878  24.6476383  13.8828754  78.1274567
  24.0906086  13.7065382  78.8856430  24.2963085  13.3214321  77.4363785
  11.0236883  23.9924793  14.4655848  10.5196304  24.7129917  14.0874043
  11.6566849  23.7604694  13.7860861  18.0215759  55.5705795  46.7847404
  17.4723701  54.9193687  46.3482437  18.8810139  55.1542053  46.8498001
  39.5575523   7.9892464   5.4498057  38.8024178   7.7169843   5.9712243
  40.0707474   7.1893501   5.3356762  72.8708801  16.9514771  40.7647209
  72.9489365  17.8041191  40.3367729  73.6348343  16.4606609  40.4618988
  48.7375793   6.3328290  77.4626465  49.3614235   6.9761086  77.7991638
  47.8907089   6.6184158  77.8054047  52.2819710  24.7163334  76.6991882
  51.6135979  24.0391884  76.8040009  52.2504120  25.2126446  77.5170593
  43.1101151  48.2086639  76.8251724  43.0289307  48.6997185  77.6427917
  42.5789261  48.6988297  76.1976318  11.8187189   6.5617433  25.8844509
  10.9417820   6.3006477  25.6033077  11.6733570   7.0661774  26.6848564
  29.7665977  23.5782452  78.5839615  29.3935223  23.2220497  77.7776337
  30.6996937  23.3723907  78.5275040  60.4915199  16.4507580  11.8507204
  60.6634369  17.1458511  11.2154875  59.7076149  16.0123596  11.5197639
  39.3363686  41.7010727  83.1415100  39.5071449  41.0569763  82.4543381
  38.4142342  41.5743408  83.3647537  45.3340874  60.8869896  66.5336227
  45.2714653  61.8239136  66.3479309  46.1021423  60.8056946  67.0990601
  67.7849884  55.5646820  56.1281624  67.0479202  54.9642639  56.2397614
  67.4603653  56.2328186  55.5244713  36.0686951  52.9632263  12.6536245
  35.3143425  53.0151215  12.0666943  36.0936165  53.8160248  13.0876122
  72.7951965   6.0683532  24.0945225  72.4373322   6.8929219  24.4235458
  73.7440643   6.1760068  24.1599731  61.3400803  20.3702068  42.9366570
  61.1018562  19.5364780  42.5312233  60.6395264  20.5389652  43.5667191
  85.0057220  24.7223816  13.3975201  84.1506195  25.1284904  13.2557163
  85.3250885  25.1141396  14.2103939  72.8718643  28.8623543   1.6371804
  72.3853378  29.3030014   0.9405029  73.3891144  28.1965828   1.1839380
  56.7746849  48.0834351  60.7000198  56.3873100  48.8457756  60.2698898
  56.8857498  47.4427872  59.9975510  42.7886772  53.1815834  18.9101543
  43.6784439  53.2812386  18.5716057  42.4333992  52.4317627  18.4328918
  70.0319443  37.5031700  88.1686020  69.1999741  37.6586494  87.7215195
  70.4881516  38.3435135  88.1246872  65.9542236  61.4815063  50.2371407
  65.4696121  60.6640587  50.3518829  65.7829819  61.9759827  51.0386429
  54.5915833  56.6319923  61.3334656  54.3877907  56.3608665  60.4383698
  55.3987846  57.1399460  61.2519531   6.2493091  37.8955803  89.0202103
   6.7890310  37.7469177  88.2437897   6.1558447  38.8469887  89.0683517
  69.3987579  42.2690506  84.8987198  70.0430679  42.1862526  84.1956940
  69.7566757  41.7441216  85.6146698  69.2854004  67.0352859  47.9718208
  69.7231445  66.2471008  47.6502876  68.5057983  67.1172562  47.4225197
  25.7780151  30.6052990   1.5237931  25.9426498  29.9910812   2.2392395
  25.0460434  30.2206841   1.0415900  24.0775471  60.6636047  46.9196510
  24.5821609  59.8625336  47.0606537  24.4483547  61.2923660  47.5388336
  28.6776371  54.8997803  45.8375740  28.3991108  55.0623512  46.7388077
  29.4022808  54.2797050  45.9189949  39.6517677  18.1643734  85.4896317
  40.5872383  18.1138973  85.6860580  39.5990829  18.0415707  84.5418091
  77.0076523  67.3221741  54.3307266  77.2744751  66.4044647  54.2774162
  76.1118622  67.3311310  53.9935188  45.8089790  48.2925415  75.2431717
  44.9154739  48.3529015  74.9051743  46.3618050  48.5537109  74.5066910
  24.5253506  49.0959435  20.7044373  24.6690540  48.2165527  21.0540848
  23.6291656  49.0767136  20.3687077  72.2160339  14.3139486  86.0876312
  72.5641098  13.9172630  86.8862076  71.4435806  13.7894907  85.8767166
  21.4984894  13.4172878  74.0050583  21.6952076  14.3377285  73.8309250
  22.3521862  13.0169258  74.1698151  79.9113998  38.1564941  48.6781044
  79.1916733  38.7487297  48.8960075  79.6329041  37.7289009  47.8682671
  85.6552048  43.8630066  19.9872093  86.5407486  43.6026230  19.7337456
  85.7503281  44.7627182  20.2997837  54.6120491  68.3197403  29.9861622
  55.0268440  68.9902878  30.5288887  54.5728302  68.7091293  29.1126232
  86.0129089  25.1096230   4.7600989  86.3714600  24.3085766   5.1421895
  86.7254868  25.4597549   4.2254353  10.0017300  62.2278214  52.2301102
  10.0802259  62.9106407  51.5639038   9.1865110  62.4325905  52.6880608
  46.9369125  12.2626467   8.4777775  46.0693512  12.1080666   8.1040506
  47.0209999  11.6048908   9.1680813  14.4805069  39.6946335   8.4300508
  15.4364471  39.6873398   8.4786043  14.1942358  39.6878548   9.3434153
   2.5717866  63.4662704  52.1227837   1.8750372  62.8186569  52.0161705
   2.1108320  64.2971268  52.2386742  61.6837845  17.9518070  38.0557060
  61.8871078  17.3194885  37.3664589  60.7352829  17.8877068  38.1673355
  35.7008209  22.1516533  79.3101501  34.9861794  21.5155315  79.2806473
  35.5881348  22.5997715  80.1484375   9.9250603  45.8260689  28.0039806
   9.7797546  46.3769188  28.7731895   9.8402176  44.9305496  28.3312092
  74.4087906  37.5889778  51.3480453  74.1176987  38.0966606  52.1055145
  75.2559052  37.9694290  51.1159325   6.7423158  53.4816933  50.1103706
   6.7140698  53.4346581  51.0659981   6.7506571  54.4190903  49.9168510
  66.2226486  50.5911026  53.5233040  66.8938141  51.2520561  53.3532715
  66.3171310  49.9638824  52.8064346  77.6867142  37.9407692  12.0384731
  78.0497284  38.7390137  11.6547394  77.4491577  38.1908302  12.9313717
  68.2361145  29.0258713   9.3270445  68.6900711  29.4986229  10.0246544
  68.2676773  29.6186619   8.5761528  63.4579201  43.0931549  22.4868126
  62.6267738  42.9752541  22.9467335  63.2154694  43.4978142  21.6539249
   6.9736047  25.8878632  14.2850447   7.8912997  26.0926113  14.1057529
   7.0039001  25.2774563  15.0217390  61.1017799  10.3133850  53.3400879
  60.9696350  11.0013742  53.9923477  60.2887802  10.3028889  52.8349609
  37.4635582  34.0091476  75.0989609  37.4267960  34.8354454  75.5807419
  37.5545464  33.3401299  75.7774658  77.1465378  46.2396431  82.0721359
  76.6164703  46.3244553  82.8646393  77.8789597  46.8406601  82.2084122
  30.1469059  49.2840576  74.7293777  30.6532574  49.8705826  74.1673965
  29.9780960  49.7964935  75.5200424  45.0517502  55.9750748   0.2875864
  44.8445244  55.4549446  -0.4887854  45.9896202  56.1518135   0.2141482
  60.3078232  70.5176392  41.1665154  60.1662483  70.7128983  40.2402000
  59.8372192  71.2092590  41.6317329  45.0279999  21.8348732  33.0141983
  45.9076729  21.4633942  33.0806122  44.6136284  21.3439255  32.3046227
  83.0429764  49.1423759  37.5666428  83.4494400  49.8753548  38.0289841
  83.6072006  48.9955711  36.8074799  13.1659813  39.1475906  35.0119247
  13.3225985  39.6988297  34.2452202  13.8460741  38.4755363  34.9666824
   7.3666062  49.0899734  60.8054047   7.2451859  49.4393654  59.9225578
   6.9717374  48.2185631  60.7745285  76.4942780  66.1031952  81.1533279
  76.4363708  67.0428467  80.9802780  77.0607071  65.7662811  80.4591522
  64.7650604  22.9850674  17.0191116  63.8299484  23.1885757  17.0387192
  65.1964569  23.8264103  17.1683369  70.6016769  55.4866829   9.4386129
  70.1508713  55.0175285   8.7365475  71.0605240  54.8033180   9.9271851
  58.4338760  30.4736938  26.6260204  58.4813843  31.3144703  26.1709747
  59.2885132  30.3805180  27.0469055  70.5578003  31.7906380  67.6641693
  70.0016327  31.0143681  67.7298050  70.5207214  32.1861763  68.5350418
   4.1515784  37.8448448  73.0615768   3.2549281  38.1766434  73.1080551
   4.6917100  38.5693130  73.3772278  85.1810532  13.5421848  43.6708221
  84.4981613  13.9921474  43.1734085  84.7976990  13.4092331  44.5377655
  48.9136391  24.3842411  27.2225266  48.3590965  24.4318237  26.4437771
  49.7820206  24.6434746  26.9143982  44.2647820  42.5074043  64.5416489
  43.6967773  42.5462265  65.3111267  44.9600296  43.1392517  64.7250443
  65.8012314  66.6188049  20.4895802  65.4944916  67.4294815  20.0834389
  66.7558060  66.6766281  20.4485226  67.5249023  69.8414688  21.5727062
  68.4016266  69.8424072  21.9568710  67.6684952  70.0415955  20.6477394
  30.5163059  46.0168228  60.5007019  31.0587788  45.5607071  61.1440620
  30.8622246  46.9091988  60.4853363  31.4648132  67.9462662   9.8971701
  30.8826752  67.2434921  10.1860561  31.7654095  68.3567734  10.7079468
  16.2204380  45.3853111  43.7632904  15.7736483  45.1701584  44.5820236
  17.0051842  45.8605156  44.0363960  77.5630493  54.5020065  80.1411896
  77.8642273  53.7276688  79.6658783  76.7474747  54.2246895  80.5585251
  74.0123520   8.7740440  85.7157211  74.6518097   8.7571678  85.0036469
  74.4093628   9.3363485  86.3808746  17.3489761  51.4119263  12.3922081
  17.1574059  51.6786041  13.2913275  16.8884697  52.0517998  11.8493204
  45.0176163   5.4732022  13.7631607  44.9076538   6.2907505  13.2776136
  44.1737404   5.0293207  13.6790466  27.2329273  36.3890457   2.8194189
  26.6944447  36.2533035   3.5990613  26.6523838  36.1792297   2.0878601
  77.5675354  15.2623301  63.1139069  76.7679901  15.5787563  62.6934052
  77.4740143  14.3097305  63.1201248  46.4054527   5.6379552  61.1162338
  46.6050644   4.7416601  60.8459702  46.5718117   5.6465673  62.0588303
  21.3961735  53.7982254  30.3520412  21.1839294  54.7315979  30.3512936
  20.8597794  53.4300613  29.6499233  73.6515045  47.8607368  82.9949951
  73.1826248  48.6892662  82.8954239  74.4778748  48.1019821  83.4134979
  28.4113770  40.9019279  16.0125351  28.7162952  41.3638000  15.2315550
  29.1902237  40.8226700  16.5633049  28.1057377   6.2307706  50.7265892
  29.0602436   6.1593103  50.7330399  27.9005032   6.7667718  51.4926262
  53.1486702  25.9084625  66.4734268  53.5682259  25.0515270  66.3968201
  52.7108955  25.8855953  67.3243484  29.9563656  53.3279419  54.4490013
  29.4037476  52.5917206  54.7113457  30.8364048  52.9566002  54.3867798
   7.0837312  49.7406311  45.9862480   6.7023373  49.2859268  46.7372589
   7.1940985  50.6436920  46.2837944  57.0590324  71.5020142  40.4001770
  57.2922401  70.6473389  40.7626228  57.5222816  71.5418472  39.5634880
  24.1136551  70.6238251  26.5505867  24.5888977  70.2920761  27.3123741
  23.5316944  71.2958984  26.9053688  48.4353867  40.1236954  64.7717514
  48.6538391  39.1944199  64.7013397  47.7996559  40.2739716  64.0721130
   0.8851802  59.8645248  14.4341660   0.0273011  59.4913673  14.6367254
   0.8260146  60.1143723  13.5120449  11.1166039  65.7018127  35.1389122
  11.3614044  65.5781174  34.2218513  11.0073271  64.8139572  35.4794922
  52.1852875  21.7135258  65.0448837  53.0565872  22.0644417  65.2290726
  52.1696663  21.5976524  64.0948486  83.6681900  60.3595238   9.5379572
  83.1294174  59.5686646   9.5602283  83.1692734  61.0034523  10.0406199
  37.0684853  67.4667969   0.3800416  36.3786659  67.5787277   1.0341425
  36.7018166  66.8476639  -0.2511994   0.9453536  46.6435356  51.5260162
   0.7456924  46.8841286  50.6213150   1.5642064  47.3117447  51.8205490
  57.1648788  32.1562119  11.9678116  57.3752556  31.4644299  12.5950384
  57.9767532  32.6557579  11.8809481  68.9474106  17.5769653  37.8700829
  69.7160110  17.0092239  37.8139038  68.3060226  17.1701126  37.2875710
  40.6226692  51.3742828  80.9484406  41.1784821  50.6403809  81.2105331
  40.2472763  51.6951981  81.7683945  31.0699139  34.7667007   6.0203238
  31.1508961  34.5331917   6.9450660  30.6815453  33.9934082   5.6111517
  23.1074677  25.2290802  70.9237289  23.5161667  25.9080677  71.4605484
  22.1869850  25.2380199  71.1861496   6.6412225  32.6903877  82.3466339
   6.5441585  31.7639580  82.1263275   5.7550893  33.0463181  82.2809525
  30.0825443  64.9506531  10.8069038  30.5032177  64.6465683  10.0026674
  29.1747608  64.6575165  10.7279720  37.6097450  24.3203011  85.8744354
  36.7050400  24.5780048  85.6974258  38.0454979  24.3763161  85.0240173
  57.5656967  61.4701843  72.9968719  56.7419815  61.5411835  72.5145035
  58.1549835  61.0111809  72.3983002  19.9234924  48.4033813  18.3489513
  20.4826736  47.6302376  18.2728195  19.2161484  48.1307678  18.9333992
  19.7143841  68.1511383  72.8571396  19.8029003  68.3788986  71.9316559
  19.4687195  67.2260056  72.8536911  55.8866234  31.3444805  71.3402863
  54.9628258  31.3610439  71.5904007  55.8886795  31.5896664  70.4150238
  72.2554321  33.1970901  32.2375412  72.3476410  33.1452103  33.1888733
  72.9473038  32.6291046  31.8985138  24.3219910  24.3075867  83.1501617
  24.3517742  24.9677048  82.4576340  23.4806919  24.4524612  83.5831223
  14.9461336  25.5450993  74.1948090  15.3223228  25.0385380  74.9146042
  14.7697163  26.4059544  74.5743332  14.5542049   4.1034198  69.5768433
  13.9952717   4.8488851  69.3575134  14.8837442   3.7946444  68.7328720
  66.9646301  52.8658028  30.1488609  66.0313721  52.8083611  30.3536987
  67.0869141  52.2609177  29.4171562  75.6098938  71.0917053  47.9149284
  76.5318375  71.2258224  47.6952171  75.3838120  71.8404388  48.4667625
  49.6099548   3.6281729  63.4809113  50.1026611   2.8168538  63.3574905
  50.2707443   4.3191266  63.4343529  33.9845963  60.8211555  66.7432709
  34.7321701  60.2864723  66.4759140  33.8775063  60.6338882  67.6758423
  33.9219360  64.2115326  53.6163788  33.6569672  63.2950134  53.6939316
  34.3890686  64.3955841  54.4313278   3.1228170  62.1995163  85.3520050
   2.8586729  61.4493256  84.8193893   4.0794525  62.1667175  85.3542099
  76.7913208  38.1601562   8.4167099  77.4570999  38.7675934   8.7391891
  75.9728775  38.4768715   8.7989092  45.9778938  22.9121799  79.8496323
  45.9562263  22.9752102  78.8947525  45.7396240  23.7882233  80.1529617
   4.1468129  46.4525719   5.6420426   4.1367331  45.6154480   5.1779799
   4.1221280  46.2131577   6.5684891  58.6720467  41.2037430  43.2907524
  57.8606300  40.9295120  42.8633995  58.4800453  42.0775642  43.6310463
  52.8779297  65.1943359  52.2484818  53.1894493  65.9225540  52.7859650
  53.6693764  64.7024231  52.0296936  12.4087477  45.2393761  80.3423233
  11.5926237  45.7160988  80.4936752  13.0250435  45.9082527  80.0439682
  23.7303581  69.4032440   0.7437661  23.9711723  70.3279037   0.8006934
  23.1274242  69.3580170   0.0017030  22.1112709   5.4035277  19.9213085
  22.3725662   5.5971093  20.8215752  21.2395592   5.0166130  20.0028534
  30.1980858  15.4974976  61.5485764  31.1416836  15.4817295  61.7085953
  29.9061337  16.3302059  61.9195137   3.5918872  32.9197006  50.0517006
   4.1864653  32.7199326  49.3286476   4.1224604  32.7971954  50.8389206
  35.0051003  69.0417938  10.9005871  35.7233849  68.7272949  11.4495707
  35.4370308  69.5092163  10.1856165  30.6825275  61.2080040  68.9390869
  30.7420750  60.4384613  68.3729706  31.3174133  61.0423508  69.6360168
  75.9406357  71.0713425  35.4048080  75.0473938  70.8814392  35.6916847
  76.1809464  71.8665619  35.8803139  76.9819107  64.8439102  65.2128677
  76.6118240  65.1041336  64.3693314  77.5817337  64.1287155  65.0008545
  38.8478775  14.1520739  59.6094551  38.1851692  13.7732735  59.0319099
  38.9093246  13.5363417  60.3397522   0.5808866  59.3219528  40.1607132
   1.1401644  59.5881195  40.8905029   0.0064659  60.0732079  40.0127792
  24.1290359  58.6935196  33.9386978  24.6901398  57.9242783  33.8403969
  24.1275005  59.1011086  33.0726128  27.1921825  50.9754333  42.4820709
  26.6061668  50.5710144  43.1218071  28.0588703  50.9240189  42.8851089
  73.3389511   3.2646739  24.4430084  72.6444550   2.8345151  23.9441338
  73.3067245   4.1783810  24.1595783  47.1769447   7.5061827  25.7317181
  47.0442467   8.4383440  25.9040508  48.1041298   7.3578596  25.9176178
  58.8690567  13.3178139  16.7616673  58.7238426  12.5364723  16.2281418
  59.7090187  13.6622810  16.4582863  84.3209839  43.8022881  11.9291983
  84.2496262  43.7612724  12.8828535  83.8507385  44.6003456  11.6879339
  19.9093189  21.2781754  80.5702515  19.6921673  21.5723591  79.6856461
  19.1074657  21.4199581  81.0734024  37.7122040  49.5379105  83.2998047
  37.8033447  50.4801140  83.1577454  37.5780602  49.1755295  82.4240646
  16.4310455  17.5947590  12.6022501  17.2944984  17.8849354  12.3081770
  16.2092667  16.8709545  12.0164595  71.3090363  68.6196213  26.7291756
  70.8933945  67.9839478  26.1466045  70.7218018  68.6732407  27.4831715
  12.5902462  66.9114380  80.6460800  12.7719984  66.3714447  79.8769226
  13.4545393  67.1354065  80.9911423  30.0329971  24.5741653   5.3021016
  30.6939392  23.9161720   5.5175824  29.8954792  24.4759140   4.3599410
  69.5954056  38.8574333  77.0869751  68.7802658  38.3685608  76.9739532
  69.6111298  39.4701576  76.3517532  34.1544189  63.8061295  46.5777168
  33.2026138  63.7753143  46.6744156  34.3244133  63.3719864  45.7417412
  15.5620241  51.2535248  28.0500317  16.0669289  51.1249390  28.8530045
  16.2119541  51.2090187  27.3487167  17.0336266   2.6759896  65.2207108
  16.6763535   1.9313136  65.7044907  17.1951637   2.3348858  64.3410568
  32.0529594  64.3468552  41.4769058  31.9658699  63.9471245  42.3422737
  31.6885529  65.2257996  41.5813026  40.7176666  38.3798676  16.2223797
  40.0244522  38.8205986  15.7310123  41.4088249  39.0371132  16.3033905
  81.8682556  50.3006897  84.2829056  82.7828979  50.0502930  84.4131241
  81.8906250  51.2538567  84.1980286  61.4832916  66.6754227  21.7983074
  60.7447853  66.7057800  22.4065151  62.1070480  66.0764389  22.2086468
  19.4482307  43.4908829  43.5810509  19.0763168  42.7356758  43.1254425
  20.2787132  43.6549950  43.1342888  69.9604263  30.8213120  20.1338539
  69.1491928  30.4240589  19.8171043  70.0030060  31.6671505  19.6877823
  66.2005386  51.9515648  25.6949596  65.3512802  52.2637291  26.0072861
  65.9970932  51.1563911  25.2024765  10.4115543  37.4814148  74.4972000
  10.2142620  37.0235748  75.3143158  10.5625305  38.3889122  74.7615585
  41.9842110  22.9561176  63.0101509  42.4862175  23.2327290  63.7767677
  41.6312370  23.7692051  62.6488571  77.2695694  10.1923027  66.0977249
  76.6459808   9.5671930  66.4673309  76.8061371  10.5834961  65.3571701
  65.1914368  58.7100029  11.5893850  65.6334991  58.8093262  10.7462072
  65.2002945  59.5884895  11.9694090   8.5979671  59.3677559  65.3684616
   8.1830206  59.6517944  66.1829376   9.4905643  59.1340866  65.6232147
  57.9244347  37.4683495  73.8769455  58.2940140  36.9190369  73.1856384
  57.1838150  37.9101448  73.4615784  37.9264297  30.7902699   2.2341645
  37.6618843  30.8848915   3.1492026  37.5522118  29.9523201   1.9620775
  27.5571480  62.3141403  35.0638199  27.6566410  62.6118774  35.9680786
  28.1899147  61.6013908  34.9753418  42.9038887  55.9195518  66.4071121
  42.3160133  55.8149986  65.6589813  43.0800438  56.8596916  66.4437485
  72.5453110  32.7706184  83.5931778  72.2788239  31.8564205  83.4959106
  72.7600479  32.8600159  84.5216827  59.3429184   4.1562443  75.3697739
  59.2526398   3.4849663  76.0461349  59.7238007   4.9064550  75.8262253
  82.4061661  19.9526367  50.8030548  81.8249817  19.1920795  50.8068771
  83.1520081  19.6868401  51.3409271  49.7292023  39.4997597  81.9907990
  50.6301079  39.3163681  81.7244034  49.7778854  39.6096039  82.9404297
  82.6123123  12.9300032  65.3009949  82.1020126  12.4272451  65.9358673
  82.0939636  13.7202320  65.1490402  46.1031837  54.5526962  14.5514126
  46.7760353  53.9929466  14.9389496  45.3923035  54.5515404  15.1924086
  62.0769005  48.9797516  28.6089001  61.1940918  48.6966629  28.8470974
  61.9564018  49.8545227  28.2394562  47.1303940   6.8002229  67.6767273
  47.2006950   6.8454475  66.7231827  48.0217628   6.6180515  67.9742279
  56.5505142  37.1548805  68.1585999  56.5444756  38.0167503  67.7422104
  55.7049446  37.0979347  68.6035767  25.9149075  50.5019417  80.7748489
  26.3648129  51.2695847  81.1277542  26.6201401  49.9225311  80.4864655
  79.6386795   5.3482294  16.2244644  80.1102982   4.5287085  16.3734303
  78.7240982   5.1354103  16.4101715  27.3880615   2.4849663  23.9213161
  27.6827545   2.2612727  23.0385094  27.4090004   1.6552992  24.3982296
  75.4515915  21.2163486  64.2213974  75.8491898  20.3910694  63.9437904
  74.7445602  20.9550667  64.8113708  10.9061527  58.2152672  66.6489868
  11.6136065  58.5141373  66.0776596  11.2587128  58.3059578  67.5342636
  61.1770020  29.9758568  16.5823383  61.8649673  29.6421127  17.1581402
  61.5387840  29.8872738  15.7005796   4.0913191  62.3742409  13.9494896
   3.8604312  61.7019539  13.3084307   4.9962816  62.6047707  13.7394199
  75.3344040  67.0793381  60.1662102  75.3359528  66.2617111  60.6639214
  76.0412827  67.5962906  60.5526199  34.5369339  62.9368629  43.5450974
  34.7390747  62.0696106  43.1940384  35.3342209  63.4460793  43.3992767
  74.4736786  60.6472397  19.1701851  75.2327728  60.1354713  18.8907242
  74.4395828  61.3802643  18.5555782  55.4321289   6.9672332  28.0227146
  56.1870117   7.3164368  28.4964676  54.8191261   7.7008324  27.9748173
   6.8482752  70.4884033  81.2755585   6.9131804  71.3524551  80.8688202
   6.1224003  70.5688705  81.8943176   5.0706453  23.0823193   0.0296840
   5.0885496  22.1280899   0.1028586   4.4443226  23.3620224   0.6973055
   7.5614147  45.2770653  11.5313377   7.2864370  46.1938400  11.5432243
   7.0308318  44.8590546  12.2095566  64.0496674  32.7531357  39.9999962
  64.3046570  32.5991898  40.9096718  63.0927162  32.7650375  40.0182228
  42.0772247  36.2239685  86.2328110  42.9630852  36.3809738  85.9059601
  41.9923744  35.2706337  86.2463226   7.1801510  58.5612488  14.8662996
   7.5404701  59.3903427  14.5516500   6.3504696  58.4676628  14.3982153
  66.1304398  29.4849834  75.1828079  66.8283997  28.9967422  75.6194992
  65.9497986  30.2201958  75.7685242  16.9875259  47.5926094  81.5888901
  16.2880688  47.3362656  82.1899567  17.7784786  47.2033882  81.9618988
  21.2978668  18.1292152   1.2378471  21.8482666  17.4696503   1.6600627
  21.4649048  18.0171394   0.3020217  84.1752853  26.5726948  24.3746014
  84.9871216  27.0608082  24.5121174  84.4489365  25.6558857  24.3461781
  24.8660927  50.4954033  67.8939056  25.6268387  49.9271889  68.0148621
  25.2030106  51.3800926  68.0354691  21.7613678   0.3986669  60.6015739
  21.2509480   1.1988465  60.4774170  21.6805973  -0.0684002  59.7699738
  10.4915991  20.4702587  79.2038879  10.0062313  20.4363804  78.3795700
  10.4899082  21.3966084  79.4449310   5.2714272  25.3140221  68.3700027
   4.7650976  25.0432110  67.6041565   6.1483154  24.9635677  68.2135391
  14.5746059  20.8718090   9.7149820  14.1685658  21.6758900   9.3912287
  13.8493004  20.2521744   9.7938299  73.1173935  54.3845749  30.9642830
  72.3601151  54.9529610  31.1046181  73.1055298  53.7818451  31.7077942
  70.2950058  33.6728706  29.2561245  69.6747131  33.0866089  29.6894474
  71.1114883  33.1744766  29.2215252  69.7972031  52.3241920  75.8660507
  70.0451050  53.1936798  75.5517807  68.9859085  52.4679298  76.3532562
   5.0265102  14.0151052  27.2326965   5.1233954  14.9636307  27.1481743
   5.6552625  13.6535206  26.6080704  76.8725510  60.5483665  46.0831680
  76.5013580  61.4165802  45.9261322  76.1120148  59.9850464  46.2263107
  58.1097221  55.8700905  40.0760155  57.5075912  55.2296638  39.6971703
  57.7793503  56.0141182  40.9627762  72.2340851  69.8288116  68.3916397
  72.9120865  70.4680786  68.1728134  72.6944351  69.1516190  68.8873367
  47.8147240  60.3027840  88.2103271  48.0523567  61.1798439  88.5112000
  47.0286674  60.0828476  88.7103119  80.7261810  66.5175858  18.1196766
  81.1867599  66.0078430  17.4531498  79.9731216  66.8884201  17.6596622
  76.1307449   1.3271240  74.8410187  76.1563416   1.6697831  75.7344208
  76.3774414   0.4065896  74.9304047   3.0870953  68.3140640   1.6594294
   2.4929247  68.9363632   2.0788803   2.9444332  67.4925690   2.1295500
   7.5275836  22.2275848  26.6918335   6.8997059  22.6172943  26.0834503
   7.3769455  22.6866112  27.5181713  74.3058472  65.8765869  34.3857002
  74.8299103  66.2795639  33.6934586  73.3992615  66.0213089  34.1148033
  79.9541092  56.3157120  44.1287270  79.3718109  56.3603401  44.8871231
  79.3937225  56.5319176  43.3834419  61.3855591  34.6965637   9.8780451
  61.3134956  34.2128754   9.0551939  62.2301102  34.4286118  10.2402086
  18.4852314   5.0699291   7.7626858  17.6004524   4.8080964   7.5080438
  18.4212265   5.2495551   8.7006998  13.6051254  21.3846416  64.2204895
  14.2638407  22.0397930  64.4509354  13.0842562  21.2784195  65.0165100
  75.5831223   8.3773146  83.3301010  75.9680557   9.1520691  83.7397537
  76.0338593   7.6399012  83.7415543  76.7364349  64.8083267   9.1925564
  77.4546890  65.2994919   8.7936773  75.9442520  65.2126999   8.8387671
  30.3163681  62.7332726  86.4429855  31.0337467  62.3983650  85.9049911
  30.5191040  63.6611786  86.5618286  45.0631828  25.5904274  70.7466812
  45.2768745  26.4045868  70.2909241  44.6670609  25.0363312  70.0741501
  53.7437668  15.6079731   7.8750539  53.1726723  14.8728247   7.6522455
  53.1476288  16.2875614   8.1897182  73.7274399   5.1047826   2.4952598
  74.5379486   4.9815774   2.9893546  74.0160370   5.3977504   1.6309021
  69.5128326  32.1841202  80.3593369  68.5834122  32.3162727  80.1723938
  69.7321014  32.8752670  80.9842072  71.6619415  34.8326569   6.0534410
  71.6312332  35.5860291   5.4637594  72.2920227  34.2368317   5.6481957
  59.8838768  40.2943230  38.6876793  59.3061295  40.7499275  39.2999420
  59.3035622  39.7085876  38.2014923  47.0542641  59.4400139   8.9973078
  47.8489914  58.9127464   9.0787010  46.9377899  59.5536613   8.0540419
  53.3405190  60.5000153   9.9332809  52.6150398  60.6904716  10.5279560
  53.3946228  61.2699661   9.3671713  76.2576599  15.0050154  75.6503525
  76.6849365  15.8612490  75.6273499  75.6364899  15.0667305  76.3760071
  53.5427933  40.0525551  66.7677002  53.4842644  40.9742508  66.5161438
  54.4808273  39.8620300  66.7627563  68.4294510  51.9883270  27.4926472
  68.2250366  51.3364830  28.1631279  67.6961823  51.9391518  26.8793507
  65.2556458   2.6069491  88.5541077  64.4733276   2.1121924  88.3103256
  65.0470963   2.9775589  89.4116516  39.9011269  21.5008469  88.8104095
  39.5068474  21.7471504  87.9736862  39.7254333  20.5633869  88.8912430
  30.5450802   1.9588881  31.0606384  29.8508472   2.1851165  30.4416943
  31.3563175   2.1674707  30.5973682  59.3598404  42.3516884  85.6497574
  59.6702881  42.5923080  86.5226593  60.1566353  42.2747383  85.1249466
  41.6116257  60.7890472  27.7843590  42.2491302  61.0734482  27.1294250
  42.0235710  60.9930115  28.6239624  45.2210159  13.5590715  11.9923658
  45.0504303  14.2645884  11.3683634  44.6789856  13.7743702  12.7513685
  17.0364342  70.4196243  70.4586792  16.9063110  71.2489243  69.9987183
  16.5473080  70.5194092  71.2753983  38.9450340  69.9947891  42.9009743
  38.5979347  69.1115875  42.7756042  38.1827583  70.5667038  42.8110847
  76.6361465  55.9576836  58.7485771  76.4736404  56.8656769  58.4928970
  77.4894104  55.7505722  58.3674164  27.7257099  40.5194588  26.7074604
  27.6675320  40.7628059  25.7835388  27.7580624  39.5628242  26.7016010
  79.1947098  13.8794098  41.2545929  78.3983536  14.0533695  41.7563820
  79.7262878  13.3309202  41.8314934  19.8565636   1.0236983  26.8950405
  19.6097889   1.9472395  26.9440918  19.0457993   0.5490780  27.0784206
  34.8804970  63.4710274  66.9665146  35.7524109  63.4205818  66.5747757
  34.6316452  62.5587997  67.1153412  78.0374298  19.9168358  38.4375076
  77.7126694  19.1012173  38.0560265  77.2477036  20.4222069  38.6302910
   5.2984228  34.6571846  66.1028290   4.6307564  35.2985077  65.8596039
   4.8331566  33.8207932  66.1172409  24.5781250  59.0828094  15.4109764
  25.2783203  58.4893379  15.1394091  24.0961895  58.5949326  16.0787697
  55.7133026  61.3712883  62.2070389  55.3670120  62.1928139  61.8585968
  56.5217056  61.2246704  61.7158966  86.2742233   8.0980654  46.8163605
  85.6593628   8.1202173  46.0830879  86.8020859   7.3144908  46.6627235
  85.2526779  60.5708008  25.3000126  84.6699753  61.0399170  24.7028351
  84.9086304  59.6777496  25.3180828  60.2543526  52.2649384  10.3660030
  60.7584724  51.4542694  10.4360819  59.7593002  52.3105965  11.1839685
  37.1120491   6.7785807  82.9916534  37.4992485   7.3697615  83.6372604
  37.6878204   6.8455396  82.2299194  19.4635162  46.2862854  44.4487724
  20.3334064  46.1551743  44.8260384  19.2164917  45.4252357  44.1114273
  50.5247650  10.1149025  12.3284998  50.5133705  10.7191992  11.5862551
  49.6064034   9.8788023  12.4592524  52.9520378  49.3319626  65.7949600
  51.9960899  49.3345985  65.7460861  53.1505699  48.8136292  66.5747986
  10.6461430  39.8393669  38.8708611  10.1668959  40.4918594  38.3601685
   9.9684944  39.3743134  39.3615227  75.5319901  34.0189171  18.4888477
  75.6978455  34.9616165  18.4955750  74.8762207  33.8862076  19.1733780
  79.6347351  67.9022369  25.0777531  80.4276505  67.8962708  25.6139297
  79.5921555  67.0223236  24.7033539   9.3830671   8.2971468  86.4037399
   9.6369886   9.1491385  86.7585144   9.2511177   8.4565430  85.4691696
  61.3063545  47.5499153  79.9997864  61.2568359  47.2989311  79.0774078
  60.4284859  47.8692818  80.2085724  63.1808281   5.9763460  66.2775116
  63.7438431   5.9548736  65.5037003  62.3919678   6.4341698  65.9871216
  37.2130547  52.5536270  42.4947357  37.6753769  52.4676476  43.3284607
  37.4852333  53.4068298  42.1568108  32.2012901  26.5384159  79.7065277
  32.7292633  26.7369347  80.4798813  31.4546623  27.1343536  79.7668304
   4.4697990  70.8317184  20.8060398   5.0384007  70.3757401  20.1855488
   3.5838063  70.6725311  20.4806061  12.6018057   5.4376326  78.3370972
  12.8459320   6.2861552  78.7067490  12.6910620   4.8240709  79.0663452
   0.6258082   7.5837173  77.3972855   0.1535311   6.8656745  77.8187103
   1.5472102   7.4099483  77.5897827  74.2602005  34.5886879  26.9532166
  73.4043961  34.5577507  26.5255756  74.5230484  33.6714630  27.0296631
  14.2742901   1.9436988  11.0416403  14.1013079   1.1443844  10.5442419
  13.7062302   1.8759012  11.8090668  39.7050858  68.2233887  68.8996429
  39.7798615  67.6571808  68.1314926  39.1791153  68.9649887  68.6002655
  79.4989624  21.5139275  71.8201904  80.0189896  20.7520351  71.5646133
  80.0393372  21.9663906  72.4678879  73.7542801  56.1713600  22.3370934
  73.6011963  55.8680344  23.2319622  74.5625305  56.6812172  22.3919888
  51.8875313  39.1176682  64.5030441  52.1021919  39.3975296  65.3928909
  52.7238503  38.8360977  64.1322098  28.0868492  54.4890518  49.7180252
  27.9884205  55.4038620  49.4540825  27.9263401  54.4934273  50.6616592
  49.9128609  51.3873711  15.1747007  49.6231728  50.7827721  14.4914942
  50.2419281  50.8205681  15.8723259  34.3446198  51.5961571  64.1576233
  33.6283531  52.1550217  63.8561859  35.1179047  51.9328613  63.7049751
  81.5579910   9.8035288  65.6167984  81.7626801   9.7199650  64.6854858
  82.3925323  10.0325642  66.0258408   2.6791339  20.2914696  41.3147659
   2.2202811  21.1297379  41.3694572   2.0554352  19.6539040  41.6622467
  32.4001122  58.6196365   4.6899238  33.3470802  58.7568855   4.6645780
  32.0970154  58.8798599   3.8200681  10.6945810  67.3440018  60.9977722
  11.1013947  66.4844513  60.8886719   9.7593040  67.1576385  61.0799675
  77.5186157  11.6643162  87.2259293  77.9068451  10.9731493  87.7624054
  78.0690384  12.4305840  87.3874893  35.7086029  70.5659866   8.9192305
  35.1363068  70.8482895   8.2057781  36.5709229  70.4765549   8.5134754
  83.6918030   2.9500806  20.1969299  84.1863937   3.4735107  20.8275089
  83.4737244   2.1474295  20.6706657  53.4172211   7.7588530  41.9328308
  54.1678238   7.1672282  41.8798409  52.7382164   7.3316736  41.4106216
  30.6115532  63.6941185   0.7432919  29.8494511  63.9452591   1.2651738
  30.4674072  64.1100769  -0.1066670   6.2430525  15.6510868  76.9196548
   5.9748259  14.9789686  77.5461884   7.1996756  15.6394339  76.9507828
  14.7663031  33.1048660  56.5771790  14.6393290  33.6387901  55.7929344
  14.1348820  32.3912773  56.4859200  65.9930954  55.2220917  58.8239861
  66.0252838  54.5072479  58.1882248  66.8474503  55.6472969  58.7497520
  74.0429535  21.4241524  61.5337524  73.7023926  20.9656105  60.7656479
  74.7395630  20.8559532  61.8625679  43.0807915  46.8568115  87.1301117
  43.6231308  47.0035706  87.9050674  42.3754463  46.2865372  87.4358902
  48.4735260  31.1543121  63.3971863  49.1278534  30.4572811  63.3499451
  48.0803413  31.0553627  64.2642746  42.8767471  39.8871460  80.2338104
  43.3147850  39.0497665  80.3859482  43.5885620  40.4995003  80.0478745
   3.0966694  11.9695559  36.9814949   3.7346370  11.7996225  37.6745682
   3.4763050  11.5642185  36.2018738  10.2772789  58.8404808  12.4363203
   9.5467720  59.2869987  12.0082855  10.2499304  59.1501389  13.3416357
   2.0467868  40.2932854  53.0877914   2.1415477  40.6212769  52.1935463
   2.8571193  40.5538750  53.5256119  76.6710205  39.4372597  70.0852509
  77.5450897  39.7527695  69.8556976  76.8300629  38.6690331  70.6336670
  34.7269287  62.2633896   4.5786042  34.0285110  62.3950958   3.9374323
  34.4219742  62.7206535   5.3622775  13.2863169  65.7969437  57.4651871
  13.2498760  64.9436188  57.8973198  14.1303711  66.1632156  57.7290993
  22.7880478  47.2343178  81.0396957  22.6660881  46.3837318  80.6179581
  23.4800072  47.0851631  81.6840363   8.0815039   3.5241134  43.9383354
   8.5562868   4.2685256  44.3080177   8.7526855   2.8551695  43.8032036
  31.3094883  47.6585426   0.2140525  31.9438820  48.0473900   0.8161936
  30.4570007  47.9143906   0.5662386  51.5545158  37.7300377  12.8242188
  51.7199707  38.6461067  13.0471001  52.0998497  37.2329369  13.4339180
  30.2137280  32.9333000  76.7245712  29.5981998  33.0013123  77.4544525
  30.4391212  33.8399162  76.5160599  28.5593357   9.7601976  51.8734741
  28.3726826  10.0890541  52.7528191  29.2540874   9.1143694  52.0017509
  86.4227982  42.0411415  82.0401535  86.8523636  41.2144356  81.8204727
  86.6612244  42.6321411  81.3259430  59.0797539  47.8972549  45.4540749
  59.4870720  47.5469246  46.2462807  59.5727119  48.6954918  45.2642174
  32.7558212  32.7181206  78.1841125  32.7009087  33.4014893  78.8521118
  32.3746147  33.1167297  77.4017944  66.2650299  40.0962830  50.6365852
  67.0186844  39.6341057  51.0035095  65.6659012  39.4005356  50.3660049
  77.7057037  26.3845863  85.7833939  78.3547821  26.7939091  85.2112198
  78.2236633  25.8814602  86.4117355  66.4944534  62.6027451  74.1737671
  67.2154770  62.3599129  74.7546158  66.1706543  61.7691231  73.8324890
   9.9303846  21.6322403  23.8151398  10.1619654  22.2561550  24.5031300
   9.6631298  22.1788254  23.0761871  69.4221649  56.2162247  24.1581535
  69.8226166  56.1205482  23.2940254  68.5511475  55.8309860  24.0624752
  57.1810913  26.2336521  67.9454956  57.2624741  27.1865406  67.9856796
  57.9843445  25.9426575  67.5138245  85.6503906  66.0047836  61.4176521
  86.0939178  66.8502579  61.3491669  84.7959824  66.2124786  61.7959251
  84.8799896  53.8917809  40.0858650  85.0911636  54.8045883  39.8898621
  84.7916641  53.8656349  41.0386200   5.4658108  28.0577679  15.0255680
   5.9270902  27.2405205  14.8369961   4.5463781  27.8021641  15.1000090
  78.0372467  56.8026886  62.1683731  78.3926620  56.0638657  62.6623878
  78.7957230  57.1797638  61.7225456   4.5067930  42.5813255  18.0893440
   4.7216907  42.0032959  17.3572674   5.0915084  43.3315086  17.9818249
   4.4889197  32.8635902  88.9323425   5.3287277  32.9157791  88.4760208
   4.5482869  32.0621567  89.4523544  33.4012756  43.1829147  50.3764801
  32.4810562  43.3298225  50.1577492  33.4028130  42.3600540  50.8654861
  76.9653473  20.9487076  28.9544582  76.1382828  21.0083733  28.4763012
  76.7113495  20.9776936  29.8768883  52.9058762  15.7382069  66.4033051
  52.5486717  16.3962307  66.9996643  53.5750847  15.2868385  66.9177475
  48.6203880  19.4049492  18.9119320  49.0962830  18.7060547  19.3605995
  49.1575775  19.6069908  18.1458817  75.1392822  31.4359779   5.8949599
  75.0447998  30.5448990   5.5583825  75.0651245  31.9936428   5.1205297
  70.3526840  51.0643654  12.2096605  70.3757935  50.1817856  11.8398657
  70.6398315  50.9519691  13.1158295   8.0201960  19.2307320  85.7466583
   8.8828354  19.6360760  85.8348694   8.1669836  18.4771538  85.1749954
  60.9700737  69.1800613  51.9155655  60.8653221  68.3684006  52.4120216
  61.5627594  68.9486160  51.2004471  32.6004982  42.4384346  80.0756073
  33.0957527  42.8693085  80.7722473  31.8171558  42.1024780  80.5111923
   0.3558754  14.6331367  16.9864216   1.0437821  15.2985792  17.0006618
  -0.4093090  15.0716677  17.3584633   4.9270911  67.9756699  74.7260208
   4.9501748  67.0288086  74.5876389   5.8445902  68.2457733  74.6876450
  19.3751163  51.3461876  52.9344215  20.2838840  51.4949188  53.1956673
  19.0202427  50.7756157  53.6161385  56.0418549  13.6451817  46.9899025
  55.3977318  13.0419521  46.6191559  55.6252937  14.5050974  46.9328575
  58.9777794   4.3102016   4.8841181  59.3851547   3.6065671   5.3892665
  59.7123108   4.7670364   4.4742446  68.0730362  48.1417732  44.3879013
  67.7940521  47.2403526  44.2271576  68.5169067  48.1076202  45.2352753
  53.9647369  65.9301300   4.0221696  54.8625984  66.1826706   4.2373462
  54.0031281  65.6700363   3.1017854  42.3280678  50.3852463  50.6849480
  43.1815720  49.9519691  50.6789932  42.2240944  50.7218018  49.7949181
  52.1040230  18.5337238  18.4295654  52.1112823  19.3794632  18.8777905
  52.0101700  18.7545509  17.5029278  82.4616318  30.3472195   5.7266521
  82.6069870  30.3541412   6.6727262  82.7483215  31.2123032   5.4339499
   6.5149436  35.9190331  18.5505009   6.0166054  35.1487617  18.2774220
   5.8603673  36.5059624  18.9290180  45.9507904  20.1564465  69.0028076
  46.6725807  20.3041401  69.6138992  46.2813835  20.4706230  68.1612396
  80.8032608  48.6470528  59.1462059  80.4766083  48.0248985  58.4962463
  80.9671326  49.4486046  58.6493187  77.0012665   0.6438082  56.2936211
  77.6854782   0.1288919  56.7213516  76.5949631   0.0359668  55.6758232
  38.1046524   7.4913092  60.8176003  38.2626572   8.3724661  60.4787369
  38.2026100   6.9204860  60.0555000  80.0306396  36.3688736  50.5882301
  80.9208679  36.4688950  50.9254532  80.0280151  36.8633423  49.7686424
  57.4882584  57.9199715  26.5919762  57.6662941  57.6173820  25.7014866
  58.3538208  58.0229988  26.9874744  21.6714916   1.2038260  38.3245735
  21.2792091   0.6537782  39.0026512  22.6116238   1.0388898  38.3965607
  10.3495798  62.0494118  59.4310493   9.5462980  61.6539650  59.0925369
  10.3503027  62.9361839  59.0706749  74.9197235  33.2828445   2.0154781
  75.6247253  33.6196098   2.5684602  74.8674164  32.3524361   2.2341914
  73.7620773  24.1110287  14.9418564  73.1142426  23.7707386  14.3248138
  74.5683670  24.1774235  14.4302635   0.8844364   6.6458721  42.0523605
   0.4643383   5.8258734  42.3118820   1.8119420   6.5120173  42.2474174
  22.2989502  57.8669167  71.3165741  21.7189732  57.2451706  71.7562256
  22.5778942  57.4130936  70.5213013  25.7708054  17.3136234  47.0421600
  24.9309731  17.1978531  47.4865799  25.9681892  16.4520226  46.6748505
   3.2955852  33.9724770   3.9001563   2.8762364  33.1309624   3.7206113
   3.0125186  34.5390968   3.1824887  61.4827042   8.5025167   4.2116699
  60.8339653   8.5701885   4.9122319  62.0415878   7.7705574   4.4726634
  56.2431068  10.3699760   9.6432724  55.7223358  10.7400055  10.3560896
  55.6843987  10.4527998   8.8704720  75.2566757  27.3370838  72.5389175
  75.8774033  27.4271164  73.2619781  74.9177780  26.4459133  72.6237488
  16.1366234  69.5620422  67.0354080  16.9866734  69.9842377  66.9113007
  15.6780224  69.6986847  66.2064056  48.0646248   9.2192450   4.6507134
  48.7760429   9.1474276   4.0143490  48.4916954   9.1115837   5.5005679
  79.5236359  68.4734955  15.8766651  78.6591873  68.1242218  15.6599360
  79.5047684  69.3753281  15.5563755  11.8693638  22.9148483  21.0013638
  11.0369835  23.3700905  21.1283665  12.1271296  23.1324596  20.1055775
  48.6864853  67.8854752  78.4135590  49.5503693  68.1023636  78.7641220
  48.1064682  68.5562820  78.7738876  82.2297516  31.2836933  52.2633781
  82.5889664  31.6193504  51.4420815  81.3638840  30.9506016  52.0276756
  20.0774269   2.0729146  69.0036697  20.7803020   1.4350083  68.8800888
  19.9264965   2.4351511  68.1306076  70.8990326  35.2950630  23.2236881
  70.6077576  36.1251678  22.8464451  70.2480164  34.6573677  22.9308605
  14.4643097  46.1688576  38.7472382  14.8531532  45.4097710  39.1817703
  14.7769651  46.1140976  37.8441963  29.7563400  29.5575676   5.3966146
  30.4139252  28.8941727   5.1875153  29.9764633  29.8417263   6.2837620
  72.9011536  29.6429558  33.5068016  72.9650879  29.2636127  34.3832970
  73.7990875  29.6328754  33.1753731  84.7540054   4.7599583  51.1206360
  84.1103058   4.0539274  51.0622597  84.6146851   5.2772803  50.3274155
  62.9530373  58.7907600  32.5422516  63.6004295  58.1135063  32.7383118
  62.4921036  58.9282379  33.3698235  18.5755920  18.1559277  82.0860901
  17.8083057  17.9700775  81.5448303  18.2319622  18.6599655  82.8237228
  83.1356583  14.6987562  16.6275997  83.6006393  14.9927530  15.8442831
  82.2582932  14.4764843  16.3160439   5.5030103  58.1854973  29.5018616
   4.8573389  58.8033142  29.1588688   5.1079922  57.8478699  30.3057289
  65.1243668   9.6209269  71.7184143  64.7511063   8.7693167  71.4911041
  64.7392731   9.8318911  72.5689621  73.3077393  17.0587444  43.6547279
  73.6067810  17.9185944  43.9504662  72.7752762  17.2434063  42.8810272
  44.0399742  63.8019218  34.0021935  43.9368057  62.8547783  34.0944176
  44.0637245  63.9493256  33.0567093   0.6838587  62.4519920  44.0742378
   0.2049272  63.2751083  44.1708527   1.5467643  62.7132835  43.7527504
   3.8719535  16.9526329  31.1416569   4.3052049  16.2432041  30.6670685
   2.9808924  16.6345406  31.2867756  50.0473633  48.9764290  10.0313206
  50.2259941  49.9117088  10.1291924  50.4842834  48.5695610  10.7795105
  48.4287453  12.2011719  33.6241379  48.4460258  13.1541471  33.7122917
  47.7504120  12.0334120  32.9699593  68.5155182  23.9158058  15.7777243
  67.7696075  23.3213139  15.6975508  68.5949097  24.0749989  16.7182484
  28.6140652  51.7033272  44.8694878  28.9227352  51.8044968  43.9690895
  29.3328934  51.2608032  45.3208122  11.8655243  28.9924984  79.5054932
  12.5382471  28.5711422  80.0404053  11.5881777  28.3132915  78.8906860
  80.9430161  42.6987610   2.4050965  81.5510941  42.5591774   1.6791565
  80.1249390  42.9637947   1.9846926  46.8085251  46.9102173  24.5305634
  46.6178741  47.8400002  24.4065361  47.7306709  46.8206406  24.2900352
   5.2492156  17.4370251  69.6521225   4.4545460  17.9217148  69.4289474
   5.5426793  17.8247910  70.4765930  43.7747002  48.3271599  73.5840225
  42.9966736  48.1077957  74.0966492  43.8187752  47.6465302  72.9124374
   2.7698267  58.2671280  44.4632149   3.2147765  57.6216850  45.0124474
   2.1316047  58.6783714  45.0461235  75.9357071  16.6001263  11.0806580
  76.6450577  16.6651249  10.4412584  75.2430420  17.1584740  10.7275352
  40.0865936  45.9437447  63.3285446  40.6120415  46.1261368  62.5495262
  40.3320541  46.6299858  63.9490738   9.0184393  53.0636063  26.5595360
   9.6137962  52.7830467  25.8645039   8.1879435  52.6359825  26.3506145
  41.5476456  56.1348534  45.5807152  42.4009285  56.5172043  45.7855263
  41.0043869  56.8819771  45.3298988  51.9456749  49.5874176  81.7598190
  51.8874283  48.8037148  82.3063049  51.0460167  49.7484741  81.4753799
  83.7092361   4.0655899  30.7330914  83.7391205   4.8716803  31.2484131
  83.9988098   4.3288822  29.8595600  11.6344624   4.9573474   3.9715323
  11.6662712   4.0165572   4.1451216  11.8075142   5.0337543   3.0332110
  82.3365402  56.6258621  32.0373459  82.5444260  57.4681625  31.6329384
  82.1388321  56.8402061  32.9490471  38.7272873  37.3032379  73.1409988
  39.3933105  37.9832191  73.2423401  38.5426750  37.0137444  74.0345001
  55.6321411  49.8026848  36.4584465  55.1443634  50.2401657  35.7606506
  56.0186615  49.0356712  36.0359306  24.4072781  15.3493509  17.2509804
  24.7065048  14.9502983  16.4340038  25.1797638  15.3459158  17.8162117
  25.7431469  52.5485191  45.6869354  25.9014664  52.8579102  46.5788116
  26.6174812  52.4129753  45.3216972   4.8622117  13.7180862   2.5311489
   4.4088860  13.9214764   3.3492932   5.0156417  14.5706787   2.1239896
  63.9096718   7.0647578  12.9828186  63.9263954   6.3646903  13.6353960
  64.8181686   7.3607512  12.9257574  59.1109848   0.4838704  74.4880371
  59.5803032   0.9279282  75.1942825  58.9012985   1.1798036  73.8651886
  27.2477341  14.0115499  76.6774216  27.0879059  14.9326630  76.8829422
  26.6794395  13.5299311  77.2785187  43.7867851  22.4747677  11.5032206
  42.8702660  22.2950859  11.7128344  44.1647758  22.7833252  12.3267174
  83.6809082  55.7923737  23.4355240  83.3767242  55.6853714  24.3367767
  83.5075684  56.7114296  23.2317562   3.4685853  66.8528595  67.6125565
   3.1779926  65.9464874  67.7139511   4.2451000  66.9190140  68.1683273
  33.6929207  34.3529205  12.5240393  34.3089600  33.8658867  13.0713301
  33.3944435  35.0719376  13.0809565  13.2807026  25.1510582  22.3019314
  13.3616848  24.3201485  21.8336735  14.1837997  25.4217529  22.4673767
  20.4853592  48.8446007  25.0929184  21.0393982  49.5738831  25.3711586
  20.4804707  48.8985596  24.1372547   8.0391073  67.2768631  61.9795532
   7.1511240  66.9266052  61.9085732   7.9529247  68.1989517  61.7375603
  13.2882662  61.9816360  25.8678551  14.1304445  61.5330276  25.9434719
  12.6435699  61.3280754  26.1388836  61.2374916   9.2355576  80.2421951
  61.7591019   8.4335871  80.2738190  60.6625900   9.1176929  79.4860001
  81.6681213  23.9421329  11.5519934  82.3852844  24.5541496  11.3866072
  81.8501587  23.5896339  12.4231081  21.7518921  36.2802505  34.2423668
  22.4864521  36.2022743  33.6336212  22.0835934  35.9210014  35.0652542
  22.3478737   5.0333624  40.8885307  23.1501064   5.3647704  41.2920456
  22.6118221   4.7794175  40.0041809  60.5685730  21.5181065  71.2265472
  60.8156853  20.7129517  71.6814041  61.0876694  21.5078773  70.4223938
  17.8019180  37.8777771  79.7241669  17.7550697  38.8160934  79.9074631
  16.8888531  37.5908966  79.7086105  22.2782097  50.3552933  29.7992458
  22.9867458  49.7936974  29.4848900  22.7168350  51.0188637  30.3317070
   8.4152679  40.9080544  12.8776760   7.7395053  40.2692833  13.1047258
   8.1132412  41.7264977  13.2715845   1.9334670  16.9179192  16.3893871
   1.8773122  16.4697475  15.5454559   2.5069132  17.6665668  16.2253151
  54.0279465   4.2305608  47.7636757  53.9364777   4.9969878  48.3297653
  53.8982811   3.4839859  48.3485222  49.4820290  50.2598763  81.1656342
  49.0038223  49.7972984  81.8538055  48.8076324  50.5177956  80.5372238
  25.8610249  42.1432648  62.8101425  25.2728329  41.9535065  63.5410690
  26.4742336  41.4083595  62.7991524  55.4879303  24.3369350  14.9724121
  54.8466568  24.8184109  14.4497423  56.3072281  24.4228401  14.4849682
  59.0315208  67.3386765  82.3107376  59.3648224  66.5027084  82.6367798
  58.4880676  67.6742935  83.0236588  86.0986404  57.9101143  67.1871719
  86.6200714  58.6628571  66.9083939  85.8457870  57.4784737  66.3710938
  49.5292091  56.8279037  44.9451485  49.3817329  55.9738731  44.5388031
  50.4811630  56.9275513  44.9544182  31.5908527  27.3231354   4.9210391
  31.4865799  26.7357330   4.1724944  31.8999767  26.7571564   5.6283889
  51.0713158  30.7502518  88.1105728  51.4823914  30.4072380  87.3171005
  50.1362724  30.7695885  87.9067230   5.8057785  25.1843376  61.6670570
   5.1237135  25.4476738  62.2848549   5.5412955  24.3116798  61.3759384
  29.5826244  10.7792063  64.6389694  28.6993084  10.5588150  64.3433075
  29.6743107  10.3269510  65.4775925  48.5151749  61.7909241  74.6301880
  47.9027824  62.1142311  73.9693756  49.3708916  61.8295135  74.2030029
  47.1100845   1.4823186  40.9516602  46.2612495   1.0911571  40.7450218
  47.4515419   1.7739999  40.1063423  50.0393600   6.0782132  36.8983459
  49.5856628   6.3028336  37.7107124  49.6447258   6.6480174  36.2381821
  44.7524071  62.3961906   6.2491660  45.3678246  61.6891403   6.4430122
  45.2691994  63.0360031   5.7594752  74.8579254  39.3821869  47.9647484
  75.5876770  39.0923080  48.5121613  74.6420135  40.2540970  48.2954903
  81.8453140  64.4169388  51.5483475  82.2956314  64.7169724  52.3379211
  81.7984467  65.1929016  50.9898529  37.5146255  52.9190063  46.2057343
  37.5347748  52.6988869  47.1370621  38.3602753  52.6208115  45.8707962
  59.1721764  15.0826902  44.1200829  58.8853455  14.1786137  43.9912224
  58.3782768  15.6046934  44.0040436  37.8502579  26.3201389  65.9333725
  37.2482338  26.6248894  66.6122894  37.3041992  25.7975388  65.3460541
  32.2375679  65.1425400  19.4385681  32.8213768  64.8510208  20.1388645
  31.4026108  64.7151184  19.6293335   9.7995844  11.1435146  87.7396317
  10.0161695  11.9201021  87.2236481   8.9421854  11.3386812  88.1177902
  47.2644882  31.2942181  86.4443893  47.4773560  30.7960129  85.6552734
  47.2226562  30.6366940  87.1387558  60.9238014   8.3525648  44.9898949
  61.8353424   8.4483080  45.2658691  60.7635918   7.4092183  45.0156136
  78.8097305  68.6016541  64.0772705  79.1832504  69.4538422  64.3019562
  79.4260864  67.9663925  64.4416733  23.4554234  68.4152527  39.3654404
  22.8188343  67.7107925  39.4867630  23.3098545  68.7178726  38.4690781
  64.5307999  51.7306595  19.7888184  65.2407074  51.5872154  19.1629715
  64.2939987  50.8527107  20.0877590  73.1954880  56.8233566  26.0141964
  73.3442383  55.9386444  25.6804390  73.2336960  57.3818321  25.2377453
  20.7852039  48.8959312  22.3802395  21.0857925  48.8278885  21.4740124
  20.2633991  48.1056366  22.5194817  65.2766190  31.9057083  62.9376678
  65.5263519  31.0690441  63.3299141  65.2041702  32.5059929  63.6797218
   7.1911430   1.6209869  80.5407867   6.8870883   1.8991481  79.6768341
   8.0906134   1.9440857  80.5936203   8.8121977  27.6668224  63.5233955
   8.3171463  27.6079273  62.7062721   8.8072186  28.5992298  63.7397766
  10.9764729  25.7442379  16.5734959  11.3134642  25.4401093  15.7307777
  10.1970034  26.2529812  16.3502445  63.0564613  37.4121628  53.9447632
  62.2481613  37.5063667  53.4407692  63.2421188  36.4733200  53.9264221
  17.7168331   2.5969226  23.9120827  18.1925125   2.8578351  23.1234856
  18.0509014   1.7232190  24.1152401  84.7612610  45.2482414  54.9336929
  85.3212433  44.5209808  55.2052574  85.2987595  45.7478600  54.3191147
  16.9953594  21.9838886  10.2549791  17.0065117  22.5209942  11.0472069
  16.1009083  21.6464214  10.2069750  81.1259232  27.3633423  32.5972481
  80.9671249  28.3070812  32.5779572  80.5531998  27.0382462  33.2918892
  68.0872116  38.9362259  30.5186863  68.4784622  39.1187515  29.6643772
  67.9016724  39.8001747  30.8866558   6.3504925  58.6382179  72.1208878
   6.0160041  58.3150253  71.2842941   6.5779362  57.8472137  72.6095734
  10.9127226  44.7752609  20.4053326  11.3772230  44.2695847  19.7384281
  10.2002764  44.2017593  20.6877327  51.3439445  71.2914886  74.7740936
  51.2968521  70.8481598  75.6211319  51.1754990  70.6011581  74.1327591
  67.2014999  64.6926575  46.1702385  67.1240158  65.5789490  45.8170929
  67.9222260  64.3005600  45.6772423  71.4760666  39.6364098  49.6411667
  71.6254959  38.7760544  50.0331993  70.5310516  39.6712151  49.4929504
  58.3949966  54.9366646  30.5197544  58.3973007  54.1790733  31.1048031
  59.2221375  55.3825798  30.7020531   1.6371740  67.0879593  43.3673859
   1.6698027  66.6871338  44.2360115   0.8148471  66.7754211  42.9901199
  58.9920158  44.9451065  24.7556839  59.1600685  45.0804253  25.6882496
  58.0920830  44.6210556  24.7190399  43.0879784  32.0184326  37.9597321
  43.9948883  32.3108673  38.0504417  42.9332504  32.0072937  37.0151863
  50.3304558  40.8817749  25.7329254  50.2321281  41.7995338  25.4793777
  49.7007751  40.7608566  26.4436417  58.7420235  51.0955963  81.6575470
  59.5913620  51.2369385  81.2393646  58.5958214  50.1520462  81.5899277
  24.6742458  47.1107826   7.1363211  24.7444630  46.9890251   8.0831451
  24.8891411  46.2537956   6.7680449  59.7122803  41.8803406  50.5032425
  59.0873337  41.1868973  50.2915573  60.5090981  41.4150963  50.7579231
  51.8270264  59.0334435  73.6561966  51.6034241  59.6883545  74.3174973
  51.0226135  58.5283546  73.5377274  82.5539246  39.9876137  35.6125526
  83.0988007  40.7228394  35.3318596  81.6604538  40.3304787  35.5930061
  65.3398056  32.1811142   4.7220564  66.1399002  32.5965385   5.0437684
  65.6059036  31.7426071   3.9138880  10.4451036  60.6498375  62.0518799
  10.7153435  61.4158478  61.5454941  10.6257629  60.8879433  62.9612198
  74.6156540  54.4036827  69.6526871  75.5454559  54.4288635  69.8786621
  74.6023026  54.3784294  68.6959152  80.0955200  13.0051517  10.9099836
  80.8567963  13.4000864  10.4848804  80.3731384  12.8637199  11.8150558
   8.7244244  33.8005028  70.2045212   9.6226025  33.5921860  70.4616394
   8.8195553  34.4401436  69.4987946  76.9742966  61.7894897  73.5374527
  76.9881821  61.0381470  74.1303558  76.1667480  62.2536926  73.7579422
  61.4358597  28.0496578   5.0782657  62.1105042  27.8555641   5.7289691
  60.6163750  27.7864246   5.4970560  57.8975334  25.9597530  45.2759705
  57.9285126  25.8182850  46.2221527  58.5085831  25.3160954  44.9174271
  21.6275826  21.9668331  62.3657494  21.4423943  22.0133514  61.4277878
  22.2775974  22.6532536  62.5158806  32.0394707  14.4615259  76.2976456
  32.1161423  15.3893480  76.0751648  32.6095543  14.3497391  77.0583954
   4.3376102  36.6187820  81.9907455   4.2624493  35.6868591  81.7855606
   4.2831407  37.0562515  81.1411057   1.9271225  61.2403717  22.1227493
   2.5758567  60.9786949  21.4693718   2.0211170  60.5965500  22.8248119
  16.4425220  29.7150593  88.3489227  15.5356197  29.6599560  88.0477219
  16.3732643  29.8472023  89.2944260  31.1768456  28.7603054  77.6360626
  30.6031342  29.3705540  77.1727219  30.5961037  28.2968426  78.2395325
  57.4008713  42.1825981  52.8538857  56.6165276  41.8214417  52.4408493
  57.4148674  43.0997887  52.5803909   1.6908615  26.6013775  83.9067764
   0.9948388  26.4318123  84.5416260   2.1935813  27.3207188  84.2889481
  81.3661270  47.6850166  84.3504944  81.2456665  47.6417732  85.2990952
  81.3867798  48.6216316  84.1541290  62.7550926   0.4810946  37.9746742
  63.3422813   0.2300619  37.2616348  62.5458221   1.3988074  37.8007736
  15.9016047  68.5782394  24.2727890  16.1692123  69.2439117  23.6391506
  14.9486275  68.6573792  24.3152714   3.1513338  43.3138351  15.0461330
   2.7423108  43.8558884  14.3715153   3.3152330  43.9169044  15.7711658
  17.4459572  17.1162624  71.7794342  17.1445999  17.5294609  70.9703064
  17.7945194  16.2695255  71.5005493  19.9712029   9.7973423  18.4283600
  19.2991753   9.1631622  18.6782150  20.2525368  10.1868849  19.2562122
  81.6518784  63.4858322  30.7852459  81.2215576  64.3378448  30.7136211
  81.2601166  62.9602470  30.0877399  69.4863052  34.9371719   3.2411036
  69.8713837  35.7754517   3.4965103  69.5725021  34.9144592   2.2880626
  85.8218842  40.1400566  74.6787033  85.2040405  39.4762421  74.3723450
  85.2689743  40.8608551  74.9803085  73.2815628  59.1495247  69.3138275
  73.8109283  59.7191353  69.8719940  73.9124908  58.5477371  68.9188385
  74.3803558  46.2494125  60.0347824  74.3363113  47.1624222  59.7507057
  75.0441818  45.8544464  59.4694786   6.6610417  11.9966755   0.7730960
   5.8688278  12.4190359   1.1051201   7.2882724  12.0644474   1.4929712
  82.8415909  61.4889946  32.2239571  82.8181458  62.3256035  31.7594509
  82.0118713  61.4560623  32.7000961  70.4810791  50.7546349  63.6633797
  70.4816971  50.6193428  64.6109695  69.5547562  50.7558632  63.4222221
  28.9082661  67.9226685   4.0435772  29.1707058  67.0802994   3.6723955
  28.8772354  68.5158920   3.2930095  13.4092178  50.4924507  41.3559761
  13.9586334  50.2484016  40.6111145  12.6326399  49.9391441  41.2722397
  49.0005417  30.2693462   3.0713251  49.3219070  30.9942532   3.6074824
  49.0781021  29.5007000   3.6364803   8.0994883  43.4993172  85.6285172
   8.5663176  44.0820236  85.0295563   8.2204008  42.6259651  85.2558670
  73.3400955  23.5635700  11.0730152  72.5243454  23.9997025  10.8268938
  73.9759445  23.8596344  10.4216566   5.1608753  31.9985638  55.1858978
   5.2979064  32.3823204  56.0520287   4.6818018  32.6696129  54.6996765
  60.0710602  34.3607674  14.3486910  59.5020142  34.6226349  15.0724592
  60.4394913  33.5216942  14.6251888  78.1280975  69.2918930  66.8583221
  77.4568024  69.9012527  66.5512848  78.8426132  69.3853302  66.2282562
  76.8728104  41.2672653  13.2829666  77.5877914  40.9097176  13.8094606
  76.0892639  41.1227570  13.8134384  74.8391037  43.9342842  89.0026245
  74.4539261  43.2195053  89.5095367  74.4967194  43.8116074  88.1172104
  80.0796738   9.5573587   1.6538799  80.3570175   8.7203093   2.0262485
  80.0164566   9.3918447   0.7132202  46.2284584   8.6232061  18.5178604
  45.6846123   9.1024418  17.8927231  47.1112022   8.6671734  18.1503525
  65.9301300  27.2857513  30.4654903  66.4708176  26.7476234  31.0436802
  65.5281296  27.9318161  31.0462017  79.6842575  51.2713318   9.5522337
  80.4772873  51.6170044   9.1425486  78.9671631  51.7045021   9.0892344
  80.3642883  50.9560661  52.7495384  79.5096130  50.5495110  52.6064529
  80.5480499  50.8072243  53.6770668  31.2352619  68.5827789  59.1176567
  31.8478851  68.0105209  59.5796585  30.6231041  68.8737335  59.7935524
  57.1583939  28.1102180  88.4684677  57.7133942  27.8741474  87.7251816
  56.9608192  27.2760429  88.8943176  44.9097672  40.5085373  72.4019699
  44.3333206  40.1386566  71.7332916  45.7827072  40.4752846  72.0106888
  82.9221802  23.1665726  87.5886688  82.6614761  22.4354782  87.0285187
  82.4017944  23.0560455  88.3844147  32.6934662  49.8630066  80.3076706
  32.5094948  49.9615555  79.3734970  32.8617554  50.7541313  80.6139526
  66.9489136  41.2883072  76.1627884  66.4870758  40.9082718  76.9101257
  67.3246765  42.1009178  76.5014572  44.8995667  43.0155640  37.4481087
  45.1625290  42.2089577  37.0048637  44.0383148  43.2193756  37.0834999
  24.6288376  16.7264881  57.2771072  25.5860119  16.7196865  57.2788658
  24.3958855  17.6547451  57.2945938  66.9495239  22.2153702  61.7484894
  66.1024704  22.1741562  61.3045959  66.8663330  21.6041985  62.4804611
   0.2745547  27.0201893   8.6278973   0.0001646  26.9210377   7.7162447
   0.0352991  26.1908245   9.0415897  20.6607418  24.3495865  86.9590454
  20.5408440  24.8630657  87.7579193  20.4296074  23.4557819  87.2118759
   0.7999861  51.3549881  25.9604797   0.9807308  50.7420502  25.2478294
  -0.1217272  51.2093315  26.1736927  34.0686836   1.1359876  52.6420059
  33.9055214   1.0642875  51.7015457  34.6627121   0.4114435  52.8379631
  80.0145721  19.5180759  75.1744232  79.0712051  19.6035671  75.0366516
  80.3849869  20.3161182  74.7973785  38.6081886   5.7915287  15.4547968
  39.3148651   6.2524667  15.9068718  37.8879280   5.7801843  16.0851364
  81.6456299  49.1273956  20.4793453  82.0530548  49.2109222  21.3414707
  82.1590118  48.4518661  20.0362530  67.4770660  51.5323448  83.4588623
  67.9033585  52.3051224  83.8294296  66.9900360  51.1534424  84.1906204
  35.1403275  52.6993828  53.4371223  35.0184250  53.5707054  53.8141708
  35.2742996  52.1278419  54.1931839  41.7650948   6.8898320  63.6510468
  41.1417618   6.2553902  63.2972565  42.1696701   6.4400492  64.3928375
  26.8215199  65.5733032  86.0397263  26.1776161  66.1382904  86.4668121
  26.7539768  64.7392349  86.5044785  22.1761627  47.8859482  20.0561562
  22.2705441  47.5440826  19.1670837  22.5145397  47.1887817  20.6180191
  29.7339840   7.3104739   9.4721270  29.8925953   7.6461315  10.3544016
  29.2624474   8.0156736   9.0287552  60.7644577  25.4766407   3.6919150
  61.0312119  25.2260208   4.5763717  60.5540199  26.4079323   3.7600646
  28.6309280  42.1532516  69.9646912  28.3161926  42.2446060  70.8640366
  27.8407440  41.9895248  69.4498749  18.0869350  30.0529556  68.0468597
  18.0694695  30.2456436  68.9842987  17.2569180  30.3964520  67.7162323
  49.6161346   2.8522315  26.4899540  49.0629349   3.1284592  25.7592697
  50.1397972   2.1335990  26.1355820  79.0521622  68.0954590  28.5099201
  78.1635971  67.7552185  28.6144543  79.2077026  68.6070023  29.3038731
  36.5445747  24.4925385  74.6381226  37.0829773  23.7716217  74.9646606
  36.2966957  24.9809914  75.4231110  20.3803558   1.6219628  30.4646626
  19.6909180   2.2341402  30.7218552  20.4870796   1.7628847  29.5239277
  58.1863747   6.0486183  40.4954567  58.8276367   6.0353742  41.2059746
  58.6976433   6.2637858  39.7153664  25.0758400  46.0615425   9.5451918
  25.3904171  46.3581200  10.3991909  24.5501614  45.2856483   9.7398272
  20.5100460   9.1496048  85.5514603  19.7787342   8.6176271  85.8651810
  20.7821808   8.7262917  84.7372284  62.9430733  42.6326981  50.1445351
  62.4974861  42.2985229  49.3660660  63.0628204  43.5661621  49.9697800
  10.2472973  67.6165314   9.2474957  10.3021860  68.5346832   9.5124722
   9.3231277  67.4827957   9.0371189   5.4425893  61.7246017  33.0838394
   5.7395539  60.8696136  32.7723351   5.0194054  61.5402489  33.9223862
  75.0416031  64.4719162  61.1736374  75.8733597  64.0489197  61.3869247
  74.3855362  63.9651527  61.6521683  71.5796432  27.6858463  75.1029587
  71.1479187  26.8488903  74.9316406  72.1961441  27.4969521  75.8104019
  29.7823811  23.4132957   2.7465823  29.3664589  23.6192722   1.9094355
  29.8749714  22.4606075   2.7400334  62.6064148  51.9809647  46.1729012
  62.5763931  51.1492081  45.7001343  62.3036423  52.6290512  45.5368652
  55.6620140  64.5259247  61.5644722  55.6446724  65.0299454  60.7509041
  56.5923157  64.4378204  61.7718544  14.6162281  19.4885540  16.6002560
  14.6982155  19.6649837  15.6630354  14.8328981  18.5604420  16.6891136
  13.9620733  62.2551842  22.5810833  14.3891983  62.9831619  22.1295910
  13.9707546  62.5077553  23.5043182  53.4462280  38.5934906  49.4621353
  54.1845512  38.6012611  50.0712738  53.8341103  38.3606453  48.6185951
   2.2692976  61.9272270  59.3922882   2.0289576  61.8873215  58.4666100
   2.9075503  61.2227783  59.5046082  38.0541115  46.6565742  45.1287231
  37.4238815  46.6637878  45.8491364  37.7063828  46.0116806  44.5127449
  48.3245811  20.4825745   6.1535373  48.0157280  19.9687195   6.8997235
  49.1525497  20.0711575   5.9056783  59.6258774  27.3664875  29.6166725
  59.5090561  28.2995224  29.4377022  60.4096375  27.3239899  30.1645279
  52.7382774  26.0062733  15.9572773  52.0862579  25.3591232  16.2261562
  52.3328171  26.4627609  15.2200851  37.0685501  65.3082275  40.5085983
  37.9115028  65.3367233  40.0559959  36.4260483  65.5217133  39.8319511
  64.8201141  44.6070709  64.5990677  64.9797516  45.1300392  63.8134155
  65.5632401  44.8004227  65.1705704  86.8237839  56.9053650  61.3288651
  86.7681656  56.6378632  60.4114876  86.4850464  56.1555138  61.8179626
  12.5778399  41.5983009  31.4751244  13.3487492  41.1113777  31.7663918
  12.6472178  41.6079369  30.5204906  82.9177399  50.5378571  30.7582226
  82.6488190  50.4078560  29.8488216  82.2949829  51.1778069  31.1029987
  73.5650711   2.5937469  63.2820854  74.1816025   2.0778859  62.7624626
  72.9695511   2.9758160  62.6374016  49.5033836  57.8635559  72.8921204
  49.2201729  58.7146530  72.5579758  49.3406868  57.2565727  72.1700821
  50.1886177  70.5902176  83.5737686  50.2785187  71.0757828  82.7537842
  51.0766144  70.2958984  83.7764282  59.5117378  29.8942394  78.3894577
  59.7636757  30.7400093  78.0187454  60.3344803  29.4107265  78.4639053
  37.1186104  51.5529289  80.3113022  36.7299881  52.3568077  79.9663620
  37.6515923  51.8430328  81.0515671  80.9212418  38.8632317  21.3717384
  80.9875641  37.9288025  21.1750603  81.2105789  39.2979622  20.5695362
  11.9174824  61.5030022  76.3317108  11.8704882  61.7602997  75.4109344
  12.5851307  62.0771103  76.7070465  46.2832146  52.3146782  12.3295908
  46.2077293  52.8969803  13.0855408  46.5538101  52.8875389  11.6120672
  49.3261337  16.9355221  52.7461433  48.6497154  16.5554161  52.1856003
  49.1005211  16.6396027  53.6280518  78.4788361   5.4443874  52.1357956
  78.8670349   4.6301641  52.4560699  78.8481979   6.1238961  52.6997757
  47.2124290  45.8050690  50.3654633  46.4770317  45.3754196  50.8022995
  47.9482269  45.6907959  50.9669380  86.3675690  38.9979591  41.5545654
  86.3768463  39.9506340  41.4620819  87.2582855  38.7748871  41.8249359
  48.8949089  61.1870117  64.0823135  48.1364899  60.6031113  64.0920258
  49.6020050  60.6551361  63.7171440  15.9897175   5.8326087  75.6595840
  16.7091045   6.4625731  75.6164932  15.2524061   6.3344288  76.0071182
  67.1229019  55.9570808  33.2878456  67.8367157  56.3461723  32.7825661
  67.5039825  55.1674232  33.6718483  49.5009842  71.4380188  47.5239487
  49.1178932  71.1816635  46.6850471  50.3223839  71.8702469  47.2900467
  55.3320580  14.6408148  77.0893707  55.0056419  14.3156815  77.9284058
  54.6579437  15.2510414  76.7903366  36.5591583  47.5641747  16.6959267
  36.5568733  48.5066032  16.8634243  36.5113487  47.4901962  15.7427883
   0.2063824  11.1260700  82.7604523   0.6606461  10.3056068  82.5688324
  -0.3558540  11.2718945  81.9996262  71.9821243  51.4110489  76.9931335
  72.8549194  51.4917526  76.6084976  71.3888245  51.7169266  76.3070755
  80.0690765  57.5059319  66.1834717  80.4604492  57.3013763  65.3342285
  79.3181152  58.0611420  65.9736252   1.5547727  64.3543015  40.9789009
   1.8610018  63.4628410  40.8123131   2.2865965  64.9121323  40.7152824
   8.2334995  13.5775070  60.5776062   7.3835616  13.6121187  61.0165138
   8.4604836  14.4943790  60.4225082  17.6595249  34.9683914  21.8547516
  18.4725056  35.3169670  21.4889755  16.9693260  35.4881630  21.4428082
   6.3939209   5.3237863  83.3956909   6.3572154   5.2269335  84.3472748
   5.8640585   6.0998116  83.2133102  39.6775398  60.5025368   1.8043557
  40.0111465  61.3906097   1.9318918  38.7584229  60.6238556   1.5661609
   9.0976830  30.1552811  82.9840317  10.0079393  30.1190529  83.2778931
   8.5846043  29.9678192  83.7700577  16.9788857  34.4491692  80.8720016
  16.6746845  34.0742378  80.0454941  17.2215080  33.6912498  81.4039078
  21.6297302  60.7607422   6.4183288  21.0032425  60.9897270   7.1048503
  21.1164112  60.2629395   5.7819891  63.4058266  41.7013054  36.6546364
  63.7457123  41.0613136  37.2800293  64.1578979  42.2557182  36.4466705
  33.9324722  39.3166695  61.8541718  33.9085884  38.8297043  62.6779022
  33.6366730  38.6880875  61.1956749  16.4901772  71.0714417  30.2948647
  15.7817564  70.4277267  30.2954693  17.2796707  70.5589066  30.4687595
  38.8571625  67.0192642  87.1789627  38.5088844  67.3406906  86.3473282
  38.2386093  66.3416214  87.4517670  45.8416595  58.6679726  16.2832432
  45.9575462  58.6338539  15.3336973  44.9486160  58.3548355  16.4269485
  27.1245403  22.0899143  52.2253799  26.8806801  21.1647358  52.2538338
  27.3886204  22.2956848  53.1221275  47.8965263  64.4361877  66.7551498
  48.3822403  65.1783142  66.3951950  48.5465813  63.7374344  66.8286133
  42.6471596  67.7846375  30.2295837  42.1868210  68.0897751  29.4477825
  41.9809418  67.7891617  30.9168739  85.7741165  12.7677975  28.3485832
  85.0767517  12.2245960  27.9813747  86.5722733  12.2572908  28.2123203
  51.7530174  28.3832645   0.8337938  51.6091614  29.1857071   0.3321728
  52.1781807  27.7879143   0.2165205  49.3188171  18.3715000  73.8342285
  49.4500389  19.3053875  73.9981384  48.4238052  18.3103600  73.5003967
  51.8355331  58.5628929  21.4648685  51.9963646  59.3495979  20.9438477
  51.8156738  58.8747406  22.3696270   1.3106204  17.8332958  44.9712296
   1.5715376  16.9127808  44.9996185   0.3819830  17.8262863  45.2032127
   3.3477921  57.3627205   7.4923992   3.1731656  58.1849556   7.0345101
   4.2946715  57.2437248   7.4182935  81.6394958  69.7312851  19.3476524
  81.9170456  69.2543793  18.5655022  82.4287109  70.1842499  19.6446342
  78.4403610  42.4244080  83.4251480  78.8467255  41.8647003  82.7634659
  78.9968109  43.2026749  83.4550400  61.6423607  38.3490410  45.8546257
  62.2244072  37.7571373  45.3780670  61.4528198  39.0511131  45.2322121
  59.8246613   4.5441132  85.5417862  60.4776077   4.8749337  84.9249802
  60.3025551   3.9145749  86.0817184  60.1369514  49.8937378  67.1025391
  59.6773796  50.3024788  66.3690872  59.7635994  49.0141563  67.1588821
  70.4496384  59.2717552  60.8091507  70.1668854  59.7015266  60.0019455
  69.9399719  58.4621391  60.8406448  69.4798660  38.4411469  80.1261597
  69.9352417  38.8352890  79.3821716  68.5585327  38.4341660  79.8666840
  60.8229370  53.5409584  83.9742203  61.4131546  53.3779526  83.2384872
  60.5902672  52.6686974  84.2924347  77.9210129   0.5491940  16.3879776
  78.0721436  -0.0731798  15.6766109  78.3276443   0.1420168  17.1528893
  48.9700737  62.4830322   6.8850322  48.7488098  61.5560989   6.7952037
  49.9176788  62.5168457   6.7541547  15.3863192  49.5718765  32.9495697
  15.3478565  48.6768990  32.6122818  14.7540512  49.5844154  33.6681175
  22.6906776  51.4150620  66.2904434  22.8308372  50.8280830  65.5474396
  23.3757401  51.1779976  66.9155197  25.5200481  27.3850784  84.1728287
  26.1389351  28.0832405  83.9588623  26.0221653  26.7783222  84.7168427
  55.1813126  41.8495750  22.2719707  55.1745186  40.9986877  21.8335896
  54.3090706  41.9267921  22.6585770  55.0830002  21.5534992  25.6836414
  54.4760094  20.8222084  25.5695763  54.6419525  22.1367321  26.3013382
  85.8681870   2.1010263  15.0250320  86.7974243   2.2421861  15.2061958
  85.4799500   1.9311084  15.8833055  78.5508728  58.5540428  50.8967056
  78.1005096  57.9843102  50.2731590  77.8985825  58.7299156  51.5748100
  81.4930115  27.9493370  58.2487793  81.7048645  28.5447750  58.9676704
  80.5384827  27.9811954  58.1847763  46.4467964   0.4967350  77.2805634
  45.6284752   0.9536981  77.4749069  46.6468582   0.7379516  76.3761215
  66.4385071  38.2981453  46.1887093  67.0249176  38.8633232  46.6916351
  66.9976578  37.5834694  45.8840332  19.7468052  57.8736954  65.1119156
  20.1011391  57.0880165  65.5283127  19.5445042  57.6000977  64.2172318
  14.9361115   1.4291277  70.6486282  14.7293139   2.3623357  70.5977402
  15.8281622   1.3625591  70.3079758   5.4656019  30.7838345   9.0195694
   5.6351418  30.6920242   9.9571505   4.5724792  30.4592075   8.9047575
  39.3748207  12.6974363  73.5268402  39.1356010  13.3871241  74.1459808
  39.7042465  11.9861412  74.0761719   2.9348328  69.1888580  72.5868301
   3.8763225  69.0245590  72.5335999   2.8604262  70.1418915  72.6360626
  44.7247543   0.6259144  40.2879486  44.0540047   0.5365372  39.6109428
  44.9040489  -0.2718351  40.5674667   8.7809000   0.2012035  67.3223114
   8.4271631  -0.0931201  66.4829788   9.7060585  -0.0423741  67.2909622
  38.0694733   0.5934032  22.6898479  37.4771080   0.2767995  23.3718319
  38.5194778   1.3374630  23.0899734   0.6097901  46.9550858  59.2343826
   0.1036232  46.2819023  59.6891937   1.4604150  46.9526100  59.6733170
  68.0405426  44.3640213  33.6876755  67.3917389  43.6951981  33.9067001
  67.6392288  45.1872520  33.9660149  84.8173904  69.3987656  88.1454086
  85.6405106  69.5587082  88.6070633  84.7773056  70.0873413  87.4817123
  19.0621071   2.1408689   5.3477125  18.1177311   2.2970254   5.3468666
  19.1616211   1.2724285   4.9576607  77.8746185  28.1657963  20.6245785
  77.3837204  28.8137321  20.1191826  77.2429962  27.4673805  20.7963238
   6.2304707  20.1182003  34.6175232   5.6863747  20.2442169  35.3948975
   6.1785407  19.1793346  34.4384575  85.1909790  65.1203308  23.7701435
  84.8652039  65.7662048  23.1432858  86.0091171  64.8051987  23.3859997
  39.3492203  28.9108143  86.8589249  40.2770805  29.1405468  86.8086472
  39.1980362  28.7263470  87.7859344  86.1843567  32.2720528  86.1581497
  86.8565750  32.3062172  85.4775620  86.0258102  31.3375416  86.2914963
  51.1519623  64.8707962  15.3800640  50.9774628  65.7202988  15.7852049
  50.2845001  64.4999542  15.2181444  69.0994263  57.8219452   7.1051469
  69.3588409  57.9189758   8.0214005  68.5311432  57.0517311   7.0973940
  63.9476280  35.5422325  57.2061996  64.5046539  36.0902863  56.6533966
  64.5435791  35.1789207  57.8612404  34.8617134   8.6098766  15.8370752
  34.8775597   7.7084308  16.1585979  34.3322334   8.5708189  15.0406103
  49.9045830  54.1707001  10.5765200  50.3363953  54.1404800  11.4302521
  49.3013535  53.4275742  10.5867863  44.6570015  65.8229294  58.5833740
  44.4226227  65.5140076  57.7082367  44.1769142  65.2461090  59.1775360
   8.1069946  35.8303909  54.7172546   8.6622257  35.0829620  54.9392853
   7.3067408  35.4387169  54.3673744   5.1759634  30.5838280   1.2632893
   5.0782752  29.8258705   0.6869320   6.1143012  30.6250343   1.4478339
  70.5785370  48.5039024  56.1173286  71.1499329  48.5582733  55.3513107
  70.7855835  49.2874374  56.6266785  65.3290176  59.5885315  19.7992096
  64.9484482  59.5640030  20.6771603  65.0767746  60.4443932  19.4526482
  35.5706787  48.7186165  43.2847214  35.2888794  47.9757118  42.7509460
  36.5168419  48.7665939  43.1479416   4.5291715   8.2270403  58.9187927
   3.9053314   8.6124048  59.5340576   4.5342641   8.8288069  58.1744270
  86.5201950  50.5078964  38.2984161  86.5401382  49.8570671  39.0000229
  86.8599854  51.3062782  38.7025948  38.8724785  65.1787872  36.6939697
  39.3648834  65.6260452  37.3822479  39.4647942  64.4948196  36.3815842
  64.6086044   8.8344107  77.5884857  63.8400269   9.1051121  78.0907288
  65.0176697   9.6555824  77.3154144  58.9515381  46.9727859   5.8127670
  59.3518410  46.4017525   5.1570911  58.3294754  46.4095154   6.2731986
  26.3219185  14.5074902   1.8505032  25.9410324  15.2375984   2.3384573
  25.8739376  13.7327766   2.1901560  13.7501097  19.6101494  20.0546150
  13.3981876  20.0867710  20.8064213  14.6882839  19.7995205  20.0687752
  51.2856598  49.1180763  76.8812103  51.8075752  48.3754959  76.5772171
  51.4526100  49.8073273  76.2383347  62.4374008  10.8310957  23.8300285
  62.4185066   9.9284201  23.5121441  62.0928154  10.7783489  24.7214928
  59.8012085  21.1898594  82.2549210  60.2354546  20.4337597  82.6498566
  60.0226479  21.1346912  81.3253250  31.8131618  61.6085701  54.3912888
  32.2416992  61.6039162  53.5353889  30.9409924  61.2512131  54.2244072
  52.6980247  60.4748535  71.3346329  52.5986595  59.8716202  70.5981064
  52.2330132  60.0508690  72.0559006   8.6749382  65.2711258  71.6607132
   8.7762794  64.6203308  72.3552856   8.7987013  66.1121902  72.1006317
  54.4198380  42.6862946  52.5509377  53.6937523  42.0959435  52.3496437
  54.3707619  43.3646584  51.8774033  42.8316422  11.0164862  14.0959139
  42.2297974  11.0573072  14.8391142  43.0704422  11.9285812  13.9307175
  24.7868481  54.3357887  25.5788612  25.3186531  53.7472763  26.1146488
  25.4014721  54.7016411  24.9427624   2.8754089  64.4277344  24.3021259
   3.7496817  64.8149490  24.3462181   2.8005831  63.9130974  25.1057281
   6.7011862   6.6832986  80.4767227   5.8661098   6.4227762  80.8653183
   6.7494035   7.6279230  80.6236649  55.1640053  70.8992615  17.7469387
  54.5990906  71.2791367  18.4198437  55.8088455  71.5820847  17.5621185
  61.1620102  34.9892197  57.7868767  60.7512970  35.8313637  57.9826813
  62.0591049  35.2122574  57.5384636  49.2098770   7.7868371  18.4601269
  49.7439003   7.7387438  17.6671982  49.4007797   8.6507483  18.8254299
   1.4130269  60.9003487  68.9585724   2.3127439  61.1074524  69.2112503
   0.8804050  61.5534439  69.4124603   6.6142435  21.9586201  67.4721451
   6.8729811  22.8478756  67.7140350   7.0853820  21.3964405  68.0871353
  70.5836639  39.9110069  40.7988586  70.4212952  39.1295929  40.2704086
  71.5168915  39.8693161  41.0076103  40.6030121  25.9262638  65.8168869
  40.7732849  25.9638062  64.8757019  39.6527252  25.8336811  65.8848572
  36.3220177  47.9781952   5.1642694  35.7073631  47.7989616   4.4527154
  36.3069649  47.1846619   5.6993494  73.2517166  28.2282085  53.5853882
  73.7317734  28.2422523  54.4133835  73.7747650  27.6651077  53.0148010
  73.3336945  56.1040535  55.6949310  73.0119553  56.6267929  54.9604530
  73.0667191  56.5939789  56.4727058  47.4214668  19.0877590  15.2812481
  46.8974228  18.9706821  16.0736504  47.4595490  20.0361271  15.1572313
  78.3744736   7.4675441  33.2737274  79.2547226   7.5632992  32.9100990
  78.2583618   8.2402515  33.8266029   1.4080949  11.1026020  88.7499008
   1.9097656  11.3974466  89.5099182   0.8344777  11.8398304  88.5408783
   5.6656852  50.4438629  81.7830048   5.5053420  50.2619476  80.8570328
   4.9478908  50.0063782  82.2408371  40.2648125  65.2570877  59.3639984
  39.9750671  65.9392395  58.7582359  40.6122589  65.7364807  60.1161232
  59.7384682  63.0963631  79.0600281  60.2461395  62.8155212  79.8213654
  60.2548065  62.8068810  78.3078156  14.2016411  56.8422966  68.3160934
  13.8086014  55.9798431  68.4500046  13.5025520  57.4599953  68.5304642
  59.9829521  47.1455688  77.2885284  60.0726929  46.7427521  76.4248657
  59.2789307  46.6531105  77.7105179  70.8973846   5.8310461  22.1098328
  71.7263031   5.7389746  22.5795650  70.6508255   6.7472382  22.2364464
  71.4164429  36.8580360  77.4616470  70.8553772  37.6059074  77.2564240
  71.0843582  36.5318642  78.2980499  72.9879456  60.6486588  43.5750694
  73.3682861  60.5971832  42.6981850  73.7311707  60.8380013  44.1477737
  14.2890501  45.6492462   2.5997686  15.0793352  45.1158295   2.6843259
  13.7644405  45.1970673   1.9390486   4.8898816  53.8481293  83.7575150
   5.7211180  54.2930565  83.9228058   4.5872512  54.2079849  82.9237595
   0.7412549  62.7969398  74.5269241   1.1152453  62.3742218  73.7538376
   1.4016258  63.4366875  74.7931290  42.4037094  64.7188797  68.1579895
  42.4978218  63.9582901  67.5845108  43.2132721  65.2142334  68.0336456
   1.2459311  45.6117668  21.9111977   1.6842372  45.8143120  21.0847015
   1.7524577  44.8880577  22.2798519   1.4100664   9.5720863   2.3090348
   1.9149326  10.2666693   1.8860742   1.7470223   8.7629013   1.9244409
  52.3342857   5.0866690  29.2932129  52.5067101   5.9846578  29.5762653
  53.1277695   4.8264875  28.8253269  74.5106735  48.8517456  73.7551498
  75.3054276  48.3182755  73.7536545  73.8387375  48.2794266  74.1255341
   1.0401757  69.2637024   3.0779157   1.7188407  69.5512238   3.6886346
   0.2177290  69.4269714   3.5396042  82.1414490  61.3807755  61.9221649
  82.6879654  61.9491692  62.4648285  82.7630844  60.9085350  61.3682785
  41.5356865  43.4508972  65.8090515  41.6515503  43.4234467  66.7588196
  41.2071114  42.5808449  65.5826035  32.7787857  59.7174835  64.2292786
  33.0283356  60.2052002  65.0141907  33.0946159  60.2548866  63.5028572
  52.2650490  21.5183468  43.5301476  52.3720169  21.1070061  44.3878136
  51.5036278  22.0894451  43.6317062  29.7361965  56.9147530  35.7627029
  30.4138565  56.6556282  35.1383133  28.9149570  56.6494789  35.3486633
   3.1837361   2.1171529  76.6135178   2.4931593   1.6411246  76.1522827
   3.6306219   1.4480718  77.1320267  45.9048882  59.0030518   3.7383342
  46.7924500  59.3004799   3.5383425  45.7728043  58.2442474   3.1700020
  27.3932781  14.4040699  42.8951073  27.4918518  15.3560228  42.9124603
  26.4651566  14.2560368  43.0765190  46.4256020  64.0833206  50.9313774
  47.0048561  64.3782959  50.2287445  45.6549759  63.7407951  50.4785614
  85.8508072  27.8895721  53.1681252  86.3913803  27.3148918  52.6261368
  86.1756210  28.7703552  52.9811821  71.1292114  20.9437370  29.0829601
  70.9103928  20.2556171  29.7113228  70.4382553  20.8934727  28.4224415
  72.4598465  34.5874710  49.4975357  72.7318039  34.1383286  50.2978745
  72.1776657  35.4531708  49.7927856  36.4998436  64.0329590  37.6212921
  37.2152443  64.5106354  37.2014656  35.8686829  64.7107620  37.8630600
  54.5852089  41.0393906  63.9750061  54.8403740  41.6403694  64.6749649
  53.9394608  41.5273094  63.4639549   0.4415542  10.0707130  66.3391800
   0.8383029  10.5193987  65.5925140  -0.4502156  10.4161358  66.3799438
  59.7797089   6.1871920  62.8053246  60.4225044   6.5759025  63.3985786
  58.9934082   6.0806093  63.3406754  21.3081856   7.5651412  83.4678726
  21.2499180   7.8520479  82.5565491  21.4476738   6.6197567  83.4128952
  80.3585739  61.7408409  13.4132109  80.3809814  60.8128242  13.6467009
  79.6425323  61.8117676  12.7819557  57.8005829  28.6913357  64.7362289
  56.9286613  28.6692390  65.1305618  58.3066406  29.2703171  65.3062515
  56.3166199  35.4922409  21.6783085  56.2623634  36.0793495  22.4323597
  55.4132919  35.4113998  21.3722115  81.0566025  68.7517014  43.6705170
  81.1723480  67.8113327  43.5343628  80.1222687  68.9014053  43.5261345
   4.8412299   4.6100750  33.5796661   4.6173568   5.5406322  33.5663795
   5.4729548   4.5055285  32.8681717   0.8363090   5.7249546  12.7828836
   0.7533762   6.2540698  11.9895420   1.4661677   6.2013621  13.3237591
  72.8213272  65.2217789  28.4376945  71.8938370  64.9897614  28.4842453
  73.1944122  64.5942764  27.8186073  13.8590374  51.3791428  49.1664314
  14.5868874  50.7624092  49.0883064  13.3494816  51.2508621  48.3663521
  57.3373375   7.9445548  49.4703789  57.7546730   8.5693560  48.8773460
  56.7545547   8.4789343  50.0098534  84.5290375  18.2223911  67.1523209
  83.9438248  17.4989777  66.9277496  84.4553757  18.8278961  66.4146347
   3.4227664   7.9187455  44.4632111   3.5535336   8.5119190  43.7234306
   4.0254450   8.2373810  45.1351357  42.0373459   3.4632661   3.3471501
  41.5562477   4.2907586   3.3528426  41.3565903   2.7903848   3.3527100
  81.4093704  51.0093994  70.2507095  80.6899033  51.4356194  69.7849426
  81.9976120  50.7079201  69.5583878  14.8393707  66.3943253  72.1773605
  15.3165941  65.5707550  72.2785110  15.3855076  66.9170532  71.5902328
  27.9467716  54.6227684   0.0763115  28.4819736  53.8645744  -0.1580710
  27.3932953  54.3128548   0.7931447  81.3273163  46.2462540  57.4716492
  82.2664337  46.3020401  57.6482315  81.0475235  45.4450874  57.9144554
   5.6351533  11.5345869  54.2071991   4.8748474  12.0842905  54.0174828
   6.2305651  12.1077251  54.6901398  32.6081810  17.0294342   2.1262290
  32.0271149  17.5045700   2.7202325  32.6106224  17.5522785   1.3244435
  61.0927696  35.0276680  77.5667114  60.9764175  35.2719231  76.6485367
  60.4944687  35.6017494  78.0449371  60.3246422  65.8200150  47.9407425
  60.7348709  66.0890732  48.7626610  60.4389420  64.8699951  47.9157524
  16.9702148   4.5159950  70.7708969  16.0341167   4.5812159  70.5819550
  17.1354351   5.2126513  71.4061966   2.6525288  64.7419739  75.1918411
   2.3269465  65.5700226  75.5447845   3.0777779  64.9830856  74.3688889
  49.3007278  62.1019630  66.5556717  49.0570107  61.7805939  65.6875916
  50.1834564  62.4541016  66.4415741  71.1414719  49.9953346   6.5188909
  71.5205536  50.8702660   6.6026497  70.4249039  49.9830284   7.1534076
  28.6096497  18.6678638  13.7728691  29.3304062  19.2082005  13.4491768
  28.7883358  17.7952518  13.4223652  47.2488098  32.1399422  39.2199059
  47.4328537  31.9040737  40.1291504  46.6454010  32.8804016  39.2819862
  61.5969048  26.9247360  31.2286606  62.4315605  26.6308498  30.8636780
  61.6492882  26.6999302  32.1576118  75.1175613  35.8694725  31.5010624
  74.7156067  36.3610268  32.2173309  74.3792343  35.4719200  31.0394859
  39.6150856   1.9760127  59.0067406  39.0469170   2.7313130  58.8552933
  40.4580231   2.2314217  58.6319656  11.7418938  63.5081787   6.1974521
  12.2884483  62.7420692   6.0225573  11.2087002  63.2550125   6.9510059
  82.8133316  50.8874550  51.6037903  82.2153091  50.8068008  52.3468208
  82.3688202  50.4330330  50.8881493  48.0621719  35.3532677  65.3090668
  48.5671272  36.1467896  65.1313782  48.3618050  34.7262764  64.6507874
  24.1069202  54.8986740  79.9219208  24.1838303  55.1357841  80.8460999
  23.6815281  54.0412216  79.9292450  73.3815842  18.5528698  34.3270721
  72.9158707  17.7664471  34.0426750  74.2579803  18.2428799  34.5552521
  26.6713257  12.1782627  59.5495338  26.7988491  12.4060888  60.4704361
  27.4013157  12.5990887  59.0953865  11.0411901  15.1471367   2.3453803
  11.9042482  15.4666471   2.0821769  10.6147032  15.9073753   2.7408252
  81.8114548  64.0049438  72.6720047  82.1330490  63.1071358  72.7541275
  80.9690628  63.9177475  72.2259064   3.3204679  32.1813240  40.2957001
   3.7763338  32.8138695  39.7404480   3.1201549  32.6660919  41.0963898
  25.9912262  60.8457680  55.7984772  26.4167900  61.3252411  55.0876808
  26.0629654  59.9259491  55.5434990  33.5359383  17.5680389   9.6958103
  33.8633308  16.6976566   9.4689236  33.2592010  17.9450550   8.8606396
   7.8271489  19.7556591  14.6760187   7.1043711  19.9375267  14.0753956
   7.8951645  18.8009396  14.6867886  53.4091911  69.9167023  66.1584167
  52.9392357  70.2545395  65.3960266  53.7739525  69.0819931  65.8643951
  61.5859070   4.9824929  82.1088409  61.7395592   4.0767651  82.3776932
  61.6387062   5.4857526  82.9213486  75.6678619   2.8103151  58.2113380
  75.9182892   1.8894178  58.2852592  75.1438522   2.8525593  57.4114227
   4.2058549  52.1544113  38.8851471   4.7047410  51.3424797  38.9751968
   3.2912259  51.8727341  38.8666191  28.8719540  49.1289253   0.8551430
  28.5978050  49.1531868  -0.0616366  28.0906277  49.3842583   1.3456172
  16.7598133  63.6450806  16.2119122  17.6362057  64.0041656  16.3505650
  16.3037205  63.8004074  17.0390072  44.8567696  53.1060944  51.8323174
  44.7937546  52.3850250  52.4586754  44.6759033  52.7024651  50.9834366
  80.0961685   4.2150493  11.8735828  79.9388046   3.6111760  12.5993958
  80.3250732   5.0428863  12.2961006  28.7063313  23.0611801  76.0976410
  28.9257984  22.1379280  75.9724579  28.2589798  23.3127155  75.2896576
  10.0387173  61.2201309  31.8972282  10.9149218  61.2199707  31.5118752
   9.5676136  61.9036598  31.4207020  55.8496742  44.9845543  31.0746918
  56.1961899  45.1922302  30.2069206  55.8978996  44.0301552  31.1297359
  11.8217783  55.0569801  80.4129639  12.0091887  54.7584839  79.5230103
  12.4779139  54.6194954  80.9554825  16.1857738  17.0784245  83.7951660
  16.0104542  16.5625687  83.0081558  16.6641426  16.4818611  84.3709335
  60.3859901  41.5303650  53.4967003  59.5313301  41.5691299  53.0674133
  60.7819443  40.7226524  53.1695175  45.9477158  20.7525272  20.1040878
  46.2240334  21.4977570  19.5706902  45.9480705  21.0867519  21.0010414
  55.4673653   7.8194203  55.9542542  55.6250191   6.9110880  55.6967506
  56.1350975   8.3204737  55.4859467  14.6403093   1.2000715  38.0130844
  14.1537771   1.5501548  38.7593842  14.5088902   0.2533216  38.0643272
  37.8560753  67.3575439  73.3782654  38.4654884  68.0340881  73.6734467
  38.3451653  66.8660126  72.7184067  10.2723713  29.3560104  59.3597412
  10.7562523  28.5729294  59.6221771  10.9508991  29.9947014  59.1408653
  63.1992989   5.7230182   9.6985683  63.1264381   5.1808906  10.4840746
  62.4624062   6.3310409   9.7579880  64.6554947  46.6388550  56.9202690
  64.5820694  47.3580017  56.2928391  64.1223145  45.9381104  56.5448875
  76.4401016  61.0615120  29.6739616  76.9706268  61.6578941  30.2022648
  76.6140060  60.1955643  30.0429096   5.8817387  29.3436947  27.9013023
   6.5882292  29.2807999  28.5440674   5.0987101  29.0689697  28.3784027
  60.0125504  54.3827705   7.1445312  60.0265541  54.7550774   8.0262480
  60.3233757  53.4846840   7.2587962  56.8245354  48.6912003   4.0884891
  56.1678314  48.1909943   3.6039646  56.9947166  48.1676216   4.8715196
  15.0924606  47.9873314  79.5212326  15.5873165  47.8008156  80.3190765
  15.3368263  48.8839569  79.2919235  66.3878403  13.7217770  13.4050131
  66.6269608  13.7028151  14.3316708  67.0445023  14.2881556  12.9997482
  77.2199707  45.9290085  47.9374733  76.9420242  45.5017319  48.7476616
  76.9829102  46.8485069  48.0580978  83.0723648  27.8184662  87.3425522
  82.4079361  27.9227772  88.0236435  83.5507431  27.0283146  87.5936356
  13.5679960  30.1667480  86.9768982  14.0435171  30.2611828  86.1515579
  12.6822739  30.4711151  86.7791901  57.6695213  15.9443312  10.8974895
  57.7345161  16.8140793  10.5030975  57.0525589  15.4729815  10.3376541
  37.9146194   1.3238356  71.3065033  37.9741287   1.4029578  72.2585678
  37.3178520   0.5891166  71.1640625  80.3003693  57.9067917  17.7727661
  80.3321762  56.9624100  17.9256268  79.3767700  58.1353798  17.8773880
   4.1236053  41.2201767  75.7096558   4.1952553  41.2158127  76.6641617
   3.1893990  41.3416595  75.5401535  29.3683147  18.0948887   7.9142885
  28.6723843  18.5755939   7.4661441  29.0270805  17.9460564   8.7961273
  79.7730942   8.5276184  70.9362335  80.4400940   8.8871908  71.5210876
  79.3939438   9.2937927  70.5055847  48.3922005   2.0913062  21.0194702
  48.6824799   2.9859960  21.1969547  48.3454399   2.0396130  20.0648098
  17.9381657  19.4285183  76.2522964  17.3287697  20.1611290  76.3425751
  18.1900673  19.4389038  75.3288956  61.4661484  40.3765945   2.0605700
  61.3069038  39.4331818   2.0897014  62.0613289  40.4962883   1.3205260
  64.1559525  18.8275166   2.7944803  63.9172745  18.7375698   3.7170708
  63.6363831  19.5689945   2.4838567  54.1401939  33.0558052  85.7951965
  54.2956314  33.0659256  86.7396393  53.2001076  32.8976440  85.7088623
  68.9214554  58.3535767  43.8158112  69.8225403  58.3737106  43.4935341
  68.8348770  59.1530266  44.3350563  68.6644135  58.0473175  35.4886475
  68.6415710  57.2249451  34.9993553  67.9736938  58.5799026  35.0943146
  20.9926186  56.4522476  29.3117561  20.3088913  56.9968796  29.7017879
  20.7267017  56.3520546  28.3977108  50.8565025  37.9792328  60.2173500
  50.2503777  37.3690720  59.7971725  51.6955452  37.8188858  59.7854652
  70.3031769  58.4434814  66.6006927  70.4820862  59.3732643  66.7411499
  69.7360764  58.1957169  67.3309326  15.4963408  50.1643982  53.5082321
  15.3798313  50.9191055  52.9311066  15.4599991  50.5307007  54.3918266
  16.7512417  36.2660942  57.1247253  16.5392437  36.6863785  56.2912674
  17.3085289  36.8992119  57.5773010  17.6130791  48.1428261  38.0113449
  17.1362114  47.9348106  37.2078781  18.1998272  47.3978004  38.1413269
  75.4142761  63.7258148   5.8575788  76.2989273  63.5530357   6.1797185
  75.1595917  64.5439911   6.2841382  80.3117371  12.4298496  38.7364960
  80.7685699  12.0076370  38.0089874  80.8927231  12.3076982  39.4873428
  26.4437122  59.7281799  84.9443665  26.0299568  59.2742538  85.6785202
  26.8017235  60.5284271  85.3286438  60.7204094  36.7160263  11.8251619
  61.1856117  36.3540077  12.5793247  60.8097153  36.0480309  11.1454258
  75.4271545  46.9749374  35.5942574  74.7013016  46.5808067  36.0780258
  76.0859222  47.1636887  36.2625580  12.2755527  47.0177612  88.5285110
  12.9924955  47.5387764  88.1668930  12.1741829  47.3390694  89.4244537
  16.9768829   2.8108907  49.0047035  16.6941910   2.3377669  48.2220993
  16.1660500   2.9964259  49.4783707  12.8393373  59.8591080  22.9803867
  13.2158461  60.6800919  22.6634312  12.7155695  59.3319016  22.1911049
  55.0117989  53.4427719  73.2254257  55.2838364  52.8420982  73.9192657
  54.4432068  54.0748825  73.6651611   0.3411663  29.7694550   6.0470695
   0.1974310  30.1592674   6.9094028  -0.0484007  28.8974171   6.1104746
  38.8276939  35.2081528  52.1747131  38.0690842  35.7342262  52.4276810
  39.5778008  35.7853775  52.3174858  65.8755035  25.0837250  39.1879196
  66.4998016  24.9822655  38.4694519  66.3806076  25.4982853  39.8873749
  68.7184219  47.6834717  66.3321152  69.1564789  48.5079727  66.1210709
  68.7341080  47.6418228  67.2882767  41.9308662  58.2579918  73.9499283
  42.7833176  58.6532822  73.7674408  41.3029671  58.8259430  73.5033722
  57.7019730  49.2467499  16.5046558  58.0763054  50.0605507  16.8420525
  57.0151634  49.0208778  17.1319580  85.9748459  61.3895035   3.5984702
  85.9433289  61.3921127   4.5551472  85.2344437  60.8426018   3.3359213
  14.0673504  65.8986969  31.5321159  13.3157330  65.5530548  32.0136108
  14.7785759  65.9077072  32.1726685  49.3139839  31.3805428  59.6599731
  49.1848412  30.4331131  59.7039185  50.0524292  31.4941139  59.0616150
  43.7591209   2.6064575  60.9886856  43.6519012   2.9422407  61.8786240
  44.7043800   2.6226778  60.8388367  18.0135593  59.3991966  12.9818401
  18.2133274  60.3153152  12.7893600  17.8496189  59.0047226  12.1252508
   2.4537933  48.8572235  52.6936798   2.2955072  48.8530502  53.6376953
   3.3508480  49.1785355  52.6026573  26.1195297   3.4862573   0.7614723
  25.9410477   3.9970591   1.5510657  25.2952518   3.5012732   0.2750842
  27.7714882  35.6489639  83.9068680  28.7124729  35.8205681  83.8703232
  27.4062805  36.1621056  83.1860733  84.5943146  16.6212978   4.0454869
  84.2944183  15.7123117   4.0390444  84.0427017  17.0508671   4.6992626
   5.6930208  30.8045979  14.5327120   5.2617898  31.4190044  15.1266613
   5.5540996  29.9465141  14.9334946  15.5502234  71.3686371  72.7939301
  15.1422577  71.9720917  72.1729355  14.8382978  70.7913284  73.0698166
  65.2531967  40.2342606  38.2874680  65.2449112  39.3156891  38.5565109
  64.9458847  40.7122307  39.0577507  58.8024445  60.9736176  21.5752373
  59.6476288  60.6086388  21.3131599  58.3368340  61.1153870  20.7510166
  66.1862869  10.7587185  76.1276016  65.3911362  11.2610960  75.9498901
  66.4313660  10.3900576  75.2789154  21.2862377  38.1016884  23.8877220
  20.7886791  38.8015060  24.3107109  22.0055828  37.9199867  24.4925022
  60.4762154  62.3780212  82.1962585  59.6957474  61.8637466  81.9897995
  60.8406448  61.9579811  82.9753571  53.0739708   4.4129958  43.8558311
  53.3248520   3.8145497  44.5595016  53.8189316   5.0079517  43.7704124
  28.3853493  43.0113564   2.0164812  27.8319168  42.6677895   2.7178400
  28.6323719  43.8871269   2.3135302  20.2264481  48.0360603  53.6268806
  19.3784523  48.3962822  53.8864441  20.7604313  48.0853386  54.4197655
  70.6907806  56.0674210  21.7853355  71.0455399  55.1830673  21.8763599
  71.4535980  56.6129417  21.5936279  39.6150131  20.5290394   9.5462437
  40.2158737  19.7966690   9.4090137  38.7853508  20.1164112   9.7863111
  72.7982559  60.9942780  28.6400948  73.1883774  61.1122131  29.5061951
  72.9276047  60.0664635  28.4434662  48.2646866  44.5462379  15.1580181
  48.7083015  44.3968010  14.3230886  48.9480515  44.4254608  15.8173056
  59.7608109  61.8428383  12.7538404  59.0557365  62.4795723  12.6369152
  60.1736908  62.0918236  13.5807447  85.5164032  17.0383472  63.9374580
  86.4605103  16.8810692  63.9503441  85.2046738  16.5617332  63.1681099
   1.3952420  59.1635284  37.1865768   1.1941861  59.2288971  38.1201401
   1.5227866  58.2272072  37.0340309   5.6313181  33.7212830  57.2814255
   4.8480186  34.2627487  57.1840096   6.2876916  34.1483727  56.7309685
  46.8405190  37.9841690  20.7353973  46.6185570  38.8598404  21.0518875
  46.1007843  37.7351074  20.1813278  12.8598204   1.5223842  26.7823410
  12.1427689   0.8981228  26.6711349  12.5638494   2.1050050  27.4817600
  35.7503128  54.8593636  69.3031921  36.3736343  54.5051765  69.9374237
  34.8917770  54.6915283  69.6917496   3.3267560  21.0113640  48.2376747
   2.9644618  20.8335133  47.3697205   2.9037042  20.3709507  48.8096275
  82.7886200  14.9383945  42.8097038  82.2404556  14.2522097  43.1903610
  82.2420120  15.7237339  42.8359642  73.8963776  11.0493174  79.8586502
  73.6665268  11.9424210  80.1150970  74.1934662  11.1293440  78.9522476
  41.2268906  40.3414803  77.5514603  42.0322762  40.5993690  77.9998779
  41.2600708  40.8044624  76.7143402  57.9978447  70.8330536  44.2538261
  57.5907936  70.1458282  44.7813339  58.8629951  70.9544754  44.6449852
  65.4613342   3.8378069  78.2140503  65.4866714   4.7940493  78.2485504
  66.3527145   3.5665271  78.4333344  68.7474442  47.7636719  22.0690708
  69.3421173  48.4651260  22.3347015  69.1004944  46.9788399  22.4881477
  75.9514847   2.2783518  16.5255184  76.6577072   1.6324372  16.5088940
  75.1529160   1.7579072  16.6130009  80.2219238  65.8964844  33.8923950
  80.6297226  65.8126907  34.7543182  80.9441681  65.7862320  33.2739792
  28.9872952   5.1990943   7.5045385  29.1581955   5.3052802   8.4403534
  28.9364796   4.2518840   7.3763123  15.4471750  41.8973160  64.1265640
  14.8698454  42.6337280  64.3281097  15.0521870  41.4868698  63.3573112
  76.5854034  33.7133789  22.4079628  76.0912323  33.6441727  21.5911198
  75.9380722  33.5506325  23.0940418  65.6240540  45.6743698  75.0744705
  64.8948975  46.2333145  74.8058777  65.2620087  44.7883148  75.0670013
   9.0617447  59.3954887  44.5431709   9.1897326  58.4627304  44.3704948
   9.4237366  59.8335381  43.7729073   1.9019270  64.9865799  37.1861992
   2.4339955  64.3749771  36.6772041   2.4369972  65.7780914  37.2448692
  49.8957100  66.3292618  12.8055725  50.2119026  65.4344101  12.6810980
  50.1094246  66.5343628  13.7157879  22.8601284   4.4579988  88.8322983
  22.1891232   4.1106148  88.2446671  23.5712032   4.7276998  88.2510376
  11.1861420  26.6506805  63.1163368  11.2814283  26.1202583  63.9074135
  10.3428478  27.0907612  63.2231789  62.3377533  23.9893970  43.1757889
  63.2047844  24.2336025  42.8519783  62.5133896  23.4074211  43.9151726
   3.9326212   8.2860003  65.5175858   4.6476049   8.0651865  66.1144714
   4.2230740   9.0873451  65.0820236  73.4963837  35.1220360  80.5077667
  74.1376038  34.6882858  81.0707321  73.2457123  35.9086761  80.9921265
  61.3333931  13.1040630  63.1737213  60.6420135  13.7496834  63.3200150
  61.8028183  13.4260349  62.4041710  80.1160965  66.0821991  14.4145594
  79.2757568  65.7591019  14.0895052  79.8828049  66.7183380  15.0906773
  84.9435959   3.1976287  22.9340439  84.6624222   2.5800281  23.6091309
  84.3748627   3.9582362  23.0534000  13.3687687  67.5126801   3.3192739
  12.8925905  66.7646942   3.6798401  12.8592663  67.7737503   2.5521476
  53.7026253  41.4829063   7.5633316  54.5424690  41.3319550   7.1296124
  53.6215515  40.7607002   8.1862898  25.5960617  13.1947174   4.8406196
  24.7618408  13.1740532   5.3095326  25.4682808  12.6040201   4.0983391
  10.4647884  48.8456116  73.4523087  11.2275801  48.8449211  74.0305634
  10.1695757  47.9351082  73.4441757  80.2429504  52.2511864  64.7083588
  79.4001007  52.4892464  65.0945816  80.1768723  51.3093109  64.5511093
  21.2906761  55.6074562  60.8394203  21.6507854  54.7207260  60.8232307
  21.9333668  56.1180115  61.3318787  20.5320549  16.8239632   6.3345480
  21.4220524  16.6533775   6.6428256  20.3404484  17.7121792   6.6355300
  52.3440323  56.5549164  30.4796295  52.2324371  57.2798347  31.0946674
  51.4818764  56.1411514  30.4381199  44.7618904  24.1026096  64.3937759
  45.1872368  24.1812038  65.2476654  45.4475708  23.7705212  63.8142967
  53.6166458  19.3658466  26.3501663  53.9193878  18.7116241  25.7204266
  53.9499474  19.0589027  27.1933308  35.4385414  56.4262238  42.1641808
  34.7945747  55.7620010  42.4098244  36.1899986  55.9254456  41.8467445
  54.0742073  33.2389717  13.6837158  53.1607437  33.5129852  13.6016417
  54.2985191  32.8915062  12.8204756  67.4666977  22.8603497   5.6691298
  67.4513168  23.1358719   4.7525692  67.9874802  23.5303764   6.1119375
  48.1583405  69.6257477  41.9070015  47.6658134  70.2736130  42.4109116
  47.5288696  69.2895126  41.2690811  75.1813278   9.5396070  71.3574066
  74.7260361  10.1055222  71.9808502  75.9561005   9.2363939  71.8307190
  56.2353058  16.4628162  68.3273697  57.0206070  15.9158888  68.3474884
  56.2194405  16.8266602  67.4421616   9.1406031   7.4047780  73.8425980
   8.8424330   7.2827783  74.7439499   9.0612288   6.5378475  73.4446487
  69.5400467   4.7188077  29.1094208  69.6521378   4.4676723  30.0262604
  70.4129105   4.6268969  28.7274723  85.1303024  10.1516953  80.8899994
  84.5474625  10.8408146  80.5711823  84.5457840   9.4261417  81.1094055
   0.3640676  58.3457260  17.9676437   1.0759081  58.1458244  18.5755539
   0.5883939  57.8662224  17.1701584   3.7977648   2.4912989   5.4418626
   4.7412205   2.5276268   5.2843704   3.6297703   3.2059965   6.0560422
  20.2577648   3.4996707  20.4097424  20.1377525   3.1316900  19.5342903
  20.3533916   2.7363663  20.9793510   6.5585179  41.5906601  80.3679428
   7.3289256  41.0551758  80.5575638   6.3534284  42.0181885  81.1994400
  52.6656609  20.7433338  22.3367290  53.3091507  20.0507927  22.4868622
  53.1754303  21.4706841  21.9798965  75.6389923  46.1708488  30.6393147
  75.7381363  46.7075768  31.4256516  75.0336151  45.4760971  30.8983021
  43.2476311  69.9717026  72.2213058  43.3623810  70.4045258  71.3752975
  42.3291321  69.7024155  72.2299423  47.5548210  13.3514366  19.6924362
  46.9787483  13.9184046  20.2051964  47.1625290  13.3380356  18.8194180
  32.0878029  32.0197983  81.1910706  31.3605022  32.6120834  81.3820419
  32.3266716  32.2179871  80.2855911  41.3149185  47.8377342  26.0838356
  41.5897789  46.9794884  26.4064732  40.5731773  48.0763206  26.6398296
  15.5120459  50.0869789  39.4161644  16.0660782  50.8621407  39.5078354
  16.1271000  49.3697739  39.2626724  63.3498497   1.5928488  40.3798828
  64.2157211   1.8231902  40.7166901  63.5183830   0.9038961  39.7370987
  73.3337097  68.8051224  32.2083855  72.9244766  69.6673660  32.2811012
  73.2066727  68.5561523  31.2929001  67.4649658  48.6991272  31.4033699
  68.2631531  48.8592567  31.9068432  67.5556259  47.7990417  31.0905495
  64.4091034  55.4634933   2.9896619  64.7155609  56.1748085   2.4272170
  63.4787025  55.6459885   3.1211329  14.2303963  11.5185270  20.7351189
  13.9508724  11.4453630  21.6476669  13.4840479  11.1967793  20.2294769
  32.0952225  39.2445221  28.6114807  31.1454334  39.2867012  28.7226315
  32.4446869  39.7567482  29.3406792  49.3768082  48.1679420  33.8373756
  48.5056458  48.1334419  34.2324905  49.3243294  47.5728683  33.0894699
  42.2860222  58.7367973  15.7384272  41.7038422  58.0991096  16.1515236
  42.1833458  58.5817909  14.7994585  57.9200020  21.1390934  77.2796631
  57.5375061  20.9153156  78.1281052  57.1838799  21.4696026  76.7647629
  70.3916092  59.6629639  33.4996948  70.5111389  60.1592827  34.3093910
  70.2737656  58.7580528  33.7886276   4.9823279  68.5691605  41.9253654
   5.3266926  69.0374832  41.1648903   4.5902057  69.2519150  42.4697227
  79.2087936  49.0035858  41.0975571  80.0263290  49.3129654  41.4876289
  79.3403473  49.1036491  40.1547356  67.8305817  39.9384499  20.1307316
  68.3074036  40.0119095  20.9574585  66.9563675  39.6420631  20.3839684
  46.0876007  36.5961685  67.0643005  46.7653694  37.0731354  67.5432129
  46.5693703  36.0792389  66.4186096  32.0289421  55.7387085  26.3841724
  31.6394978  55.9085274  25.5264282  32.5270805  56.5317078  26.5822830
  46.3139381   5.1209908  27.4362850  46.7763481   4.4031577  27.0037060
  46.2537155   5.8040433  26.7684193  41.9735336  49.4512672  39.7458344
  41.7749214  48.9921799  40.5619392  41.4190865  50.2312012  39.7687187
  55.8863068  41.3674622  15.3014545  55.0139503  41.7578278  15.2481260
  55.7562332  40.5566864  15.7933435  82.8851166  17.3229752  62.0726814
  83.7392044  17.6632633  61.8062897  82.3501587  18.1037731  62.2155304
  76.8741455  39.4255486   5.5958676  77.2153015  38.9209595   6.3342686
  76.9234238  38.8249283   4.8521862  55.6300659  39.6870232   5.5900307
  55.2657051  38.8079796   5.4863257  56.2906799  39.5930405   6.2763186
  42.9578896  47.9786491  37.6931992  42.7682343  48.5472946  38.4394608
  43.7461548  47.5005341  37.9506378   9.4378338   1.9324627  71.2182693
  10.2629328   1.5910052  70.8735199   8.7758646   1.6339263  70.5946426
  33.3652458  54.2637520  84.6254196  33.7017555  55.0863800  84.2700729
  34.1451111  53.7269440  84.7664108  66.2366714  26.9977207  86.4063034
  65.8311844  27.8636360  86.3615723  66.3358383  26.8277931  87.3430710
  52.8700829  67.4376678  82.0935974  52.0866928  67.6291275  82.6092300
  52.5837860  66.7823486  81.4573441  55.3243523  65.4219284  64.5439377
  55.6037102  65.5490036  63.6372681  55.5932808  64.5277100  64.7543335
  79.3701019  60.8815269  33.3128242  80.1335068  61.1268120  33.8355827
  79.2839966  61.5853119  32.6697807  73.9001541   1.8052254  18.9955750
  74.8083344   2.1074626  19.0052509  73.4615479   2.3435349  19.6544209
   8.3423061  49.9830704  82.3439941   8.7854252  50.8063087  82.1386719
   7.4449387  50.1108818  82.0363770  36.8071556  48.3727226  56.8979378
  36.9068527  47.4312859  57.0393143  35.9136200  48.5643845  57.1827087
  84.3699036  32.8273201  42.9291000  84.7816849  32.7014351  42.0742226
  84.1295471  33.7537117  42.9450874  71.1564560  31.5518646  56.5408363
  71.0605316  32.4765358  56.3127747  72.0993958  31.3920479  56.5015182
  62.0928078  67.3270569  27.2597065  61.8186913  66.7974930  26.5109367
  63.0090866  67.5384903  27.0809155  18.3775482  45.8889427  56.4475365
  18.4046650  44.9564323  56.6618347  17.5385303  46.1904564  56.7959213
  54.7516174  68.2856216  24.0669708  54.6531334  69.2082977  23.8320103
  53.8606453  67.9894943  24.2532749  19.5862064  43.8035469  40.4207230
  19.2863445  43.0134087  40.8701591  20.3017578  44.1318398  40.9651871
  48.3932991  34.2553711  19.0840607  48.9024696  33.4491234  19.0007439
  47.7737617  34.0753975  19.7911797  68.4655075   0.7267416   1.2696819
  68.4752426   1.2792184   0.4880770  67.9632416   1.2287014   1.9115565
  31.2589207  46.1896133  64.5038223  31.0618649  45.3428802  64.1032639
  31.3280869  46.0014954  65.4398041  62.4961395  61.2472267  64.4522552
  63.2929344  60.9516296  64.0118332  62.7445755  62.0727654  64.8681946
  67.4108505  23.1459942  58.9756126  66.7820282  22.6145649  58.4873581
  67.4639130  22.7259083  59.8340645   8.8266363  65.1263733  37.0149994
   8.2818689  65.0052032  36.2373238   9.5449495  64.5035858  36.9036522
  21.8712616  59.8771248  64.7159805  21.3515224  59.1476173  64.3784637
  22.1210575  59.6048851  65.5989990  16.1407776  28.9455986  81.7234497
  15.7637062  29.5900650  82.3223724  16.9067783  28.6071796  82.1870728
  66.9138870  35.3786354  44.5732079  67.8238220  35.5045929  44.3041840
  66.4589462  35.1278877  43.7692223  65.2681732  57.6813698  56.0461960
  64.7692337  58.1358414  55.3674164  64.6620255  57.0252762  56.3902245
  47.1444206  23.0114384  63.5785789  47.2341118  22.6972942  62.6788559
  46.9317551  22.2279892  64.0857391  62.8345146  52.8533096  78.2729492
  62.2957840  53.5052261  78.7212830  63.7212448  53.2123604  78.3050232
  56.4591637  30.2153244  15.9381189  55.8858223  29.4497986  15.9765997
  56.0379028  30.8589458  16.5077896  41.2499733  43.2003403  13.5713882
  42.0349426  42.8169861  13.1801128  40.5277138  42.6828156  13.2153845
  13.1978130  64.3250275  86.8478012  12.9092474  63.4683571  87.1625595
  13.1490440  64.2586746  85.8941498  20.2062340  58.6748085  22.8817291
  21.0896358  58.4284973  23.1558914  19.9169903  59.3038788  23.5426674
  81.9841995  36.2139320   8.0422344  81.8349075  36.5882492   7.1739998
  82.7671509  36.6606331   8.3642368  12.0316095  42.6827087  51.0099945
  12.4744558  42.9092903  50.1922035  11.1770430  43.1091080  50.9457130
   3.2255487  64.8338852  89.1727600   3.7372246  65.4658585  88.6677551
   2.3630946  64.8376160  88.7575607  75.7695618  70.8995056  62.4907112
  76.2663956  70.0823822  62.4493675  75.0134888  70.7490616  61.9233055
  79.2185059  26.3825340  18.6914444  78.7778702  27.1693611  19.0123444
  79.2365646  25.7936096  19.4458122  79.7425766  43.4011726  69.4252548
  79.6153488  44.1114922  68.7963715  80.6865616  43.2427292  69.4198761
  19.0155354  31.6191044   0.8073917  18.2082310  32.1037636   0.9794348
  19.3728962  31.4331074   1.6756830  37.8597755  19.1631641  78.2094574
  36.9180107  19.3189220  78.2805405  37.9686317  18.7375374  77.3590317
  13.3246374  43.6277122  23.1937027  13.1100674  44.4682083  23.5983715
  14.2039909  43.7514572  22.8364124  66.3118362  42.0079575  73.7243118
  66.5497437  41.7783661  74.6225967  65.4624252  42.4418106  73.8049393
  60.3684540   1.4692844   9.7843275  59.6334457   1.3741914   9.1785593
  59.9606171   1.6768153  10.6250601  30.8783264  55.3837929   3.3870466
  30.2782974  55.9804802   3.8344405  30.3279667  54.6487236   3.1168418
  53.7185555  40.7930489  19.1939735  54.1694908  40.4124756  19.9476662
  54.3235207  41.4569321  18.8630581  76.0472488  20.7305241  85.7480087
  75.9698944  19.7843323  85.6256714  75.2758179  20.9694500  86.2618637
  57.5705528  29.0306473  58.2540169  56.7455292  28.5455856  58.2708549
  57.4812012  29.6794910  58.9520493  82.9887238  33.8484688  71.5708008
  83.2244949  32.9483452  71.7953339  83.0419388  34.3239174  72.3998642
   0.5450664  68.9660873  10.1766701   0.6444768  69.3910294  11.0285931
  -0.3120961  69.2549286   9.8635044  20.3401814  41.0890236  88.6674042
  19.8468952  40.2791824  88.5367966  19.7035694  41.7000656  89.0383377
  27.9701290  13.1424837   7.6680880  28.1526165  12.4393749   7.0447354
  27.5459614  12.7043495   8.4058895  64.6160812  36.5063629  59.9709358
  64.6784592  37.3656845  60.3879623  64.3085098  36.6924210  59.0837975
  71.7186813   5.2385578   8.7242079  72.4714508   5.1342034   8.1422453
  70.9973145   5.4775681   8.1422005  55.5830956  66.8327255  83.0155945
  56.0579643  66.7401276  83.8415222  54.6885948  67.0514908  83.2768402
  63.4606209  12.5532007  84.9448700  64.3961639  12.5579262  85.1472855
  63.0692329  13.1218863  85.6079254  49.0435486   8.9848738  62.6082840
  49.4848328   8.3704357  63.1947708  48.7265778   9.6803722  63.1845169
  68.4459610  38.1114235  50.9448967  67.8843842  37.8130341  51.6603203
  69.1769867  38.5493011  51.3808937  76.5001831  68.2935410  62.6373177
  76.0938416  67.4933777  62.9702721  77.3480148  68.3336411  63.0798302
  39.7629509  38.6552773  52.9281044  40.1243172  38.1115417  53.6281013
  38.8734131  38.3246689  52.8029976  80.3816757  27.5580959  45.8882599
  79.7950821  27.4201202  45.1445541  80.3709335  26.7250309  46.3595543
   8.6700811  39.8451424  81.2763214   8.7319374  39.2166862  81.9956589
   8.7377024  39.3108482  80.4850006  44.3258820   5.7722473  18.3602943
  45.1557198   6.2315736  18.2313690  44.2334023   5.2219143  17.5825958
  60.3220520  49.0450935  71.1710815  59.6888809  49.1210365  70.4572525
  59.8656349  48.5390358  71.8432617  62.8965492  18.3706455   5.5086889
  61.9555054  18.2013588   5.5535202  63.1291580  18.6650715   6.3892784
  43.2359924  41.8928299  69.9930954  42.5570068  41.2219582  69.9213562
  43.4285355  42.1365128  69.0876770  32.0847206  18.5956497   7.5047374
  31.1909409  18.2645493   7.5928431  32.0818901  19.4235516   7.9851561
  70.8742065  31.7833805  26.6324825  70.0166931  31.6163139  27.0236320
  71.4278946  32.0401344  27.3698692  61.5150909  19.3131142  72.5437393
  62.2722893  19.4237061  73.1187592  61.7165451  18.5308475  72.0302124
  10.7297134  69.0235748  47.9354019  10.7497416  69.9471588  48.1860352
  10.9670954  68.5533142  48.7346115   2.5623863  56.7844696  56.0520058
   2.4270644  57.4835587  55.4123230   2.9969754  56.0889778  55.5583878
  18.0855427  15.4697227  85.1585236  18.3073597  14.9414845  85.9253311
  18.7710953  15.2674255  84.5218735  56.1998100  12.9954033   2.3090816
  57.1113358  13.2469425   2.1604872  56.0441132  13.1936817   3.2324858
  72.4744110  69.2674408  63.5979004  72.4985123  68.5246201  62.9946861
  72.8029556  68.9150620  64.4250183  34.2086182   3.9100349  61.5372505
  35.1607590   3.9563768  61.6239433  34.0358086   4.1931357  60.6393509
  72.6793747  47.9804611  75.3953857  71.8006668  48.3523216  75.3191299
  73.0130157  48.3224220  76.2248306  73.7330627  64.9505997  52.3860550
  74.1886444  64.6370850  51.6047859  74.2333908  65.7181015  52.6632729
   7.6712794  16.3893013   8.7299681   7.0194654  15.7456141   9.0075245
   7.7897048  16.9546661   9.4932308  57.2814064  18.1634922  87.4456024
  56.5178070  18.6399765  87.7713470  57.3931618  17.4399147  88.0621872
  38.7301102  47.2715416  67.4962311  38.2681923  48.0938721  67.6594315
  38.0556068  46.6801414  67.1622772  36.1428375  49.4134750  75.3900299
  36.1383133  48.9241447  74.5673752  36.9899025  49.8591537  75.3989639
  10.1178780  12.7512970  64.8464355  11.0412359  12.6262388  65.0655289
   9.9790754  12.2046928  64.0730057  32.6131897   8.7433863   1.5832705
  33.2195625   9.4200344   1.2821144  32.1706429   9.1360512   2.3357298
  21.4907112  53.4009933  70.7282791  21.2280350  53.7557983  71.5775986
  21.6697655  52.4764900  70.8999405  59.4447861  71.3849335  70.7715225
  59.8740387  70.6700134  71.2414780  59.8008919  72.1800613  71.1679993
  20.5332603  29.5467186  66.8387909  20.9860306  30.3302593  66.5268707
  19.6344185  29.8359985  66.9957352  74.3823624  39.1387062  29.0859699
  73.8066864  38.5820351  29.6103172  75.2607040  38.7941132  29.2472286
  14.5683012  23.2139397   5.5928926  14.3486595  23.5687656   6.4543376
  15.3325710  22.6594677   5.7500081  45.2157593  53.9235649  68.4480591
  45.6219635  54.3229637  69.2172852  45.6694374  53.0870628  68.3447800
  78.7202911  10.4733095   6.5604224  78.7662659   9.5503683   6.8100181
  77.8057251  10.7154837   6.7058597   9.6315632  27.3932552  27.3030434
   8.8113871  27.8276215  27.5372829   9.3595896  26.5644531  26.9088993
  18.3757725   6.5379276  65.7764740  17.8368683   6.2393861  66.5090637
  19.1697159   6.8803606  66.1871109  30.0527229   7.8452187  53.3171959
  30.1689758   7.0376234  52.8166924  30.8346004   7.9012046  53.8665276
  55.9082222  25.3875599  52.9200821  55.3326759  25.0820179  53.6212387
  56.7024956  24.8620701  53.0160980  73.5826263  61.3406029  56.7364349
  73.4005203  61.5954514  55.8319321  72.7424850  61.0262527  57.0704803
  53.0814667  12.2616882  48.9540596  52.6935883  11.5451975  48.4516411
  52.7871933  12.1110659  49.8523598  67.1629715   8.2837067  67.2347336
  67.6312027   7.6212182  67.7427673  67.6460800   8.3389378  66.4102325
  83.9911804  40.5732460   2.4927156  83.6111984  41.2276154   3.0789299
  83.8674545  39.7414551   2.9499297  80.8309937  68.7978821  55.5323639
  80.5262604  69.6602249  55.2499924  81.7710953  68.9102936  55.6730576
   4.2244468  37.9766197  54.7698555   3.3742120  38.3197098  55.0448494
   4.6488175  37.7071609  55.5844307  43.9919319  47.5103683   8.9160404
  43.5220261  47.5394783   8.0826283  44.7906189  47.0191345   8.7236443
   0.6667537  63.8302574  22.5384617   1.3324491  64.1056824  23.1687183
   0.8781782  62.9157028  22.3510551  10.8721781  52.0328522  69.0341034
  11.0659456  51.9465485  69.9675064  11.5676537  51.5400696  68.5985489
  66.6893921  36.6597824   1.4615544  66.8543701  36.1684189   0.6568354
  66.0817642  36.1107483   1.9571197  50.4423065  59.6090584  81.9015274
  50.1165237  60.1392059  81.1741791  50.0218849  59.9815979  82.6765747
  85.2050095  27.7864323  48.6278191  85.8902283  28.4356480  48.4689865
  84.6135712  27.8746681  47.8803940  77.9187469  24.9516068  30.2668419
  77.5715103  24.3022976  29.6552410  77.2536316  25.6396198  30.2888870
  61.1418877  38.3398132  16.0251904  61.7084045  39.0488319  15.7209177
  61.5751114  37.5411186  15.7241335  28.9822159  54.5959206  78.9644699
  28.9469852  54.9854050  79.8381348  28.0797062  54.3340874  78.7823868
  86.1617737  35.2304497  13.6302576  86.2554474  34.4985313  14.2399731
  87.0422592  35.5997086  13.5622406  63.2143631  56.6690254  11.4292545
  63.8629684  57.3728294  11.4435587  62.3860359  57.1104584  11.2415295
  68.4382324  54.5054359  67.1824493  67.6695023  54.3879051  67.7405548
  69.1425400  54.0528069  67.6464615  45.7079048  43.1964493  15.5943146
  45.4284554  42.5749779  14.9220705  46.5903587  43.4555244  15.3290081
  64.4334946  57.4235687   7.7852798  63.5148125  57.5009003   7.5278459
  64.9213333  57.7751579   7.0405455  28.1899605  69.3788147  82.0186234
  28.9861183  69.4741974  82.5413742  28.4819336  68.9516525  81.2133179
  78.9020233  52.5823975  60.6366463  79.7262344  52.1913261  60.9264221
  78.5088043  51.9193993  60.0691566  83.2921295  22.7327766  16.7148190
  83.7053604  21.9174442  16.9989090  83.7878418  23.4202175  17.1597080
   1.0142381  35.9201660  66.7063599   1.0706731  35.5848694  67.6011353
   0.4579524  36.6960106  66.7759552  20.4674416  36.9678917  88.6742935
  19.8772736  37.5645485  88.2139359  19.8900070  36.3060188  89.0547256
  80.6090927  37.8362503  56.8244743  80.3574829  36.9155922  56.7516060
  79.7951965  38.3190842  56.6806412  85.2585373  32.6410675  40.1369820
  85.7002258  31.8693771  39.7825203  85.6558685  33.3784027  39.6736298
  13.8004274  36.9390717  61.6411247  13.5231380  37.7009010  62.1500053
  13.2756300  36.9811020  60.8417168  19.1285419  56.0547791  49.2428932
  18.4325867  56.0148659  48.5869331  19.4706860  55.1617508  49.2837296
  73.9599152  27.2632198  40.9697533  74.0094528  27.9642773  41.6195946
  74.6403198  27.4792042  40.3320808   6.3870983  26.4208660   9.8518505
   5.7918925  26.7605190   9.1835709   5.8108926  26.1101151  10.5501719
  60.4305038  52.6002960  20.2722931  59.4844894  52.7239075  20.1947460
  60.8066521  53.2558594  19.6849461  58.9476128  59.0529518  12.9879637
  59.7657013  58.9127197  12.5112057  58.9978523  59.9604836  13.2881126
  44.1077499  33.9822540  78.1167755  44.6157227  33.5920334  78.8280563
  43.5420113  34.6218185  78.5493622  49.6963997  29.5810127  12.2716770
  49.6906776  30.4114342  11.7956533  50.0658493  29.7981243  13.1275997
  84.4960938  23.6719589  79.7495728  83.8231430  23.5807953  79.0749969
  84.8329468  22.7845764  79.8733139   1.8897059  65.7057114   7.2748232
   2.0406270  64.8247452   6.9322553   1.2356803  66.0827408   6.6863265
  21.9907875  11.4546795  55.2317696  21.5674038  10.6126537  55.0645256
  22.6169167  11.5545530  54.5146751  37.9759254   1.5375510  26.2528152
  38.6604233   1.2388303  25.6541004  37.8827400   0.8247485  26.8848457
  81.1445160  53.7760124  55.1100273  81.4814835  52.9492798  55.4552727
  80.4191971  54.0010185  55.6927071   7.5581598  21.3837700  16.8845749
   7.3866615  20.7581997  16.1806698   8.4266577  21.7343922  16.6870708
   2.7807536  50.3286438  64.4838867   3.2655268  50.3679886  65.3083191
   3.1496344  51.0361557  63.9551315  73.1514282  32.5838661  44.5953789
  73.4123993  32.8097610  43.7025795  73.8729553  32.8952713  45.1418686
  46.6964798   3.0756762  60.4014168  47.3182297   3.3383894  59.7227135
  47.1843987   2.4593737  60.9476242  51.2977142  27.9357243  47.1438828
  51.2768021  27.9796181  48.0998497  52.2173386  28.0749950  46.9177818
  79.9782639  12.2580643   4.8012962  79.5361862  12.8527498   5.4072266
  79.6471863  11.3903475   5.0330024   3.8544598  41.1634521  55.5503387
   4.3787203  41.2565689  56.3457718   3.1692629  40.5383301  55.7868996
  18.8643188   2.2232530  51.0547066  18.2831860   2.9214902  50.7530785
  19.7363205   2.6179767  51.0484772  46.4062195  67.4446640  60.2357750
  45.9596176  68.2149734  60.5870628  45.7085762  66.8026733  60.1039734
  14.4621553  69.4872284   4.6679516  14.3212557  68.7232971   4.1086788
  15.3906851  69.4482574   4.8971782  45.5016975  69.7344284  53.7500420
  44.6209450  69.5908127  53.4038048  45.8573914  70.4428558  53.2135315
   5.4290752  65.1617432  74.0332947   5.9384642  64.3615494  74.1615219
   4.9032359  64.9883881  73.2524796  35.5753479  20.7562332  10.4566708
  36.0094376  21.0124855  11.2703857  36.1793442  20.1362553  10.0479555
  59.7043343  44.4998055   4.9829626  60.6006241  44.5227165   4.6477513
  59.7875023  44.1359711   5.8644047  18.6322479  26.2021580   4.4417872
  18.8886509  26.7300377   5.1979833  18.3536701  25.3665218   4.8164043
  49.9389572  31.0646000  54.2499886  49.1105423  30.5979710  54.1394386
  50.0950661  31.0550480  55.1943245  82.2753220  54.2522011  63.0367317
  82.4004822  53.7680054  62.2205696  82.8367462  53.8042488  63.6694794
  70.4336014   2.4608159  67.6374283  70.9856567   2.0661285  68.3124771
  69.6599350   2.7678933  68.1100540  76.5318756  20.8127747  68.3780365
  76.5943375  21.2962208  69.2018204  76.7837524  21.4480591  67.7078094
  75.4657898  56.3913193  86.9089127  75.4175568  55.9328117  86.0700607
  75.0162201  57.2220535  86.7539978  41.6524658  32.3175240  72.9311218
  41.8903465  32.9711723  72.2735519  41.4636650  31.5269394  72.4255905
  48.6043625  18.2923450  58.0276070  47.8439178  18.8682156  58.1071548
  48.4049149  17.5517540  58.6003036  19.3089714  62.3065987  46.8346329
  19.0595531  62.4801025  47.7423325  20.1236019  61.8084145  46.9011307
  19.1326408  31.6173172  78.4289093  18.4732456  31.1506405  78.9423676
  19.2147808  31.1064758  77.6235962  44.2357750  39.7094383  50.0755730
  44.0071335  40.4662437  49.5359421  44.4989357  39.0375595  49.4466438
  66.5266495  19.3420734  36.6107063  67.0089264  20.0328331  37.0651245
  66.3329697  18.6975956  37.2914162  40.1783371  22.1147518  72.1370850
  39.4812393  21.5629635  71.7823792  39.8623734  23.0096378  72.0122833
  66.6660690  59.8470840  34.3315086  65.8116150  59.6979942  33.9266548
  67.0208588  60.6065216  33.8693275  50.5447426   2.4783335  49.1015587
  50.9025993   2.3085115  49.9729538  50.3528709   3.4161053  49.1000137
  55.9853783  13.5336523  65.5427628  55.3281212  13.6383886  66.2307129
  55.5997963  12.9001532  64.9375839  77.8446579  35.3503189  83.5555038
  78.5504456  35.1921616  84.1824722  77.3912888  34.5099869  83.4882278
  32.4126778  15.5220499  78.9872971  31.5342999  15.2974644  78.6802979
  32.2732773  16.2331047  79.6127548  66.9214172  42.0998306  10.5447388
  66.3407516  42.2905312  11.2814131  66.6571274  41.2280312  10.2508860
   8.3633404   0.1081762  46.1711273   9.1579466   0.3435997  45.6921654
   7.7490687  -0.1724360  45.4927788  76.7254791  54.9294548  19.5802021
  77.0454178  54.5510063  20.3991337  77.2506866  54.5076637  18.9001427
  34.8965797  35.1884499  80.9024429  34.7815514  35.4941750  80.0027008
  35.3120728  34.3308067  80.8127136  80.3810501  56.8461571  60.8662415
  81.2829895  56.6442833  60.6172523  80.0717316  57.4416924  60.1836815
  32.2044907  54.6565399  46.6749687  32.8644905  54.8194313  46.0010986
  32.2935257  53.7252083  46.8772583   3.8293986  56.7157593  46.3363953
   4.1971974  55.8611870  46.5614700   4.1884665  57.3117104  46.9937744
  40.9792557   1.4435550  17.2244301  41.5572319   1.8014802  17.8982716
  41.3897629   0.6167381  16.9712734  26.1041870  41.4740219  70.6772614
  25.9850292  40.6546669  71.1575623  26.1585655  41.2078819  69.7594147
  58.9364204  20.4442577  88.3370209  59.7326813  20.7691326  87.9167099
  58.3535004  20.2263565  87.6097260  48.5124626  41.2798462  12.8360205
  48.7197037  42.0817490  12.3561926  48.8653717  40.5765877  12.2909355
  39.3645172  27.8093624  61.8843422  38.7459946  28.1918335  62.5067406
  40.1545486  28.3423920  61.9735527  49.0293274  16.6115685  55.5001793
  48.6367912  17.2494850  56.0961723  49.9218788  16.4966755  55.8263397
   1.1332784  58.8418236  33.7362785   1.1318414  59.3663177  32.9355698
   2.0603683  58.7163048  33.9387169  19.6485691  46.1234245  70.8845825
  20.1723747  46.5839691  71.5401382  18.7507401  46.4109993  71.0502167
  49.5533829  24.8368359  22.8631535  49.8049202  25.7450886  23.0305977
  48.7451477  24.9020290  22.3544922  27.9936619  13.7696533  80.6559982
  27.3645210  13.6268930  81.3631287  27.5422783  14.3556795  80.0484924
  31.7848797  48.6773529  14.2397108  32.7008057  48.4303627  14.1120186
  31.7547855  49.6082153  14.0187483  35.8202400  21.5281868  82.8538132
  34.9855423  21.3661079  83.2934036  36.0390625  20.6932812  82.4399490
  61.3567390  18.0793953  41.4981995  61.2241440  17.2086067  41.1235275
  61.8654289  18.5494823  40.8375282  50.3718643  27.8190079  30.9678230
  49.7548523  27.7300835  31.6941986  49.9538460  27.3577881  30.2406578
  52.2817001  60.8422852  75.7112885  53.0094261  61.3483582  75.3499908
  52.6981087  60.2037659  76.2901917  47.4215775  22.3259621   1.4724956
  47.4478798  21.7882195   2.2639334  47.2732925  21.7007961   0.7629802
  16.4364815  53.2014580  40.5467567  17.2393074  53.6663780  40.3110619
  16.7402229  52.3862877  40.9460983  40.0800209  66.5047455  67.0003281
  40.7502556  65.8935776  67.3060989  39.9433975  66.2707367  66.0822830
  60.1524315  45.2008018  19.8352547  59.5860023  45.7880936  19.3347759
  59.5927505  44.4550362  20.0516376  53.1955948   8.6834908  28.2077560
  52.9412041   8.4322443  27.3198414  52.5304337   9.3168354  28.4773178
  77.9540634  18.8894138  58.8583527  78.1441879  18.1563911  59.4438095
  78.5053177  19.6025162  59.1805840  69.1197281  56.9751396  31.9794827
  69.0314713  56.1346779  31.5299625  70.0634918  57.1317329  32.0114136
  31.1899109  59.4568367  60.3181419  31.7924194  60.1998749  60.3514595
  30.9331684  59.3977394  59.3979149  28.4585266  13.6661072  58.3650627
  28.1136646  13.5193148  57.4842949  28.3993549  14.6131811  58.4906845
  66.9518967  57.4657707  73.4879913  67.2418213  57.5566177  72.5802917
  67.0803604  58.3346214  73.8685608  63.9019089  29.4980927  64.6495972
  63.1152306  29.3820229  65.1824188  63.6529655  29.1788483  63.7822189
  76.3572693  14.9515181  82.2963409  77.2580643  15.2670403  82.3687744
  75.8458786  15.7330227  82.0866623   6.1174636  46.0953178  33.9694862
   6.3068495  45.1613617  34.0594521   5.9457412  46.2160072  33.0355835
  60.5649910  48.9169273  63.3205986  61.0706978  49.6256638  62.9228783
  61.2078590  48.2271004  63.4851875  62.6799622  29.7881355  52.8064804
  62.3904495  28.9159908  52.5385628  62.7564316  30.2772808  51.9872627
  52.1699104  69.2403183  40.2607651  52.4451942  68.6929474  39.5253525
  52.8879356  69.8622894  40.3783493  77.6079941  33.4338455  88.7796402
  77.5011749  32.8857002  88.0022354  78.5198517  33.7229385  88.7454147
  78.2546082  13.3583031  25.7761230  78.9656219  13.1007309  25.1893158
  78.3833160  12.8217487  26.5582848  71.8465347  36.3005638  46.7062798
  72.6415863  36.2502556  47.2369308  72.1620865  36.4576454  45.8163452
  52.3299866  33.0277405  60.5699692  52.0932770  33.7736778  61.1211319
  52.2285042  32.2662621  61.1410103  61.6061974  28.8499470   2.5851173
  61.8746567  29.7627659   2.4806061  61.6679115  28.6884308   3.5265710
   9.3815546  59.9177284  25.8833237   8.4473190  59.7226448  25.8099937
   9.8153620  59.1698799  25.4725170  37.9401855  66.2483521  82.2693024
  37.2605400  65.5794296  82.3520737  38.4675026  65.9629898  81.5231552
  67.6684799  29.7244740   4.3463154  68.1536407  30.5495911   4.3403320
  67.1522675  29.7443047   3.5404861  83.0154419   6.6133933   2.2489507
  82.6389236   6.9356718   3.0678535  82.8447113   7.3108578   1.6160016
  81.3914566   8.3932953  43.6499863  80.5228577   8.4279919  44.0506821
  81.4779587   7.4906235  43.3434982  46.7016068  10.0485849  10.3320169
  47.1436386   9.7410240  11.1233740  46.5886536   9.2612991   9.7994261
  78.2738571   6.9491081  67.6097946  78.8561478   6.5004201  66.9967270
  78.7331848   6.9099641  68.4486694  65.6346130  18.3305492  61.0259018
  65.2439728  18.9490547  60.4085846  65.9778976  18.8799820  61.7305412
  52.0431633  41.1497955  52.4464073  51.1178017  41.3943481  52.4350815
  52.0779533  40.3217850  51.9674301  58.5462265  70.2655487  54.8322754
  58.8536568  70.7873154  55.5735397  58.5008659  70.8861771  54.1049500
  24.5845585  64.1867905  85.0594864  24.6761246  65.1132812  85.2818756
  23.7653961  64.1385880  84.5666580  30.2175255  49.3436241  86.2331314
  30.7636662  50.0064850  86.6557083  30.8304214  48.8250923  85.7118683
  47.9867249  35.5537796  79.0504074  47.7314186  36.0533905  78.2748795
  47.8449860  36.1561050  79.7807159   6.5037031  20.1726837  46.5548935
   5.5987329  19.8869801  46.4298592   7.0185556  19.5874767  45.9992943
  43.4711761  66.3647537  87.6146317  42.7050056  66.8113174  87.9748993
  44.1826248  66.9986343  87.7055588  69.7167206  19.0720768  17.2973442
  68.9752274  18.6273079  17.7079525  70.0118332  19.7022953  17.9545841
  79.8341751  19.2619781  49.4341583  78.9410553  19.4660931  49.1568565
  80.3584976  19.3519382  48.6384048  68.2063828  55.7575836  39.3471756
  68.2623138  54.8823624  39.7307014  67.4128571  55.7344666  38.8123703
  33.6485481  68.3351517  66.0596390  34.0175362  68.5088348  65.1936646
  33.7129250  67.3855515  66.1613617  60.2755051  66.8038483   5.5477915
  61.0570068  66.3130798   5.2935667  59.6260338  66.5824890   4.8803954
  60.8354721  29.6297512  57.9570656  61.4292526  29.8558865  58.6729736
  60.4432983  30.4638081  57.6986465  85.7999649  67.9222794  17.5239029
  85.7981415  67.5065308  16.6617069  85.2134933  67.3807831  18.0521584
  24.3783245   6.0231085  33.1445198  24.5261726   5.8855023  32.2088737
  24.3079433   6.9730582  33.2387199  69.6607285  58.8270340  82.1361847
  69.1966858  57.9910011  82.1803665  69.0305710  59.4301987  81.7420654
  37.3839607   5.2813954  17.9681511  37.0074768   4.9769359  18.7938614
  36.8450508   4.8693538  17.2928524  61.4848595  54.9703293   2.5446720
  61.2602654  54.1215782   2.9260006  61.9519424  54.7542419   1.7375975
  45.0201797  45.1790962  85.4690781  44.6022835  45.6520004  86.1887741
  45.9295235  45.0727730  85.7484055  30.3540764  65.2847290  87.4508972
  30.0234470  65.8592148  88.1414719  30.0037136  65.6568756  86.6415863
  39.6191025  46.7753067   4.9819059  38.7156639  46.6426010   5.2689958
  39.5469437  46.9749146   4.0485344   2.6740401  45.6240807  30.2062607
   3.5320814  45.5077820  30.6142693   2.6482162  46.5493393  29.9624062
  71.8545837   1.9886900   6.2690282  71.0167542   2.4373162   6.1549926
  72.0979538   2.1632569   7.1781654  28.7035923  14.0873365  85.1135941
  28.1050549  13.7142715  84.4664383  28.3890133  14.9820538  85.2430191
  77.3627472  35.0906181  66.2303772  77.7488251  34.4816170  66.8599014
  76.7184372  35.5836601  66.7383118  83.5114899  27.0879555  45.8462868
  84.3297424  27.4417877  45.4977264  82.8272629  27.5125904  45.3288422
  54.0589409  71.1641006  24.4284401  53.9626007  71.7328186  23.6645603
  54.5422974  71.6941299  25.0622139  68.1713104   9.7824821  72.9168015
  67.8230743   8.9685373  73.2807465  67.6354599   9.9464054  72.1407700
  35.6675301  62.9015884  61.9998703  34.8403473  62.4292831  61.9053993
  36.0036774  62.6275978  62.8531952  79.8051071  59.1150436  40.8583488
  79.0378036  58.7315941  40.4335709  80.5285263  58.5389366  40.6113625
  81.0466690  58.9283829   4.5182910  81.5031586  58.1104546   4.7153692
  81.0479355  58.9790726   3.5624349  31.8005428  25.4794369   3.0992928
  31.1751060  24.7698841   2.9523385  32.6447258  25.0385590   3.1952703
  18.3764305  54.1386833  59.6558113  19.1174774  54.6778183  59.3793755
  17.9507790  54.6509895  60.3432655   9.6623688  42.9985046  29.2210217
   9.4144630  42.2680893  29.7878265   8.8295212  43.3842621  28.9493866
  31.7795601  59.7650795  82.2126312  32.6844673  59.7659302  82.5246811
  31.6550579  60.6364784  81.8366089  59.9281502   6.3151398  42.7111855
  59.4247742   6.1430540  43.5069466  60.8402100   6.1886625  42.9726753
  56.7477837  57.7943420  16.3103790  57.4755287  57.3735085  16.7681122
  56.1385727  57.0805206  16.1218262  15.4246264   1.7614536  31.3656425
  15.8149986   1.1665194  30.7254124  16.1422195   1.9764007  31.9615383
   0.3141729  18.8716393  28.1220341  -0.4837398  18.5764236  27.6833820
   1.0257485  18.5132656  27.5915051  15.9570169  28.0343628  85.8150482
  15.6898661  28.9235458  85.5822067  16.8731594  28.1207867  86.0785751
   2.3929415   9.2715864   7.1662493   2.8872817   9.2443056   7.9854655
   1.4989263   9.0402746   7.4181685  78.6037140  24.9365234  70.6309967
  78.1087036  24.6833439  71.4101562  78.2293549  24.4070892  69.9268799
  43.0123596  35.1889496  10.0687857  43.4624634  35.9191856  10.4935188
  43.3179207  34.4131851  10.5389509  84.7081909  25.3713703  61.2343750
  84.1136322  26.1049709  61.3910789  85.2622299  25.3412724  62.0143585
  51.6813431  32.4687195  26.5158978  50.9201660  32.6743317  25.9731617
  51.4843559  31.6095657  26.8891048  17.7186298  20.4634380  87.2065659
  17.5271549  19.5277748  87.1425095  16.9032574  20.8537769  87.5212708
  60.2763481  27.9608040  18.6074829  60.3072777  28.7605591  18.0824432
  59.3570404  27.8755722  18.8601532  17.9264030  25.7727165  76.5956802
  18.6473484  25.4960918  76.0300446  17.9332218  26.7284031  76.5423126
  38.3961220  35.8097725  80.3874283  37.7245483  35.1481934  80.5533524
  38.5767136  36.1887360  81.2476654  27.1828690  71.3468857  87.3816452
  27.2324295  71.8701477  88.1816330  27.7873249  70.6202545  87.5328979
  53.4206581  25.8921757  74.5335464  52.9962196  25.5494328  75.3200684
  52.9933090  25.4322357  73.8110123  61.5382156  60.5615578  69.8302765
  62.3811531  60.6495590  70.2751846  61.6000977  59.7287636  69.3624573
   7.6503687  48.8732910  79.6514435   6.7296419  48.9928360  79.4186249
   7.7056785  47.9660530  79.9515991  52.7383461  26.1722374   8.0879154
  53.1257210  26.3346748   8.9480238  51.8276520  26.4526863   8.1785622
  54.5976830  33.1315918  22.6128597  53.8351555  33.4695892  22.1432438
  54.4207993  33.3314400  23.5321007   8.9349327  16.4351978   6.4135060
   9.7643194  16.1578712   6.8026571   8.3540354  16.5741978   7.1614833
  16.7680702  49.0084877  15.3900909  16.0941639  48.6194153  14.8326788
  17.4726830  49.2427101  14.7860279  53.3030128  33.0925522  28.6795063
  52.7232018  32.7418709  28.0034332  54.1678352  32.7491379  28.4550571
  60.8765221  54.6858177  79.3293228  60.7450752  55.0163422  80.2179794
  59.9919662  54.5293617  78.9986877   9.5825634  26.8965988  54.6881714
  10.2678919  27.5575771  54.5898628   9.5216923  26.7533321  55.6326294
  73.4180298  31.3161526  54.9886742  72.7992249  31.3981075  54.2630043
  73.5734787  30.3748093  55.0657349  54.7013702   0.7908675  76.2160873
  55.4494362   1.2737534  75.8647308  53.9463463   1.3478929  76.0266266
  56.4241447  15.0960445   6.2918921  55.8378029  14.5663805   5.7516232
  56.0048523  15.1155596   7.1521521  12.2458153  69.4492645  33.3102989
  11.4184685  69.8285522  33.0138741  12.1843500  69.4572525  34.2654915
   3.5543051   7.8657613  24.9762802   2.8122628   8.2841978  25.4127617
   4.2877245   7.9901285  25.5786591  22.7827892   6.0162487  22.7958775
  23.7321148   6.1348667  22.8265991  22.5920086   5.4223118  23.5218773
  67.4130707  61.1211166  36.7021980  67.7710114  61.9054489  36.2863503
  67.3268661  60.4895515  35.9881096   2.8666570  56.3976212  22.8274040
   3.7885134  56.3777962  23.0843468   2.5788984  57.2863617  23.0361290
  46.3327446  14.7117949  72.7327728  45.7514687  14.7679291  73.4911957
  47.2089577  14.8521004  73.0916595  73.1303101  53.6351509  67.0981445
  72.9109650  54.4840088  67.4822693  72.5719070  53.5713997  66.3233185
  85.9198914  40.6626320  44.1389275  85.4486694  41.4120865  44.5029297
  86.1526413  40.9342842  43.2510834  86.5224838  26.4241409  20.5806789
  86.0775528  26.9676590  21.2309513  87.1306763  25.8895302  21.0910988
  38.2515640  38.1127396  15.0955362  37.6619110  38.3851357  15.7986317
  37.8365631  37.3348770  14.7227879  65.1084518  66.9874420  30.7667122
  65.9378586  67.2735138  31.1494312  65.0249634  66.0718307  31.0330067
  63.4789276  33.8173904   1.0379457  63.5784950  34.0677109   0.1194364
  63.8733139  34.5394936   1.5270892  75.9320297  69.0456085  24.9708443
  76.7451859  69.5291672  24.8253098  76.1500854  68.1393204  24.7533092
  86.0599594  22.5572491  40.3900261  86.5670776  22.1445694  41.0891418
  86.2126083  22.0033703  39.6244240  69.9029617  42.5693588  49.3476982
  69.5518036  42.6559296  48.4614563  70.7438049  42.1273499  49.2300339
  39.5358200  48.4208641  27.9939251  39.0782776  49.1207542  27.5280495
  40.3641663  48.8159103  28.2659798   5.2982759  55.2895203  20.1340752
   5.3032799  54.8747978  19.2713985   6.2089376  55.5441513  20.2827015
  83.6669312  65.7826309  56.5925636  83.1336212  66.1315231  57.3067665
  84.5083084  65.5772552  57.0001602  11.5871353  12.1663246  84.5375137
  11.6135645  12.6555777  85.3598099  12.0174103  11.3354235  84.7392578
  58.1634903  18.6407871  57.1343346  57.2561455  18.9245605  57.2458153
  58.0979500  17.8042927  56.6736679  23.0419655  51.2410278  12.0096169
  22.2993202  51.6941605  12.4088430  22.7424622  51.0214996  11.1273832
  71.1540298  57.9729958  53.9345207  71.8564758  58.5963364  53.7494431
  70.8835449  58.1758919  54.8300095  59.3911209  21.2766075  53.1696434
  59.8733864  20.7940540  52.4982300  58.5165176  21.3937111  52.7987213
  28.0776882  69.4683914  78.1106033  28.5661583  69.1254959  78.8589706
  27.7664127  68.6889877  77.6503143  10.0552511  54.3846397  41.2361603
  10.7844963  53.9397049  40.8043404   9.3332701  54.3236504  40.6106567
  37.7347641  42.4968338  71.2419662  37.1421394  42.1698227  70.5651474
  37.3330345  42.2208595  72.0657883  73.7506027  56.3873253  59.8342247
  74.6513290  56.1090050  59.9999313  73.2536774  55.5709724  59.7806511
  49.0116692  47.2743492  79.7071533  49.9661217  47.2066307  79.6812439
  48.7975502  47.2850151  80.6400375  66.0767212  23.7936077  20.5139313
  65.8514862  24.2373123  21.3316288  65.7238922  24.3609905  19.8284950
  25.7275105  50.9176216  71.7166672  26.5294552  50.6449165  72.1624832
  25.8161507  51.8661079  71.6231537  54.5170517  54.6908188  56.0092125
  54.3656235  55.6254120  56.1500397  54.7880745  54.3603630  56.8657036
  75.7114029  14.5255547  12.8824072  75.0862045  14.6933279  13.5875378
  75.7955399  15.3659220  12.4319248  18.7717495  43.4141922   0.1538348
  18.8580189  43.6535759   1.0765942  17.8428459  43.2103577   0.0451063
  22.0446377  34.2614746  16.5543747  21.6140289  34.9328728  16.0251923
  21.4093132  34.0521889  17.2390575  39.6307373  29.1771259  17.0447617
  39.4098663  30.0945988  16.8844757  39.6319046  28.7757130  16.1757965
   1.6405424  27.4361248  68.5347443   2.2963104  27.0997372  69.1455154
   2.0979433  28.1192970  68.0445480  60.7402534  18.1212139  64.8026352
  60.4540672  17.3197861  64.3644104  61.6045761  18.3009377  64.4326630
  34.6902008  41.8251381  78.3061981  33.9954147  42.1239967  78.8928757
  34.7388916  40.8807030  78.4541855  38.7337151  61.2843552  19.7175293
  37.8034248  61.2281227  19.4992962  39.1801796  61.2598190  18.8711834
  70.7605667  48.1464767  87.5137329  70.3652954  48.7872391  88.1048431
  70.0586929  47.9178658  86.9043503  49.1327744  55.1410942  69.2772980
  48.9097595  55.6402855  70.0629883  49.7812805  55.6816025  68.8261642
  46.1182327  17.4260101  62.2089844  45.8623161  16.5280037  61.9984512
  45.4376183  17.9686279  61.8107910  48.2657509  54.0016747  77.9056244
  48.0304871  54.0347633  76.9783783  47.4418106  54.1567879  78.3674622
  71.9158630  54.2631836  64.6940918  72.2220688  55.1264572  64.4161987
  71.7290802  53.8008461  63.8770332  70.3825531  50.3407822  37.9353981
  69.6723862  50.4002914  37.2963676  70.9271393  51.1082726  37.7604218
  22.6661510  47.2579842  17.5197697  21.9970551  47.0102768  16.8816586
  23.2561951  47.8359489  17.0359974  84.5643387  35.8438339  53.6090736
  84.8593216  36.3758011  54.3481445  83.8935394  35.2702026  53.9794922
  68.5903702  70.4350357  76.9676666  67.8071442  69.9635239  76.6839828
  69.1672974  70.4223938  76.2039795   8.9349556  46.7895508   9.2632885
   9.6347523  47.3542595   8.9352350   9.2617846  45.9000778   9.1281881
  24.5418301  63.1327515  52.4008636  24.9775181  63.7160149  51.7794075
  23.7752304  62.8086128  51.9281158  60.7956963  40.6571579  19.2448063
  60.4214821  40.6625023  20.1258087  60.0376205  40.7043953  18.6622925
  80.0683899  38.6265259   4.9910307  80.9705048  38.3131485   5.0559449
  79.8044128  38.7859039   5.8972020   2.6272349  25.4549923  32.9148674
   1.8427266  25.9970226  32.8313065   3.0728312  25.7964783  33.6901474
   1.8377116  67.0129318  30.6797009   1.0480399  67.2612991  30.1991158
   2.5259123  67.5678482  30.3127174   5.7156820  59.3947258  68.0800552
   5.1813922  59.0187225  67.3804932   6.0909753  60.1868286  67.6953964
  69.8442688  58.1079979   9.8496313  68.9942322  57.8794861  10.2257233
  70.3408585  57.2898369   9.8653088   7.6090183  29.1422596  30.1714096
   7.4890671  28.2251511  29.9249229   8.4532194  29.1606674  30.6222057
  54.9498253  54.9856606  13.7737894  55.0240898  54.3710861  14.5038691
  54.2503777  55.5845985  14.0350933  24.1205177  48.5835228  60.7598343
  23.2405529  48.9465561  60.8603554  24.6948719  49.3490562  60.7423096
  32.8922234  17.9032421  75.9088135  33.2390900  18.1714745  75.0579529
  32.5622406  18.7126694  76.2989044  17.8373623  32.1792297  15.9545870
  18.6134205  31.6258373  16.0424747  18.0969868  32.8588028  15.3324871
  55.2204819  32.4527969   2.0978868  55.1352310  31.5569878   1.7715560
  56.1152420  32.7061844   1.8711050  41.0104179  22.7105618   8.5269365
  41.9223557  22.4467812   8.6494989  40.5025177  22.0264893   8.9631882
  11.3942156  47.9993935  70.6957092  10.4638262  47.7948303  70.6021118
  11.4358387  48.5848122  71.4518738   5.6393509  18.0544128  16.8560429
   6.3375196  17.7949505  16.2548180   6.0982080  18.3553905  17.6403217
  67.7109146  41.6525917   4.3325982  67.5087357  42.5841866   4.2460709
  68.2835388  41.4617691   3.5896873  81.4892731   0.5320327  76.4869919
  81.4463806   1.4492399  76.2165833  82.1300278   0.5216710  77.1980209
  40.1571007  24.4020214  70.1072540  40.7065659  24.0038872  69.4321213
  39.3171005  24.5533295  69.6739655  58.4103432   7.8562326  69.4069748
  58.1881866   8.1506672  70.2902527  57.9970970   8.4981079  68.8295212
  53.4051285   0.0937217  19.5664635  52.4753456   0.1482666  19.3456459
  53.4500389   0.3663334  20.4829216  37.5147057  48.7449760  21.1630058
  36.8949814  48.2223854  21.6719990  37.7546997  48.1821289  20.4269085
  40.1292572  41.4519081  52.2580032  39.9029579  40.5735397  52.5637627
  40.8470955  41.3129349  51.6402435   6.2842808   1.1009631  57.3286552
   6.4749556   0.2136168  57.0245323   6.4631062   1.6575311  56.5707092
  54.3529205  43.7573700  69.9454269  54.4886703  44.5436401  69.4166718
  54.8003845  43.0631676  69.4616013  78.5993805  62.6508904  64.4656906
  79.4919052  62.5361137  64.7919769  78.1924820  61.7912369  64.5736847
  85.0056381  24.5075607  25.9400692  85.8029480  25.0138607  25.7845268
  85.2311707  23.9215183  26.6625099  74.0366516  36.9457970  63.6610603
  73.9749298  37.3633766  64.5201569  73.4168320  36.2176208  63.7036095
  57.8890686   9.7179604  32.9609871  57.9026375  10.3391943  33.6890755
  57.3303680   9.0032320  33.2663536  43.8056183  60.9546089  34.3505592
  43.7852554  60.3110504  35.0588341  43.5338898  60.4650307  33.5742149
  32.3174515  22.5691071  74.6377029  33.0910835  22.7032070  75.1851883
  32.6524887  22.1392174  73.8508224   0.6903203  42.3407326  84.7283249
   0.2564907  42.2436180  83.8806305   0.0304483  42.7474937  85.2898865
  46.4233398  51.1201019  47.3459816  45.9332199  50.8684578  46.5632362
  47.2368965  50.6188087  47.2906227  29.0121651  23.4576664  54.3911285
  28.5726280  24.1433697  53.8882866  29.5224152  23.9318428  55.0476570
  13.2389107  15.9219522  65.6690979  13.2599306  16.7148762  66.2048798
  14.1601744  15.7053699  65.5255814  44.8581352  48.8459892  40.9241524
  44.7441597  48.0424004  41.4315796  44.0754547  48.8957596  40.3753624
  72.9179611  46.4090881  50.9212646  72.3177567  45.7470970  51.2644157
  73.2512054  46.0313492  50.1073265  80.4883499  28.1068649  54.3244057
  81.3744736  28.0046787  53.9771729  79.9742508  28.4205017  53.5803871
  84.1169968  29.0431118   3.8287261  83.5223465  29.2672768   4.5445290
  84.7693481  29.7435856   3.8310144  66.8927002  16.2745533  77.6336441
  66.5241165  15.4293652  77.8906174  66.1376038  16.8609924  77.5872421
  36.3423576  40.1348724  53.0296593  36.1124344  39.2109451  53.1282806
  36.9147453  40.1587105  52.2628250  67.8885880  52.2077751  56.1954231
  68.2440872  52.5728722  55.3851395  68.0258636  51.2640305  56.1133575
  61.8127632  65.9397583  66.4010315  61.7747421  66.5199814  67.1613770
  61.9007950  66.5305481  65.6530685  44.8896065  68.6836319  87.6417313
  45.4531212  68.6808777  88.4154739  44.9208794  69.5866776  87.3258667
  35.7572784  54.1764793  37.7852859  36.4474564  54.7351227  38.1427879
  35.3345833  54.7159424  37.1170502  61.6431007  49.5356331  16.3212757
  61.6872635  48.7671623  16.8902531  61.5643234  50.2753944  16.9235897
  62.2805519  54.7336464  36.6315880  61.4110069  55.0377083  36.3714600
  62.7502022  55.5312920  36.8753548  18.6227913   6.1338549   2.1837356
  19.5670700   6.0752616   2.3291237  18.4719620   5.6305470   1.3836335
  82.0111389  33.5303268  13.9212456  82.5990067  33.1327400  14.5635595
  81.2703857  33.8469086  14.4382448  54.1780396  54.8070183   8.7325830
  54.2184982  54.5782356   7.8040071  54.2267838  55.7628822   8.7460957
  71.6878281   7.6505709  58.2575378  71.6766052   7.1475096  57.4432678
  72.4701157   7.3452625  58.7169304  85.1515503  23.3954239  51.7075043
  84.4569244  23.6981373  52.2923851  85.6460495  24.1865311  51.4933586
  82.6976700  65.4154739  33.1771851  83.0807724  66.2801514  33.0295486
  83.2265549  64.8244934  32.6412277  66.8918381  62.0489731  44.0187874
  67.6750031  62.4323540  44.4136314  66.3477859  61.7946892  44.7641602
  27.2678089  57.2262230  49.2196846  26.4028969  57.6307487  49.1524696
  27.7179985  57.7341766  49.8946266  64.8348999  45.3171120  87.1173325
  65.6210175  45.8419647  86.9663696  64.2072525  45.9303665  87.4997101
  53.0730286  12.7048845   8.7458477  52.3617249  13.1654921   8.3007383
  53.0664864  13.0571146   9.6358614  74.2869492  19.6959553  70.8050919
  75.0653763  19.1394730  70.8296738  74.5240250  20.4626236  71.3268585
  44.2086830  60.8347054  73.9440079  43.7711868  61.1841965  73.1676788
  45.0524712  61.2860680  73.9670029  69.3174973  48.0990067  61.9119682
  69.4855881  47.8268356  61.0098038  70.0136871  47.6838188  62.4210587
  32.0329361  25.6959953  63.7557907  32.1761627  25.2794266  64.6056061
  32.0786057  26.6345100  63.9383621  38.0058289   3.5522327  82.4793777
  37.1288719   3.4710879  82.8543320  37.8628387   3.9460707  81.6187515
  57.2259483  11.9847918  68.5499496  57.5416756  12.6461954  67.9342422
  56.9236526  12.4869442  69.3067093  70.4770737  31.0017319  23.8733749
  70.1108017  30.1330280  24.0389938  70.7032928  31.3357525  24.7414112
  13.4951153  52.9419060  56.8358650  14.0979042  52.1993866  56.8750954
  13.1572695  53.0235176  57.7277336  18.2385902  56.0100098  37.2346001
  18.3449020  55.0716782  37.0782013  19.0427589  56.2706070  37.6836357
  19.8331490  29.3197384  57.4244690  20.3054466  29.9839840  57.9264069
  19.8769932  29.6275158  56.5191612  28.2002277  45.6328850  49.9354515
  28.4892750  46.2319870  50.6237526  28.1037579  46.1867752  49.1607704
  59.5077553  38.1541176  33.2656555  58.9959221  37.3617249  33.1032677
  59.9657249  37.9791451  34.0877762   1.3092661  16.7167568  13.5369949
   0.3610443  16.6024551  13.4734154   1.4809129  17.5463791  13.0914669
  55.5708771  13.9311352  42.6937370  54.6889915  13.7913971  43.0386810
  55.6660423  13.2725935  42.0056267  30.6160431  60.7050552  44.3530655
  31.3223171  60.0614777  44.4097633  31.0644073  61.5498047  44.3130646
  72.1799088  60.7283707   5.9764271  73.0875397  60.5467033   5.7326388
  71.7080307  59.9244118   5.7591381  72.1320343   6.9812551  15.2789936
  71.5899048   6.1940889  15.3309107  72.4834900   7.0887432  16.1628246
  67.0951538  31.2315483  78.9078140  67.5676804  30.4832039  78.5432205
  66.9038239  30.9772739  79.8105698  41.6387253  30.5766983  57.5954018
  41.1844978  30.8000793  56.7829933  41.0610428  30.8963261  58.2884750
  63.4050522  43.1486244  79.7953949  63.8695869  43.6174316  79.1021042
  62.5625267  43.5975380  79.8651123  27.9694195  48.8995361  58.9983940
  27.5294628  48.1820564  59.4543533  27.4471397  49.0371170  58.2081261
  60.0808945  68.4726181  57.6740112  59.4933052  68.8106079  58.3498344
  59.9144859  69.0279770  56.9123535  78.7206268  48.0404510  66.1596680
  79.0093536  48.8970566  66.4744644  79.1120987  47.9605141  65.2898483
  45.8761253  23.0967464  76.8837051  45.1243935  22.8513031  76.3443604
  46.4695549  22.3482132  76.8223038  84.6480865  58.8812675  69.7077713
  84.9530792  58.8117256  68.8031311  84.2104263  58.0471268  69.8777695
  74.9025726  26.6176224  66.7770615  75.4683685  26.7479954  66.0160751
  75.2433472  27.2231369  67.4354324  37.9339790   5.3243728  80.0076981
  38.0759811   6.2464514  79.7936020  38.8149300   4.9586587  80.0877686
  82.1463623   0.8399375   8.3096409  82.3659134   1.7699959   8.2546835
  82.3699417   0.4897033   7.4473305  82.3279114  60.1138458  45.8868408
  81.6301270  60.0053520  45.2406540  81.8815155  60.4372635  46.6693726
  34.1811867  60.7969208   8.5002241  33.4378204  60.2364197   8.2777777
  34.8780594  60.1863251   8.7405825  17.8367844  24.4616318  10.5471382
  18.3928432  24.0411358  11.2030449  18.0810280  24.0426121   9.7219114
  59.2000198   6.3689981  82.3490448  58.8028450   6.8086376  81.5972443
  59.8418007   5.7713385  81.9654388  40.8225594  55.5536728  64.8088684
  40.3785286  56.3988571  64.8776703  40.5905342  55.2314186  63.9379158
  85.9456787  27.4121952  18.1275425  85.1568832  26.9754124  17.8062172
  85.9524460  27.2331390  19.0678215  57.5730133  62.8180923  52.5050774
  58.4673347  62.9839630  52.2069054  57.6377831  62.0145912  53.0212402
  34.6239548  65.4008484  38.9672089  34.1494675  64.7490082  39.4831505
  34.2089844  66.2333450  39.1930046  82.1138840  56.6958466  14.7037745
  82.3236389  57.0383377  15.5726442  81.8407059  55.7922134  14.8620539
   6.2016120   8.5826511  51.9206161   6.7420592   7.8546524  51.6137543
   5.3020353   8.2966833  51.7618217  19.3575287  46.6220169  22.2150879
  19.3052673  45.8768921  21.6165142  19.5373631  46.2304573  23.0698242
  10.6297846  22.0255814  59.8026657  11.1640148  21.8428307  60.5755997
  11.0604563  22.7712746  59.3846970  40.5514336  45.9094505  56.3921432
  40.3114204  45.8355675  55.4684715  41.2093964  45.2268562  56.5239792
  15.9541578   9.4300928  85.7331390  16.1430779  10.2055283  85.2047043
  15.0269308   9.5122995  85.9561310  56.2905960  58.7633324  13.4030666
  56.3722916  58.5246849  14.3264322  57.1693993  59.0460892  13.1501083
  50.5749588  58.4737358  12.7686806  51.3381004  57.9090958  12.6460981
  50.6566772  59.1386414  12.0849743  15.7057915  38.8544655  48.4245605
  15.6708851  37.9320335  48.1713219  14.9672432  39.2565041  47.9672394
  15.1767616  38.3490715  80.0234985  15.1533289  39.2948914  80.1688004
  14.8082190  37.9746284  80.8236237   0.9514536  34.3486366  72.4671707
   0.6390919  35.0571632  71.9044495   0.1535992  33.9331017  72.7942657
  34.2705956   0.5087407  38.6878510  34.1711502   1.3756845  38.2944679
  35.2009888   0.4494836  38.9048500   1.9465350   5.8036075   5.4072614
   1.4507568   6.5234017   5.7975588   2.0350833   5.1632905   6.1132259
   6.8931503   9.9449644  62.0497589   5.9427481   9.8312511  62.0557899
   7.2358074   9.0844030  61.8084030  40.2706718  42.5765076   3.5959139
  40.9826126  41.9909668   3.3380163  40.5393677  43.4367714   3.2734547
  86.0963669  50.5832863  71.9434586  86.1538849  49.9594002  72.6671219
  85.3857498  50.2498398  71.3956604  58.4119644  35.9295120   9.0765276
  59.3185425  35.6705971   8.9112558  58.4195366  36.8843269   9.0094242
   8.5364799  56.9475060  36.0900002   9.1919994  57.2412682  35.4573631
   7.7099848  56.9729805  35.6078262  21.1451893   3.3849669  62.8616791
  22.0310001   3.3226547  62.5043411  21.0495605   4.3055954  63.1056633
  23.3299980  33.4242210   1.4332931  23.3077240  32.7493782   0.7548237
  23.1176739  34.2352943   0.9714348  78.3442078  54.9089622  87.1155014
  77.5161819  55.2109261  86.7421036  78.4091110  55.3651733  87.9544907
  52.3481903  68.6128769  19.2384548  52.8178139  68.5935822  20.0723095
  52.7698746  69.3144531  18.7422619  46.6811829  53.9795418  10.0611305
  47.4105110  54.5071564   9.7356558  45.9019165  54.4970436   9.8582296
  83.0263596  66.8382721   8.8708410  82.3541794  67.4822083   8.6478119
  82.7988739  66.5510559   9.7551413  17.3984871  36.6066818  69.1372452
  18.0517006  36.7749596  69.8163834  17.2267189  35.6669617  69.1977234
  12.8942471  30.7921715  58.2142105  12.8577614  29.9032631  57.8610229
  12.6138258  31.3499031  57.4885864  18.0524197  60.0256538  37.6935616
  18.1636467  60.6295204  38.4278641  17.4052563  59.3910408  38.0012589
  56.4234085  16.9806366  82.3155212  56.2151031  16.0869312  82.5877914
  57.3245850  16.9300308  81.9968491  45.5113602  63.3433571  11.5215130
  45.0608139  62.9594307  10.7692900  44.9804344  64.1045914  11.7557678
  78.0345154  51.7279892  31.3356934  78.1332245  51.3106804  30.4799252
  77.3488083  52.3829575  31.2051144  68.3668289   4.2596684   4.0499806
  67.4766235   4.4616456   3.7619538  68.9301682   4.6993756   3.4131620
  82.7765350  22.0588398  34.5758209  82.1675186  21.5614223  34.0300140
  83.2720108  22.5936756  33.9555893  76.4807205  62.3583031  57.1557846
  76.3428040  62.0360298  58.0464859  75.6014023  62.4108658  56.7812538
   6.4367771  36.1841660  68.3553238   6.3073430  35.9080048  69.2626343
   5.8503299  35.6228561  67.8481369  41.9029083  23.1164017  86.0370636
  42.6626205  23.3996391  86.5458374  41.3726234  23.9071198  85.9380875
   4.1440811  47.6860390  34.9621315   4.8437490  47.2526665  34.4733734
   4.1709208  47.2808228  35.8289146  24.6069107  67.0601578  86.8988419
  25.0430470  67.7682114  86.4248428  23.6753464  67.1924973  86.7230530
  31.4244328  48.2786331  22.0316086  31.8417110  49.0220680  22.4668236
  31.2562313  48.5861015  21.1408787   6.5177569  56.4530640  42.1852264
   6.9188542  56.1634750  41.3657799   6.2507691  57.3563919  42.0150871
  62.4407539  24.7067947  29.1326160  61.8928032  24.4795475  29.8838406
  63.2942314  24.3229904  29.3338661  63.6210785  33.7001266  17.2009602
  62.8609047  33.1261330  17.1066208  63.3600693  34.3356667  17.8674393
  65.0204773   5.0316319  69.4161835  65.3790436   4.3535581  68.8435822
  65.6609421   5.1115026  70.1230469   4.4822879   2.8911209  58.1324997
   5.0189648   3.4401710  58.7041245   5.0740004   2.1966832  57.8429070
   6.9919090  65.6194992  14.6201925   7.2045975  66.3103714  15.2476463
   7.8396311  65.3422470  14.2727318  30.8777695  57.9726715  74.1251068
  31.1473656  57.1566963  74.5466919  29.9607601  58.0809593  74.3772964
  22.0243301  61.9032936  30.0271645  22.2201080  62.8397141  30.0590515
  21.0816612  61.8610229  29.8664761  12.5589018  53.4528923  78.0237885
  13.1447515  53.5055542  77.2686462  12.5758963  52.5297241  78.2761917
  39.5112228  37.5977097   1.5496860  39.3644981  36.7224541   1.9083354
  40.3741112  37.8497429   1.8785294  54.7599449  25.6801243  62.8356247
  54.0812798  26.3364773  62.9932556  54.7476044  25.5456505  61.8880005
  75.4953308  17.0661526  59.6632652  75.3360138  17.4088554  58.7838326
  76.4486160  17.0106506  59.7296333  28.5089130  55.8780594  33.2504005
  27.9340763  55.2406120  32.8267822  29.3928185  55.5485725  33.0879707
   0.3462284  36.0690002   0.6443225   0.2415561  36.2637711  -0.2869885
  -0.5387167  36.1334152   1.0034250  84.5276566  19.7598095  32.3353577
  84.8954315  19.1354523  32.9607735  85.1627350  19.7841282  31.6195984
  76.3770370  67.0418625   6.3890648  75.6175385  67.2382355   6.9375453
  76.0105209  66.8898544   5.5179758   6.3935094   7.2065201   3.9224970
   5.8725233   6.9822149   4.6935306   5.8137856   7.7536712   3.3926115
   3.2123713   5.5154047  88.5617142   3.0880425   4.6427355  88.1885910
   3.7113297   5.9909959  87.8975754  38.8662262  50.0507507  71.2970123
  39.1878738  49.3629913  71.8798981  39.5083122  50.7556496  71.3811035
  20.8455200  63.2281609  71.1663361  20.9538441  62.2901344  71.0094833
  21.4267616  63.6459541  70.5308533  38.8446159  53.5635757  32.2142487
  38.2622566  53.7362099  31.4744625  39.2344704  52.7115784  32.0184402
  27.8406487  69.2321930  31.7078991  27.9614677  68.4036407  32.1717224
  27.3614311  69.7846985  32.3254089  53.6876297  28.9410934  45.6699181
  54.4848938  28.4560032  45.4571075  53.9110146  29.8559742  45.4986763
  55.2622375  66.2652435  42.7835655  56.1331558  66.1046066  43.1467896
  55.3579979  66.0934296  41.8467941  49.9038200  41.1974716  55.3678513
  50.3001060  40.3261795  55.3618088  48.9627914  41.0330086  55.3074303
  52.1705627  63.1636848  32.3000870  52.6614685  63.2116737  33.1204185
  52.7157326  62.6258583  31.7258339   8.1112623  38.2369652  59.3828316
   7.2711654  38.6171608  59.6395836   7.9665570  37.2913742  59.4166451
  31.5113087  62.2752228  81.0945587  31.9829903  62.5257187  80.3002014
  30.5899563  62.4266968  80.8838425  18.0311985  49.3974953  54.3226051
  17.3723145  49.9597015  53.9151382  17.6566639  49.1669502  55.1727867
  64.2500381  35.6525230  49.4056053  64.5710831  36.5522575  49.4659119
  63.3087769  35.7435112  49.2573471  31.0154629  57.7585297  15.6080828
  31.1499424  58.7011414  15.5099678  30.9188309  57.4358368  14.7121115
  75.2134857  50.5474205  26.4752598  74.2829819  50.4314537  26.6674862
  75.3616486  50.0268555  25.6857700  24.9206715  53.0486603  34.1393089
  24.4429684  53.8720436  34.0389557  24.3362350  52.4941483  34.6562080
   2.3541777  31.9622993  71.9074097   2.1834452  32.9041100  71.8987122
   3.1395035  31.8562794  71.3705139  67.9281998  68.0091705   7.5584145
  68.2390671  68.2910156   6.6980925  68.7053680  67.6531372   7.9890852
  35.8646698  44.0069847   8.8994598  36.1783295  44.2528915   9.7697344
  35.8450775  43.0500870   8.9134693  49.6878319  55.2736626  30.4577351
  49.3716011  54.7973289  31.2254181  49.7987938  54.6000175  29.7868233
  23.1651058  65.6376724  36.0745583  23.5101795  64.8082886  35.7439919
  22.4775467  65.3828125  36.6898117  19.0364323  47.4358177  64.2264557
  18.3347683  47.0382309  64.7420349  19.8423157  47.1110954  64.6281204
   1.7978626  45.8381691  69.6030045   2.1713231  45.6789169  70.4698334
   0.8526183  45.8669357  69.7510452  73.4709473  45.0792351  36.7262154
  74.1259842  44.6627541  37.2863083  72.8892288  44.3649750  36.4661026
  63.1156616  53.2874794  12.0546284  63.4456100  53.6840973  12.8608932
  62.5746918  52.5557747  12.3515978  26.4069691  69.1435013  75.2726135
  27.0109310  68.8667450  74.5835037  26.0526161  69.9760666  74.9603653
  62.4091377  11.3744755  70.6184235  63.1683960  11.4613066  70.0420380
  61.6790886  11.1916409  70.0269623  49.8058815  37.3778687  51.9913292
  50.0574760  37.9963989  51.3055115  49.3104362  37.9043541  52.6186905
  37.2255325  41.2982750  85.0164719  36.6896553  41.1497307  85.7955780
  36.5945702  41.5107574  84.3287430  18.8894463  56.0147743  42.2958603
  19.1118488  55.7285156  43.1817665  19.4433651  55.4815407  41.7257156
  70.5539017  31.7389755  13.3041325  70.2323532  32.6046066  13.5561590
  71.2265625  31.9154911  12.6464052  58.1308441   8.6679401   8.1508856
  57.5041618   9.2147217   8.6247339  58.6089211   8.2020645   8.8369141
  76.4459305  56.9808159  71.3421783  77.2188187  56.4430847  71.5145645
  76.7116013  57.5600243  70.6279144  65.5341797  59.1397972  67.5854263
  65.8523331  58.4287949  67.0291138  65.5517960  58.7771530  68.4710922
  27.4460220   2.4571381  44.5984688  27.9396591   1.9322649  43.9683380
  28.1163445   2.8797905  45.1353683  70.7310867  18.3838768  10.3294334
  70.2569733  18.2544937  11.1508436  70.0834122  18.7649479   9.7365246
  72.9502335  40.8298492  20.5071754  72.7885513  41.3778267  21.2751675
  73.5654602  41.3362732  19.9768314  32.6781158  64.3980942  86.0058365
  32.0739059  65.1208191  86.1756210  33.1582794  64.2894516  86.8267288
  83.4394226  33.7240944  37.0263176  82.5263596  34.0078735  37.0711594
  83.9377518  34.5352859  36.9269753  39.9244080   3.0356247  15.3134508
  40.2485046   2.4103296  15.9616795  39.8424454   3.8588741  15.7948799
  18.7203331  27.2576332  68.3632889  18.3574619  28.1415291  68.3059616
  19.0604420  27.1957722  69.2558899  62.0045929  68.8114777  16.4873791
  62.2698364  68.6553802  15.5810070  61.8353004  67.9383163  16.8411617
  86.2737045  38.3847847   3.9188192  87.1952362  38.2137032   4.1130767
  86.0142059  39.0503960   4.5558844  26.3943443  67.1212921  50.8822212
  27.3387451  67.0341339  50.7528267  26.1739311  67.9612274  50.4795341
  84.2149200  14.4596891  52.1364632  84.6331329  14.3076715  52.9839439
  83.8425217  13.6109076  51.8974609  59.7596931  54.9943466  35.2444115
  59.8613396  55.9232407  35.0369072  59.6570015  54.5686378  34.3932648
  46.8303947  69.8755569  79.0920029  47.0209198  70.3562241  79.8975449
  46.8568420  70.5407562  78.4042206  13.1360168  10.7849245  74.3194351
  13.6478386  10.4868708  75.0713882  13.4951010  10.2985249  73.5773392
  51.3775826  58.4255142   2.6735783  51.0943336  58.6381989   1.7843268
  51.7654457  57.5535774   2.5993047  42.7817078  58.1668282  10.0078936
  42.7803154  58.9604378   9.4727192  43.6821365  58.0927391  10.3240747
   1.2797774  38.3335152  12.5141182   1.5401957  37.6728477  13.1559391
   0.6365544  37.8898735  11.9612360  38.5424614  50.2964249  76.5909195
  39.1241455  50.7803574  77.1771698  38.2971573  50.9320335  75.9185715
  40.5529480  65.9109955  30.0112743  41.1255760  65.7942581  30.7693653
  39.8172836  65.3205032  30.1736145  34.2719727  38.7508545  13.1385918
  33.8017387  38.9024277  12.3187532  35.0630836  39.2844048  13.0631199
  56.5551720  12.7072878  71.0166168  56.8078690  13.3917360  71.6362228
  56.2613029  11.9819279  71.5677338  78.4378815  68.3446808  56.7821503
  79.3640442  68.2561035  56.5571747  77.9763031  67.8806229  56.0837059
  34.3468590   3.6612113  14.6234350  33.9372978   2.8067193  14.4880247
  34.1247368   4.1605120  13.8375645  36.0747452  40.5283775   6.7210317
  36.9870033  40.3169098   6.5228119  35.5852585  39.7498512   6.4554553
  33.9700432  11.1044378  73.3642197  34.9237595  11.0253773  73.3843842
  33.7644882  11.7069168  74.0790558  73.7672119  51.2838745  74.8894730
  73.8487091  50.3833694  74.5753403  73.0150604  51.6363297  74.4138031
  71.7695312  35.7014580  31.3952675  71.9292831  34.9834061  32.0077362
  72.0958481  35.3773155  30.5558147   5.7893023  43.0020218  30.8780060
   5.0198255  43.0267601  30.3092136   6.4065971  43.6108818  30.4724617
  80.0767136  61.8442459  70.8971634  80.8028412  61.2371788  70.7542038
  79.2921295  61.3010254  70.8224945  11.2819557   9.9810848   6.8638077
  11.5101395  10.3621292   6.0158873  11.7580490   9.1510754   6.8893132
  11.3875303  15.5141859   7.3293657  11.8047094  15.4210434   8.1858225
  11.1817513  14.6176987   7.0644193  17.7394829  39.3695488  23.2085304
  16.9490566  38.9495049  23.5476799  18.3414440  39.3833961  23.9526291
  59.6128502  43.5844383  76.7481766  58.8752937  43.3649788  77.3174591
  60.0185661  44.3450089  77.1642990  49.1378708  37.3016357   7.5542827
  48.7367363  36.6664200   8.1474304  49.9907684  37.4897079   7.9459782
   3.4492986  66.0025940  47.5326614   3.9987619  66.5307312  46.9535370
   3.2143362  66.5955734  48.2463837  35.8739052  70.5981674  53.0823936
  35.2055435  69.9300308  53.2344513  36.3501625  70.6534271  53.9108620
  23.7501583   5.8460608   1.9019256  23.9051476   5.3194451   2.6860723
  23.2597008   5.2675405   1.3179752  34.1686020  17.6907253  66.0745621
  33.7169647  18.5023651  66.3058548  34.7219849  17.9282169  65.3305206
  25.3262062   9.8025656   4.3408666  24.5788059   9.6651659   4.9228859
  25.0666256   9.3911476   3.5164964  58.5908241  35.1316299   4.0291595
  59.2930717  34.7135277   3.5308945  58.7089577  34.8122749   4.9237480
   5.8633428  44.1495056  39.1984215   6.2204618  44.4780006  38.3733253
   5.9070630  44.8981590  39.7932663  26.5999146   7.1856365  64.3376312
  27.2425022   7.3764763  65.0209274  25.7677021   7.4897485  64.6998062
  16.0416393  23.1168175  80.1204910  16.6696854  22.7709637  80.7546692
  15.2317791  23.2238579  80.6193924  80.2840042  26.8554840  61.2752190
  80.0724030  26.7917004  60.3438797  79.7140961  27.5510788  61.6032219
  51.0030556   5.3869967  84.5680771  50.3188705   5.5145807  85.2252274
  51.7878685   5.1816926  85.0761642  40.4474487  60.2135658  12.2518883
  40.3502426  60.1745758  11.3004351  39.5517082  60.1678543  12.5862360
  20.5495644  56.8249588  26.6433563  19.6419220  56.5518265  26.5098839
  20.9657288  56.6980247  25.7907562  48.9369583   0.7474209  28.4749565
  49.7128105   1.1204978  28.8934002  48.3470497   1.4919569  28.3570251
  31.6515541  46.9203300  16.5697079  32.2321777  47.2622566  15.8898582
  30.7832241  47.2417870  16.3270149   1.3200458   1.1968422  74.9770050
   0.7289011   1.8786411  75.2962646   0.8110526   0.7294104  74.3146820
  66.3283157  54.0945969  49.0392227  66.4903946  54.1203766  48.0961952
  65.7350845  53.3531837  49.1601028  45.3755646  71.2460022  31.0207348
  46.3142776  71.2586136  30.8339348  45.2072182  70.3602753  31.3422565
  77.8270645  34.0722427  54.9992905  77.4053726  33.4213905  55.5603561
  78.2413177  33.5584488  54.3060036  70.9596329  68.0767975  78.8221741
  70.7165527  68.3455887  77.9362259  71.1221771  67.1361923  78.7509766
  77.6432037  58.0510597  39.5567131  77.3822556  58.9303398  39.8305817
  76.9023132  57.7306862  39.0422478   0.9451875  66.1968689  33.3660088
  -0.0110526  66.2389679  33.3580322   1.2099566  66.6092453  32.5437737
  12.7756939   7.5014257   7.2197924  13.0028954   6.8380198   6.5682526
  13.6044321   7.7050261   7.6533508  50.2386818   3.9586315  22.4023933
  50.9502335   4.0648131  23.0337791  50.6620483   3.5997810  21.6225109
  10.0269966  45.2468452  67.8287430  10.3508778  45.8406410  67.1514435
   9.9742975  44.3950539  67.3952637  27.0977879  42.0545349   4.1019173
  26.6917324  41.2084732   3.9134235  27.3146172  42.0139313   5.0333509
  50.9369011   0.1470969  12.6128960  50.7512321   1.0257914  12.2817545
  50.8077927   0.2154075  13.5588856  55.1958961  39.9763718   1.9792753
  55.1698952  39.0755997   1.6565332  54.2796478  40.2531090   1.9910741
  18.4182854  62.3568039  66.4253769  18.1003284  62.2469330  65.5292435
  17.8240299  61.8271980  66.9569855  56.5327568  24.0461884  32.4407616
  56.7113800  23.3569851  31.8009758  55.8738098  23.6677303  33.0228157
  70.1075668  25.1463623  33.5085297  70.2542877  24.2029247  33.4404907
  70.7746735  25.4486656  34.1248245  57.2022896  17.9609547  22.7799454
  57.0588417  17.0883942  22.4134903  57.4870949  17.7991447  23.6793556
  67.9172287  47.1390343  77.3070068  67.5379333  47.9864159  77.5400467
  67.7241135  47.0383759  76.3749084  14.5023746   7.3705635  51.2359810
  14.5566559   6.4824576  51.5889015  13.8549166   7.8086424  51.7883530
  67.7062683   2.9083254  23.9252758  68.0317230   3.3235641  23.1265945
  67.3057480   3.6228082  24.4205799   0.6248036  15.3035383  39.2471619
   0.4489996  14.3755903  39.4028473  -0.0226648  15.7629786  39.7818871
  46.1303673  31.5034657  19.8331051  46.2942467  31.8330250  20.7167149
  46.5001450  30.6205750  19.8343563  71.6061478  36.0877876  60.0374794
  71.0796890  35.7669716  59.3052559  72.5064926  36.0648384  59.7133064
  44.1901512  54.5202599  42.5546951  43.8597832  55.4177933  42.5157089
  44.3067970  54.3483467  43.4890785  50.7039757  48.5332222  49.3344231
  50.8163376  47.8807945  50.0257568  50.0659752  48.1422272  48.7375069
   0.6600422  53.2760315  39.1216393  -0.2086395  53.5465622  39.4190254
   1.1477722  53.1082954  39.9279976  34.1434898  71.4842224  70.7769547
  33.7136154  71.5869751  71.6260071  33.4393082  71.5911179  70.1374741
  70.8548813  62.1803398  14.8933430  70.4201889  61.9082108  14.0851240
  70.1908035  62.0650444  15.5729990  53.1431236  32.1040649   4.0986314
  53.7486877  32.5426483   3.5009930  53.6327362  32.0202751   4.9168563
  30.9580479  45.2991562   7.3418016  31.9091434  45.2923393   7.4495134
  30.6225719  44.9137459   8.1512127  68.4460678  67.9645462  80.2986145
  69.2836227  67.5054855  80.2354507  68.5205002  68.6857452  79.6736679
  65.6437225  34.9479446  24.2395954  66.5679779  34.7625504  24.4057961
  65.6292648  35.8640480  23.9625015   0.4967053   8.8503036  43.8917351
   0.5616493   8.1201954  43.2761421   1.1676707   8.6690578  44.5499039
  32.0576591  10.8302374  29.7670727  31.5086918  11.3263798  30.3742847
  32.0283127  11.3323793  28.9526863  46.7056923  56.6656876  76.4050980
  46.2304115  56.8719749  77.2099533  47.5865173  57.0103416  76.5520554
  35.5098534   0.5767730  34.8882790  35.3815575   1.5253358  34.8872452
  34.6458473   0.2184450  35.0915718  49.2973785  67.2134323  74.7854004
  50.1622772  67.5843430  74.6104584  48.7701950  67.4673309  74.0278778
  61.1972084  17.5593433   2.5353823  61.1858406  18.4616508   2.8546705
  62.0700417  17.2368336   2.7598369  47.9495583  34.9752388  56.8428345
  48.6993637  34.4834023  56.5079842  47.2494774  34.3262558  56.9131126
  78.6159210  38.5796661  63.3804779  79.1849213  38.3458138  62.6471405
  77.7713470  38.1847687  63.1637268  76.8021774   8.9300299  28.7594929
  77.6359329   8.9545708  29.2290554  76.8003922   9.7292004  28.2326565
  19.8232632  52.9667130  86.0446548  20.4033966  52.7306480  85.3208084
  20.4048061  53.0497055  86.8003998  32.1167603  21.5400467   1.1507378
  32.3313446  21.7605858   2.0571306  32.8885841  21.8052483   0.6505480
  68.4562302  49.1211090  81.9867096  68.4925766  49.5638771  81.1388550
  68.1979370  49.8058853  82.6036453  18.5900822  62.0577011  72.8096237
  19.4283333  62.1880188  72.3662491  18.1962070  61.3089104  72.3619614
  53.9552956  62.3425713  55.2430038  53.3894501  61.8699379  54.6325378
  53.8876839  61.8511848  56.0616646  46.4016495  62.6337967  24.7842712
  46.6490631  63.2288933  25.4920006  45.9325027  63.1867027  24.1594296
  77.6560593  29.2158260  46.6917267  78.2056274  28.4725494  46.9402275
  78.2733383  29.9338856  46.5517731  67.8557358  43.4425354  18.3186150
  67.0937500  43.5648193  18.8848896  68.5954666  43.7493973  18.8428822
  30.3163929   1.8407091  55.8665962  30.1784840   0.9659141  56.2298393
  29.6319637   2.3769157  56.2669373  16.9060631  33.3121300   0.9000675
  16.4561214  33.4330292   0.0639054  16.3503723  33.7598724   1.5380070
  22.3342934  60.5186157  68.5666122  22.5382404  61.4521141  68.6233521
  23.1606770  60.1079330  68.3123322  80.5765076  42.4172058  73.4957657
  79.8943100  42.9429207  73.0780792  80.5675049  41.5886688  73.0165176
  73.5556107  27.7389507  84.9750214  74.1672516  27.7550945  84.2389069
  74.0187912  27.2578754  85.6607742  68.5325623  31.2363720   7.7095122
  69.2519531  30.6994381   7.3772440  68.5882339  32.0490341   7.2068057
  59.1496964  68.2303162  87.7366409  59.9197273  67.8797302  88.1842728
  59.1249237  69.1530991  87.9898224   9.9529686  68.0620651  34.7279892
  10.1100149  67.1759109  35.0540161   9.0036430  68.1112518  34.6157722
  53.9288025  15.8874893  63.7991524  53.7200966  15.7332287  64.7204971
  53.1530914  16.3245754  63.4477806  65.6715012  53.7923584  41.6100540
  66.4815598  53.7468071  41.1021538  65.4388657  54.7208519  41.6071281
  29.5957088  52.2515640  17.1575546  29.2788448  52.8941078  16.5227604
  28.8037148  51.9291840  17.5877285  75.5803604  68.6359329   2.8103776
  75.0262604  68.5788193   3.5888011  75.1288300  68.1036224   2.1553965
  65.6222610  19.6029911  76.8644485  65.2558670  20.3679447  77.3081131
  65.1818237  19.5851135  76.0147934  85.5872116  31.8250408  45.5020905
  86.4216766  31.3563423  45.5169907  85.5145798  32.1564140  44.6070213
  81.1452484  71.1204758  27.6427193  82.0877609  71.0419998  27.7902050
  80.7764130  71.2532730  28.5159664  84.9346848  58.6205597  49.2046204
  85.2478256  57.8421669  49.6653595  84.0630951  58.7790489  49.5671730
  36.5356293   9.6238775  85.5771179  36.4656219  10.5703640  85.4526367
  35.6335030   9.3081112  85.5252838   4.1641164   4.3979197  66.2441101
   4.0307355   3.6207106  65.7015381   5.0962753   4.5958672  66.1539536
  25.0693913  63.4683113  30.9456825  25.4300938  64.3101654  30.6674633
  25.2210865  62.8851852  30.2019176  11.5240898  41.8022308  35.2082977
  11.4585972  40.8516464  35.1170311  10.9379206  42.0140495  35.9347763
  53.8131866  39.8208847  87.5365601  54.1941376  38.9777718  87.7820511
  53.0519714  39.5934067  87.0026779   3.0082664  52.1084938  13.9510927
   2.1020527  51.8042221  13.9018364   2.9384842  53.0619011  13.9998569
  81.3620224   5.0934386  59.7287216  80.6447906   4.6831388  60.2119064
  81.2087402   4.8462272  58.8167877  65.9739761  69.2144775  43.1804123
  66.4529037  69.8789673  43.6757050  66.6214981  68.8545609  42.5742683
  32.6002159   2.6603353  63.6479759  33.2442360   3.2600546  63.2714043
  31.7639503   2.9443262  63.2788620  62.7909927  21.3686943  51.0340462
  63.2639542  21.8519592  50.3565521  63.3301086  21.4669228  51.8188629
   8.8052473  58.5723305  32.5401192   9.2709608  59.3762817  32.3098869
   9.4781542  58.0051956  32.9166603   3.6972182  51.2458878  46.7346191
   3.3648264  50.8314743  47.5308647   3.2242124  50.8129768  46.0239258
  35.9778976  69.4600449  38.4294357  36.5133934  70.1428909  38.8334122
  35.5318184  69.0392914  39.1644287  14.7422218  38.1375427  71.2227249
  14.3401337  37.9482422  70.3749466  14.0300941  38.0343132  71.8539505
  69.6399078   4.8875108  37.8047371  69.4819183   4.7024608  38.7304955
  69.0322800   4.3132787  37.3386116  81.6328354   3.0878553  83.6559830
  81.9473114   3.8644953  84.1187592  80.6887970   3.2234607  83.5745316
  84.7374115  56.7788811  58.3861847  85.1626816  55.9298058  58.2659912
  84.0965958  56.8283463  57.6768570  28.5270309  12.4409628   2.4294243
  27.5699234  12.4284534   2.4250636  28.7702770  12.4794731   1.5044484
  20.1929855  45.8437996  51.9004745  20.7688293  45.1936302  52.3028641
  20.2945328  46.6238708  52.4458275  59.3802681  39.6015663  35.9205666
  58.7136726  39.7208481  35.2440643  59.7129288  40.4835014  36.0871735
   3.8832023  29.5312271  33.5249443   4.4766054  30.2803307  33.5792313
   4.3511033  28.8936062  32.9857407  58.1370850  26.8763504  10.4056377
  58.8847275  26.7703781  10.9938850  57.4461937  27.2398701  10.9594908
  73.0712738  27.3833847  77.3694077  72.3401260  27.3315735  77.9850082
  73.7378998  27.8916283  77.8315048  47.3610878  42.2846985  29.4926567
  46.7358665  41.9020500  30.1082134  46.9400101  43.0905571  29.1934662
  62.7631187  66.7199326  82.3017197  63.0896721  67.4006805  82.8900833
  62.5468292  67.1852798  81.4936905  19.6105480  66.2173767  86.6306381
  19.6474113  65.2818832  86.8299408  18.9700069  66.2863846  85.9226990
  21.6805592  18.3487797  87.6248627  22.5838547  18.1536293  87.3754578
  21.4435425  19.1076965  87.0918503   8.5616026  48.1442642  30.8586388
   8.0735569  48.7341690  31.4331455   8.6474514  47.3353386  31.3631172
   2.8712890  10.9993706  79.1831894   2.2427528  11.1390791  78.4749069
   3.5377252  10.4272966  78.8026276  68.5312271  15.8731623  26.4972916
  67.6645660  15.6208858  26.8158760  68.6598434  16.7611446  26.8307228
   2.3692501  11.3013773  69.9895401   2.3863149  10.6408873  69.2969437
   2.1090493  12.1080809  69.5448380  18.4331055   1.0277197  71.7988510
  18.3599930   1.9369470  71.5086899  19.3753624   0.8713394  71.8615189
  75.9487076  32.2233124   8.5010872  75.7763138  32.4630623   7.5905752
  76.1696167  33.0506096   8.9288893  11.4006815  25.0488338  65.4586411
  11.9510002  24.5864792  66.0907898  10.7429104  24.4044285  65.1972809
  17.0992031   1.7555965   8.5843449  16.4681263   2.3851321   8.2355471
  16.8863544   0.9334192   8.1428118  58.8951988  27.3863354   5.8757396
  58.1634712  27.7912655   5.4100838  58.6347313  26.4713726   5.9817314
  83.3392487  16.5027046  48.6351700  83.3870773  16.8403034  49.5295830
  84.1082916  15.9391260  48.5504456  41.1089478  70.2123184   7.5093346
  41.5003967  70.2156982   8.3828268  41.7848167  70.5840454   6.9425468
  79.5740280  22.4583111  29.7708416  78.7610703  21.9540539  29.8033619
  79.3441620  23.3078308  30.1472816  56.4919930  56.5955505   0.8848815
  56.6744118  57.5098267   0.6679525  57.3296051  56.2512169   1.1948360
  82.9991531  65.5158539  53.8714790  82.1176910  65.6149216  54.2312660
  83.5810165  65.7138977  54.6052704  71.0409775   7.8303299  42.8255920
  70.7718124   8.5513697  43.3947029  70.2912598   7.2352285  42.8221359
  26.4307384  12.8471384  72.1011429  26.6781921  11.9724941  72.4011383
  25.9941330  13.2442160  72.8547592  86.2802963  12.2073936  32.8331184
  87.0883331  12.7010880  32.9730339  86.5496140  11.4491367  32.3147125
  65.1626892  25.6965370  48.8702087  64.3463745  26.0282726  49.2441216
  65.0360870  25.7608509  47.9236031  20.3581562  53.0474358  17.5015888
  20.8369637  53.1471786  16.6787739  21.0214443  53.1689873  18.1809311
  84.3804092  39.7625008  14.6141586  84.2292099  38.8226547  14.5138741
  85.3180542  39.8366356  14.7918100  76.5149155  61.3291283  49.2908821
  77.1556015  60.7810593  48.8376923  75.8117523  61.4526749  48.6532822
  12.9079685  46.7050896  27.0349331  12.1910753  46.1899147  27.4049225
  12.9812469  46.3989334  26.1309814  38.1054420  14.6744041  66.8580399
  37.8366356  14.4652796  67.7526016  37.3008766  14.6060247  66.3440094
  52.3319588  29.2129459  37.7203293  51.7237091  29.0626411  36.9966736
  51.7882385  29.5783043  38.4182625   1.8592972  67.5578766  74.6681366
   1.4448100  67.3364334  73.8342361   2.6634555  68.0149994  74.4219666
  83.4413452  56.2838440  38.3941612  83.6049347  55.9241638  37.5223236
  84.2728653  56.6843681  38.6479111  42.1358299   4.6233401  75.9833832
  41.5576820   5.0737324  75.3676453  42.9539070   4.5046830  75.5007858
   7.9249892  42.2173500  55.0592346   8.3840942  41.9904251  54.2505569
   7.8352675  41.3859901  55.5250893   5.2371035  36.4435463  60.7477150
   6.1272802  36.2583427  60.4485207   5.3082166  36.4824409  61.7014771
  85.8127899  15.2524643  48.0147133  86.2615204  16.0254345  48.3573265
  86.4997406  14.5900555  47.9402847  59.7876205  40.7099800  21.9271889
  58.9756050  40.8963585  22.3984947  60.4317513  41.3012466  22.3167152
  63.5442200  62.7338905  88.5819702  63.7036209  62.2231407  89.3756714
  62.6540642  62.4984550  88.3203888   0.9190172   7.2429805  21.4105511
   1.1679753   8.0737486  21.8156128  -0.0310348   7.3010988  21.3092823
  60.5734062  42.2994308  35.7506104  61.4549866  42.2140121  36.1135788
  60.4020386  43.2411423  35.7568130   3.4538877  32.3138428  66.2103043
   4.1178594  31.6267395  66.1531754   3.2266703  32.5036201  65.3000336
  21.4185467  44.5772362   0.2971200  20.6508102  44.4622154  -0.2628656
  21.0852776  45.0336380   1.0696886  72.3436737  30.4265785  74.4339294
  72.8985367  30.1804008  73.6938248  72.0091934  29.5948944  74.7695770
  74.2999420  37.1784134  70.6159286  73.3549728  37.1684151  70.4637375
  74.5006409  38.0926666  70.8161545  17.3450451  34.6115608  71.9454651
  17.4848633  34.1662750  71.1097641  16.4382668  34.9155884  71.9060974
  51.1487503  55.6079712  67.5242996  51.6809578  56.2064705  67.0000916
  51.2424545  54.7605247  67.0892258  39.4457359  30.6211090  59.7244072
  39.2222176  29.8318424  59.2311172  39.9532242  30.3015862  60.4704552
  69.2275696  38.7117958  15.4718752  68.3856125  38.4904289  15.0739594
  69.0304947  39.4416466  16.0589981  58.3409119   5.4659963  48.9539070
  58.2474022   6.3729830  49.2452164  57.9950485   5.4642348  48.0613785
  67.8962326   1.4706545  55.1084785  67.1974792   2.0211685  54.7550583
  68.2379303   0.9998994  54.3483009  75.7280884  29.6507282  44.7167130
  76.4401321  29.5418472  45.3470840  74.9383087  29.7060604  45.2546883
  24.6683865  23.1585846  51.2635918  25.5527191  22.9023876  51.5254135
  24.3682861  23.7354259  51.9660339  79.2998123  19.0916233   2.9202893
  78.6108780  18.4841099   3.1896148  78.9500351  19.9579563   3.1285040
  57.9079285  34.4597931  19.8237019  58.3405533  35.2866325  19.6106186
  57.3243027  34.6753578  20.5511265  25.2560596   1.7231669  86.5799561
  25.9537849   1.1226556  86.8422470  25.7154655   2.4779689  86.2119217
  62.4093056  17.2789135  13.6220369  61.8673325  17.0282383  12.8739347
  62.3875580  16.5160999  14.1998558   0.1199870  66.4084396  68.8688354
  -0.7457632  66.7397690  69.1074371   0.6733150  66.6211090  69.6203918
  35.9460411  63.0857506  14.5286608  35.4024239  63.7310753  14.9806261
  35.6700821  63.1388702  13.6136436  71.8562622  67.5322037  73.1927109
  71.5282059  68.3659210  72.8557663  71.5348740  66.8794098  72.5707855
  57.9291992  39.4677162  48.2215576  57.2412376  38.8618393  47.9461441
  58.4583931  39.6025696  47.4354286   5.6165676  34.9333839  53.2589722
   4.7784848  34.5150719  53.4561157   6.0255446  34.3575745  52.6128922
  79.2047195  69.8796539   2.3837059  79.5460129  70.7633896   2.2467408
  79.8107910  69.3123169   1.9072182   4.3279252  58.2158051  39.1495628
   4.7680435  58.1439400  39.9965363   3.4461682  57.8789406  39.3084908
  35.4353561  68.1643829   2.4714420  35.7048035  68.7580490   3.1722858
  35.4369049  67.2977371   2.8778415  73.7655563  41.5731049  78.3371658
  73.0679016  42.0533371  78.7831192  74.4485092  42.2268639  78.1874847
   4.9438701  64.4151917   5.2624092   4.0654092  64.5509415   5.6175294
   5.4596305  65.1401215   5.6155453  62.8413849  54.7102737  24.0816250
  62.0143242  55.1392403  23.8621101  63.3924980  54.8437576  23.3104649
  15.9013968  23.1737213  57.1995583  16.0130920  23.7267532  56.4263115
  15.9417820  23.7823887  57.9372063  81.9187012  50.6319427  45.5499229
  81.2135773  50.2676392  46.0850143  81.8715820  51.5758095  45.7019920
  21.6903381  32.4843254  78.4908676  20.7657394  32.2400513  78.4499130
  21.7414799  33.1078262  79.2153397  49.7420883  12.8109903  57.6252365
  49.6553230  13.2944221  56.8036537  49.2976990  11.9791174  57.4617271
  79.8428421  39.4178314  80.2863159  79.8880310  38.8716049  79.5015717
  78.9974060  39.8618660  80.2207108   3.2535598  45.3292427  78.6680908
   3.9149063  44.6446762  78.7692032   3.4867191  45.9862671  79.3239822
  27.4951210   9.9584446  68.5840530  28.2518883  10.5397215  68.6592560
  26.8152122  10.5009069  68.1844406  47.6351814  38.9710083   4.1715336
  47.0680389  38.7382278   4.9066486  48.4671707  38.5389214   4.3647199
  17.8989983  67.0992508  36.6616516  16.9862461  66.9814987  36.3984985
  18.3622589  67.2820587  35.8442154  82.1165619  52.3072739  26.5858936
  82.4422760  53.2046738  26.5165462  82.2036591  51.9518394  25.7014103
  71.5523453  38.0414085  26.3785801  72.4638290  38.3102913  26.4931736
  71.5321121  37.1312828  26.6743736   3.9215624  63.9857559  11.2983799
   3.5218775  63.7978630  12.1476030   4.7756333  63.5551224  11.3351021
  44.9419441  64.0419922  84.9032516  45.8234901  64.3245697  84.6598129
  44.4101944  64.8354187  84.8404007  26.7719746  53.0591316  21.0524845
  26.3622456  52.5242043  21.7323437  26.2321396  53.8484917  21.0110111
  84.7548294  24.2136345  33.0798454  85.6848755  24.0124741  32.9760208
  84.3327408  23.7865925  32.3343849  44.4029312  33.5695114  12.4383411
  43.6302185  33.7720566  12.9657145  45.0875206  33.3792992  13.0797386
  74.1588287  44.3224220  42.3981056  74.9721985  44.8111496  42.2723999
  73.4746170  44.9091415  42.0758476  55.8060570  31.6100540  28.5665550
  56.5790100  32.1651573  28.4634266  56.1217880  30.7242374  28.3880234
  53.2473412  62.1954308  78.2651443  54.1216927  61.8095627  78.2117538
  52.7188339  61.6758118  77.6594086  69.9116287  15.9748850  66.6309586
  70.2538223  15.3449001  67.2651978  70.1146622  16.8302555  67.0095749
  56.9368019   6.8771267  75.1067581  57.4981499   7.3724918  74.5103302
  57.3905258   6.0426445  75.2251053  61.9556808  11.5159292  50.0725937
  61.4977341  12.0459709  49.4202385  61.4932365  10.6778641  50.0677299
  17.3993607  40.1268921   7.2299299  18.2001247  40.6295815   7.3793139
  17.2944450  40.1206856   6.2785172  46.2091141  25.5527554  86.6178055
  45.9246674  25.3033905  85.7385178  46.6349411  24.7681904  86.9632874
   9.3201962  24.9604301   7.7125831   8.7850847  24.9931965   6.9196048
   8.9910002  25.6782513   8.2535028  80.4803391  33.9395790  37.4125557
  79.5627441  33.9363174  37.1400833  80.6064911  33.0920944  37.8392715
  76.1965561   7.0232463  75.4151611  75.4417496   7.5376520  75.7013168
  76.1438522   6.2157855  75.9264908  53.8312492  59.8219604  63.6907196
  54.4452248  60.2422256  63.0885162  54.3860588  59.4421539  64.3720169
  67.0148697  27.6177273  45.9930878  66.8628159  28.4636345  46.4144554
  67.5295181  27.1219749  46.6299515   6.2661724  67.7015076  81.0652618
   6.4410558  68.5824127  81.3964005   5.9859471  67.8371353  80.1601028
  29.4825649  41.4115715  77.3720093  28.7637215  41.5769653  77.9820480
  30.1014767  42.1239395  77.5323639  80.8988724  15.9951515  60.5275192
  81.6396408  16.1391678  61.1163788  80.8052139  16.8216610  60.0538712
  72.5109711  37.6035919  81.5139160  72.8433380  38.2942657  80.9405670
  71.7666321  38.0033226  81.9638138  33.1628571  65.3039017  32.0645523
  34.1080437  65.4460068  32.0129662  32.7946510  65.9043198  31.4163628
   8.3545189   5.5653596   5.5457196   7.7400999   6.1165967   5.0610971
   9.0021963   6.1778870   5.8943686  75.6688690  48.8337860  85.0967026
  76.3047180  49.0867958  84.4274368  75.7088242  47.8776093  85.1157455
  32.2641335  62.5918427  78.3433380  33.0743675  63.0469246  78.1138763
  31.7086754  62.6868706  77.5696030  85.7920456  43.1236000  87.1443863
  86.4690323  42.5633583  87.5239182  85.5684509  43.7368927  87.8444672
  62.8810234   4.2399821  12.0350924  63.1687012   5.0655227  12.4249077
  63.2824936   3.5643535  12.5815163  29.0558186  60.1545372  33.8299637
  28.5353584  60.3471527  33.0500603  29.9624786  60.1738739  33.5236549
  35.3862114  60.8057480  72.6938858  36.1360931  60.7178078  73.2822495
  34.6729355  60.3550682  73.1459503  70.3539352  22.6522331  22.5758858
  70.2266693  22.9765759  23.4674225  70.7644882  21.7950058  22.6892033
   5.2659917   3.6173675  72.7370148   5.2087321   3.5991743  73.6923294
   6.1917863   3.7793140  72.5556030  53.3990021   1.9900278  45.1580353
  53.5039711   1.1996838  45.6877251  53.3942032   1.6739461  44.2545433
  67.2911453  18.4745960  22.8235664  67.5021591  19.4061775  22.7614326
  68.0143585  18.0981236  23.3250217  53.2422409  12.2076216  53.1028709
  52.8971977  11.6938620  53.8330956  52.5197716  12.2484846  52.4762878
  78.3829956  60.3105621  69.3395386  77.6691589  60.8114166  68.9448090
  79.1221924  60.4376717  68.7448425  52.1312218  47.7340431  83.7154541
  52.4885139  46.8549080  83.8407440  52.1694603  48.1341667  84.5841751
  37.1454926  47.4134293  74.0068130  36.7114487  46.6362686  73.6548767
  37.9605026  47.4786415  73.5090714  27.2703419   4.7309985  30.1838722
  27.7374859   5.3172526  30.7791138  26.6535625   5.2995372  29.7228107
   7.6313624  10.1142101  41.7544479   7.4251380  10.8282261  41.1512184
   7.2594891  10.3927431  42.5913239  56.3470955  44.2080841  86.4473953
  56.1041336  44.8355865  85.7666245  55.6054764  43.6046028  86.4925766
  63.0461426   5.7672973  78.4315643  63.0664444   4.8811359  78.7928619
  63.8682404   5.8476434  77.9478989  78.0220032  63.4356995  30.5955582
  78.1231079  63.6658440  31.5191612  78.8558731  63.6813049  30.1948509
  23.3471489  54.6462212   2.8039916  23.0749149  55.5580559   2.9073203
  23.5403900  54.5582504   1.8706363  64.6074982  55.6286201  27.9258652
  65.0868149  55.9863853  27.1785412  65.1185455  55.8976517  28.6892033
  71.3936539  53.4862823  40.6869583  71.5723343  54.2994232  41.1593018
  70.6505432  53.0989304  41.1495247  20.3338757  71.1972504  66.8238144
  20.9127274  70.7540512  67.4440842  20.3531895  70.6454620  66.0419006
  81.1377563   0.3373701   2.5275850  81.1033783   0.8241960   1.7041466
  81.6605606   0.8884637   3.1099930  85.1011581  46.6884270  13.0561438
  85.2549133  45.7912140  13.3521166  84.2328186  46.6625519  12.6542130
  76.0462036  52.5866356  39.0591202  75.3457565  52.5347214  39.7094383
  75.5935822  52.7537537  38.2324181  55.1463852   9.9505816   2.7080011
  55.0628319  10.8853064   2.5194824  54.3065910   9.5764894   2.4414809
  54.4636383  17.1444378  79.8502274  54.1459999  17.8855019  79.3343201
  55.3339539  16.9616165  79.4961624  37.8561249  71.1516113  64.1050720
  38.5140228  70.4639206  64.2074661  37.7500992  71.2425613  63.1581230
  69.5232010  35.2533607  52.7917175  68.8412704  34.8511772  53.3297272
  69.6447144  36.1240082  53.1704521  51.8414192  30.8321571  62.1721611
  51.3571091  30.9276257  62.9922600  52.6723633  30.4329319  62.4297981
  67.6076050   7.3707757   2.2479181  67.8668671   6.8503723   1.4875258
  66.6882553   7.5849853   2.0893614  69.3302078  26.7577305   0.3654252
  69.2217789  26.7724953  -0.5854988  68.4425049  26.8575649   0.7092911
   4.6556516  71.0677719  29.8002567   4.6694913  70.8369141  30.7290974
   4.7492466  70.2314301  29.3441734  78.3428955  42.8945274  34.0340767
  78.3954620  43.8450813  33.9344902  77.5161285  42.7471848  34.4934044
   1.8016363   2.0558105  14.9488726   1.3446591   1.2353256  14.7639170
   2.7277784   1.8148167  14.9692364  40.2961273  59.8649368  72.6740570
  40.1079941  60.5688858  73.2947769  40.2801552  60.2907677  71.8169403
  79.5319138  21.6509857  62.0705986  79.5918121  22.6049328  62.0193329
  79.2960129  21.3778248  61.1840515  48.3158455  35.9840775   9.8427629
  47.5086670  35.9494438  10.3560810  48.9884109  35.6399155  10.4305038
  67.6461029  26.3725128  32.6083832  68.5715256  26.1304703  32.5731392
  67.6148453  27.1117458  33.2156601  46.0232964  40.4844627  21.3346977
  45.7013092  40.3956718  22.2317333  45.5065575  41.2001076  20.9644775
  18.5265408  38.8243523  48.4312096  18.8279572  39.7005348  48.6713943
  17.5987854  38.8173027  48.6666908  23.1142960  26.5411930  86.5522842
  23.0578079  26.4056377  85.6064224  23.6452312  25.8098850  86.8677673
  61.7141151  25.9579754  54.2517967  61.4033890  25.0619354  54.1222076
  61.5410004  26.3944969  53.4177055  12.2987947  64.7528381  41.7971420
  13.2232895  64.5484619  41.6565285  11.8314877  63.9816132  41.4761009
  55.8771591  65.2313232  40.2429619  56.1720238  66.0095901  39.7701111
  55.0889282  64.9523087  39.7770462  42.3981018  46.3735352  67.3584595
  42.4511032  45.5471039  67.8384857  42.7302437  46.1650581  66.4852753
  73.8099899  68.2587051  56.3994865  73.0420227  67.7135620  56.2283859
  74.4617004  67.6512833  56.7495575  24.4608746  61.8130264  44.2059135
  24.7305927  60.9231300  43.9788322  23.5337620  61.7324791  44.4299736
  33.8740807  63.2231178   7.5308995  34.7743263  63.3563728   7.2341876
  33.8637009  62.3280945   7.8701067  55.3646698  23.2477894  18.9955826
  56.0139046  23.1752949  19.6952038  55.2811775  24.1890373  18.8428974
  74.7358170  13.2786455  61.6848869  75.6638794  13.0609913  61.5979538
  74.7280655  14.1082115  62.1623726  76.1267395  11.3343964   7.5771465
  76.2131195  10.7338324   8.3174791  75.2025146  11.2828207   7.3334703
  45.6896210  15.7053432  86.3234711  46.1728516  16.4991379  86.5528336
  46.0142250  15.0427294  86.9332275  65.6472549  13.5444450   4.2909312
  66.1442795  14.1224489   3.7120473  64.8005447  13.9788847   4.3937654
  35.2920723  32.9506187  72.2169495  35.7599792  32.2433968  72.6609497
  35.9510574  33.6339989  72.0946426  23.0030651  16.4777050   7.8997240
  22.8294201  16.4873447   8.8409920  23.9493046  16.3501072   7.8320274
   3.8668623  67.7593994   4.6149025   3.7244656  68.6811829   4.8300028
   4.8125033  67.6371689   4.6988940  20.9009228  67.6089249  10.7486000
  20.5454121  67.2960815  11.5804510  21.8332539  67.7404480  10.9209127
  76.4490356  57.1094208  22.0027485  77.0078812  56.5668449  21.4463882
  76.6968994  58.0084534  21.7870350  31.3216209  57.4760094  87.4656601
  31.0504704  57.0663643  88.2871857  30.7888584  57.0463371  86.7964935
  41.0980873  19.0179520  71.6501007  41.8316193  19.1463032  71.0486984
  40.3344688  18.9260159  71.0803070  57.9326401  70.3345261  76.5297089
  58.1050491  71.0342026  75.8996658  58.0543518  69.5270996  76.0302277
  57.9234123  65.8030243  88.2480850  58.3242798  66.6460648  88.0363693
  58.6504440  65.1806793  88.2293930  52.2726212  30.1386948  12.9733410
  52.7771416  30.0513668  12.1645975  52.2375755  31.0818157  13.1331158
  13.2663460  19.3541107  87.6838684  12.7646875  20.0666447  88.0799332
  13.6699324  19.7467670  86.9098053   7.1109414   0.7150520  29.0786705
   7.0886135   0.8653936  28.1336155   6.2240024   0.4285929  29.2966442
  43.7280235  58.9441376  48.8469925  44.4209290  59.2094803  49.4517326
  44.1803627  58.7884789  48.0178986   0.9316644  36.9741211  81.6616364
   1.2233375  36.2952461  82.2701492   0.2534004  36.5495644  81.1363373
   0.1923620  55.2885551  42.4634094   1.0875982  55.6270561  42.4492531
  -0.2616978  55.8388138  43.1015892  72.2590561  57.5339165  57.7223587
  72.7806931  57.1694717  58.4374123  71.4727936  56.9885635  57.6973686
  47.8711548   0.2528723   4.3393884  48.7012367   0.1165184   4.7961211
  47.2044373   0.1501248   5.0184751  40.9422531  69.7562027  65.1205521
  40.8093910  70.1038132  66.0024567  41.7385025  70.1875916  64.8105164
  77.7178040  10.3470163  58.8260574  77.8333206   9.7418194  59.5586052
  76.7942123  10.5955496  58.8640594  70.0671310   6.4938831  52.2607765
  70.8597488   5.9752812  52.3987427  69.9929276   6.5694699  51.3094521
  61.5911674  39.8112526  51.5889664  62.4042587  40.3145523  51.5465164
  61.5226898  39.3939362  50.7302513  73.7052460  35.5513420  22.9925632
  74.3767776  35.8978462  23.5801163  72.8914032  35.9545670  23.2947273
  56.0250015   1.1315659  25.8235359  56.1190414   1.7143570  25.0700493
  55.4100723   1.5839670  26.4009686  53.4283447  40.5671005  35.9024086
  54.1293907  41.2122116  35.8096848  52.6484909  41.0870895  36.0964928
  73.3904495  20.0596199  85.4525223  72.6715546  20.5765553  85.8161163
  73.8470917  20.6632786  84.8666000  23.2343998  60.2910309  41.4259796
  23.2297173  60.4310341  40.4790840  24.1036701  60.5775566  41.7061653
  83.2926865  58.6083832  23.8452415  82.4117355  58.7668076  23.5060425
  83.8745728  58.9912872  23.1887131  25.2313919  16.6031151  76.9651031
  24.8291454  17.4703465  76.9167328  24.5048656  15.9943333  76.8317795
  78.6419601  38.8456078  19.7000103  79.2564087  39.1898460  20.3482246
  78.0932236  39.5949669  19.4685268   7.2536006  61.4986687   2.6887667
   7.2822404  60.5446930   2.7618783   6.3715801  61.6879845   2.3687170
   2.4675162  60.5315285  41.8209877   1.9618866  61.2786674  42.1409111
   3.0730371  60.3290901  42.5341454   5.0220394  27.8394012  65.4351654
   4.3345041  27.9240761  66.0957413   4.5493088  27.7418633  64.6085815
  66.9754486  15.8453865  40.3780327  66.8293381  15.6564980  41.3049622
  67.8546982  16.2224026  40.3461227   0.7588715  44.5027962  62.0609398
   1.6987668  44.3216667  62.0563850   0.3489751  43.6441765  61.9561119
  68.7578964  38.7027626  48.1914787  68.7976227  37.8990593  47.6731033
  68.6957245  38.4005280  49.0975800  36.8434639   5.1381474  13.4639425
  37.3936157   5.6642871  14.0442371  36.0597839   4.9516344  13.9809465
  59.4434280  20.1415882  65.9057770  59.2635994  19.6867752  66.7285995
  59.7084198  19.4479923  65.3016739  10.7521830  35.9393959  13.1434221
  10.5394745  36.2837944  14.0108185  11.5400763  35.4135628  13.2811069
  65.4932785  13.0799456  42.9801292  64.5891724  12.9767218  42.6832085
  66.0227509  12.7447395  42.2565765  31.0898666  67.1076660  40.9088707
  30.5896053  66.5556259  40.3078499  30.7580109  67.9920731  40.7542114
  75.2820892  21.7405434  44.3693161  76.1067657  21.2558308  44.4038277
  74.6091461  21.0635414  44.2982674  81.1428146  11.1887703  78.2698212
  80.2063065  11.3225079  78.1238556  81.5688171  11.7663956  77.6364899
  41.1362152  25.0488777  72.4185867  40.2530632  25.2215118  72.7448883
  41.0057373  24.7613068  71.5149765  38.7152786   5.4291592  23.7207413
  38.5555878   6.0330997  22.9954929  39.4075623   5.8473682  24.2326794
   7.4286604  61.6336937  30.7233601   6.5559850  61.9910927  30.8874760
   7.6227818  61.8813286  29.8193550  62.9410973  44.5649986  56.8935127
  62.3330574  44.6821289  57.6234436  62.9165955  43.6259308  56.7097092
   2.7109458  70.3819809   4.8286667   3.2379193  71.1744308   4.7259626
   2.0124102  70.6353912   5.4320416  64.9267044  54.2206001  46.2992249
  65.2398224  55.1120796  46.4523697  63.9860191  54.3191032  46.1521378
   8.7392101  39.2894554   9.9697256   9.1915226  39.8312569  10.6163282
   9.4400625  38.9315262   9.4248161   5.5124817  69.0202713  78.5283890
   6.1092377  68.8703308  77.7951584   5.7447181  69.8906326  78.8520889
  75.8241501  27.0754967  64.1381912  75.8425217  26.2908421  63.5902748
  75.0874863  27.5855637  63.8014603   3.5528710  24.4044266  30.6374531
   3.1007290  24.8210526  31.3710880   4.4804406  24.5775623  30.7982941
  57.8445663  61.9220924  56.6239090  56.9944344  62.3245659  56.8014526
  57.8782921  61.8442955  55.6704712   8.1862955  58.2086411  19.6011391
   7.9040165  57.9991608  18.7108192   7.4245977  58.6278763  20.0015030
  68.4754639  27.7348366   6.3981242  69.2056885  28.1889553   6.8185816
  68.4408035  28.1031170   5.5152874  85.2951279  60.6595192  71.5164642
  85.9135056  60.2507935  72.1220932  85.0834198  59.9691353  70.8881531
  64.2719193  53.6231117  30.1102543  63.5948906  53.1071014  30.5479660
  63.8254623  54.0177307  29.3611317  66.7159653  36.4822922  84.3527603
  67.2928772  36.0175743  83.7465897  65.8331604  36.2986450  84.0315704
  26.8790016  51.2021294  23.3949680  27.7547150  51.0319901  23.0479660
  26.7217827  50.4858055  24.0101089  27.9315853   7.0996671  36.0352058
  28.8396168   7.1657948  35.7396736  27.8299332   7.8181849  36.6594086
  26.9428749  62.1832619  53.4694786  26.1761265  62.1063461  52.9016647
  27.5381317  62.7604866  52.9912376  70.5896988  58.4846268  86.7153091
  71.4663086  58.3507690  86.3549347  70.1639938  57.6312675  86.6329193
  53.0361938  51.2739525  72.2873001  53.6069298  51.9633904  71.9479294
  52.8202553  51.5574760  73.1756821   3.5483038  22.4307728  51.1860085
   3.8115892  22.0706100  52.0328827   2.8288798  21.8680534  50.8996391
  82.9768753  20.9417057  13.0645065  82.2112961  20.3681641  13.0303078
  82.6849899  21.7009735  13.5690317  42.3528366  41.7857056  27.2030659
  42.4557495  41.6507492  26.2610321  42.8595085  41.0789261  27.6030388
   2.3396149  17.0562553  88.0917435   2.0649593  16.2073746  87.7450485
   2.7764552  17.4854450  87.3560791  52.8440742  45.3395386   1.8706294
  53.5319328  45.6822433   1.2999809  52.1808052  45.0006943   1.2693892
  53.7522964  21.7115345  55.8874016  53.1760788  21.4237213  55.1793289
  54.5899467  21.8863811  55.4584503  65.4929733  41.7584419  81.9659882
  65.8877106  42.2937965  82.6543274  65.2132874  42.3893166  81.3026581
  44.2049484  11.6328659  28.2397652  44.4344978  11.9327641  27.3602200
  43.8833923  10.7403650  28.1121845  49.3472977  25.3528690  19.8150921
  49.0379333  26.0109844  20.4375153  48.5528908  24.9026527  19.5279446
  22.9136066  64.3359375  32.8655090  23.3777542  63.8990974  33.5796280
  23.4670410  64.1934967  32.0976219  67.8159409  62.8614006  61.3914413
  66.9954147  62.5720406  60.9924011  67.5652771  63.1580048  62.2663269
   2.2335155   2.8196106  72.7990723   3.1820691   2.9063482  72.7044449
   2.1174409   2.3418128  73.6203308  49.8828163  34.3735886  67.5729599
  49.0720634  34.1858330  68.0458832  49.6661949  35.1188469  67.0126953
  10.5875216  31.7366238  21.7926922  10.7336445  31.6952801  20.8476162
  11.4370003  31.9873848  22.1556492  80.1968384  60.3286819  36.8132324
  80.4898911  59.4610291  37.0916748  79.2468796  60.2454453  36.7302856
  23.5351696  54.4086227  15.8804207  22.7246838  54.9151497  15.9330959
  23.2467937  53.5127258  15.7059364  15.5920086   6.4714885  48.9069786
  15.1289606   7.1381192  49.4143486  15.1271219   5.6574311  49.1004295
  82.3164215  38.1519394  46.1974983  82.8596191  37.3649712  46.1545105
  81.4181137  37.8220558  46.2187233  34.8247604  17.0751934  87.8492355
  34.2948418  17.6215744  88.4296494  34.1871071  16.5451698  87.3710022
  46.4073181  51.0541878  26.6064625  46.4816399  51.1628456  25.6583576
  47.2096024  51.4423141  26.9556465  47.5655823   1.9584484  12.1861467
  48.4914474   1.7394650  12.2912769  47.2363129   2.0428150  13.0809622
  67.6006088  37.9633980  11.0407982  68.1178436  38.5835266  11.5547504
  68.0035248  37.1128769  11.2154636  38.3801231  59.3012924   4.9066191
  39.1949654  59.6152687   5.2986407  38.5820999  58.4126816   4.6136818
  79.1875763  38.1184616  73.1565475  78.6499252  38.7963028  73.5660553
  79.8277130  37.8823891  73.8279114  80.9444809  15.2955542  49.3840561
  81.6801682  15.8910122  49.2411423  80.1768112  15.7901287  49.0971527
  56.8811760  19.9595127  50.1759987  56.2397766  19.8107414  49.4812279
  57.3984947  19.1545296  50.2007713  17.9470406  26.4106674  88.0837860
  18.8758850  26.4986343  88.2976685  17.6729355  27.2944469  87.8387756
  40.5396385  54.1042442  15.9785919  39.9113045  54.8052025  16.1520481
  40.5029984  53.5512123  16.7590084  14.2073345  62.4539986  72.1172867
  14.5467720  61.5668526  71.9990158  14.9857197  62.9900093  72.2690811
  82.4945679  11.8807831  39.9781342  82.7895432  11.2738104  40.6569595
  83.0999069  11.7387753  39.2503777  27.1796932  64.1012497  72.5619659
  26.4431057  63.8958511  73.1377106  27.9541225  63.8471947  73.0639114
  49.9174232  12.0327730  80.5399170  49.0596390  11.7394962  80.8472137
  49.7209816  12.7000895  79.8824005  47.5783081  14.9953671  51.6938591
  47.1486702  14.6844244  52.4907036  48.1407967  14.2687140  51.4258728
  27.8570366  55.1060562  83.3283615  27.6048298  54.9500542  84.2384720
  28.7640667  55.4075699  83.3794937  63.0358124  47.1730156  46.8062057
  62.0820885  47.1879463  46.8863220  63.1958847  46.9173470  45.8977776
   7.6469612  44.8768654  42.3048363   8.2638483  44.2622070  41.9075012
   7.4177914  44.4774094  43.1439743  71.3887100  21.6271400  79.0635681
  71.1485062  20.7561207  79.3795776  72.0456543  21.4636726  78.3868637
  22.0432205  46.0353622  77.7720566  22.0366478  46.7220192  77.1052017
  22.5217037  45.3122673  77.3665619  37.5687256   9.6698160   0.6493974
  37.8984299   9.4783344   1.5273848  36.7692375   9.1487627   0.5748641
  79.0642929  13.7565041  48.3843803  78.5111923  14.4777927  48.0842781
  79.9013138  14.1691217  48.5973892  13.9011126  51.4544868  65.2264481
  14.5267582  51.2643280  65.9254761  14.1947517  52.2898636  64.8629150
  83.8083572  45.3679581  72.4572525  83.3304443  46.0372543  71.9674835
  84.5013123  45.8502655  72.9082718  32.7618217   3.3168979  55.9924545
  32.1761665   4.0664201  55.8854179  32.1950607   2.5529382  55.8857803
  53.5587807  17.2247524  85.2024460  53.7728462  18.1175022  84.9315109
  52.7369308  17.3115864  85.6854095  64.6227493   9.0097408  40.1325951
  64.7119522   9.1924410  41.0679512  65.5186081   8.8574553  39.8317947
  13.1305418  38.8398323  25.4128838  13.5369835  38.4913635  24.6194038
  13.4382906  39.7448807  25.4619865  73.9438171  68.7404099  42.8738594
  73.1427917  68.4888992  42.4141579  74.3157349  67.9123459  43.1775475
  80.2686310  29.7324886  14.0489302  79.5546112  30.0967007  13.5257158
  79.8303986  29.2220669  14.7298508  52.8101425  38.7539406  69.0155411
  53.0318260  39.3697968  68.3171158  51.8957672  38.5238075  68.8506470
  46.2242088   6.3434219  36.5167770  46.4321518   5.7834201  37.2647018
  47.0713005   6.6851182  36.2305756   2.6951106  35.0303230  27.4522781
   3.4912190  35.1697922  27.9651051   2.7669756  34.1287498  27.1388550
  79.8059616   1.1113720  36.7534332  79.4585419   1.6092008  36.0133667
  79.0825653   0.5448539  37.0217285  56.6856651  33.8261261  30.8518333
  55.8013649  33.7379074  31.2074451  56.9870758  32.9253998  30.7332134
  28.3980274  42.0650978   7.3609815  28.7264957  41.4789200   8.0426960
  29.0598431  42.0242157   6.6706481  68.4804611  35.7903404  82.4358444
  69.3008041  35.3217621  82.5898056  68.0792160  35.3341217  81.6961823
  30.0440388  60.5381203  24.7451878  30.3132133  60.4482803  25.6593590
  29.7402935  59.6646957  24.4980049  12.2070332   4.5844936  47.2959900
  12.2992315   3.8081987  46.7436333  12.7217112   4.3845968  48.0778961
  25.8534470  58.8087502  76.6856155  25.0853672  59.2240829  77.0777740
  26.4514675  58.6693726  77.4199066  56.7996368  20.1899490  42.1332245
  57.5631180  19.8712254  41.6518326  56.9559326  21.1287136  42.2358093
  48.2602234  12.4408340  77.9887466  48.1859932  12.9029446  77.1537781
  48.6278000  11.5875683  77.7584076  29.5848789  51.2689552   5.2529092
  28.6921616  51.0960503   5.5518913  29.8735409  50.4409256   4.8691473
  21.7953091  29.9287968   1.0964345  21.9620457  29.0777416   0.6912994
  21.0565720  29.7733040   1.6849252  37.2376862  44.3413277  14.0811148
  36.5215950  44.9723854  14.1533079  37.0740013  43.8868294  13.2547531
  76.6591721   2.8357995  84.2871704  75.8390503   2.5997627  83.8536682
  76.6069946   2.4135857  85.1446304   3.7748623  52.1343422  51.7357140
   3.4225283  52.1708298  50.8464661   3.0977652  52.5384216  52.2783852
   5.0497651  55.8039742  27.6746902   5.8018136  56.3937302  27.6213989
   4.4520683  56.2327538  28.2871761  30.5557938  31.4225292  65.0901566
  29.8329601  30.8352280  64.8692017  30.2401085  31.9168301  65.8466263
  46.5817795   2.9402671   9.6764898  47.0371971   2.6262763  10.4576664
  47.1112938   3.6765115   9.3702383  83.2316437  33.9890938  55.0317993
  83.0757065  34.1649513  55.9596977  82.3698807  34.0737953  54.6238518
  75.9693069  45.8363876  67.1699905  75.6174088  46.2316475  67.9675903
  75.9915924  46.5538979  66.5368195   1.1546173   6.9535556  81.0793762
   0.8453819   6.5772624  81.9033966   0.6864904   6.4649544  80.4023514
  80.6833115  53.3820915  51.3825264  80.5325623  53.9141464  52.1638260
  81.0461426  52.5621071  51.7174988  25.1248512  48.5271721  65.0771866
  25.1407146  48.0233345  64.2634735  25.6042995  49.3296738  64.8713837
  22.7881203  71.2571030  76.0528793  21.9947872  71.6621857  75.7025146
  23.3519363  71.1347275  75.2891006  15.2300692  56.7424469  47.2573318
  15.9656763  57.3546982  47.2410469  15.1882420  56.4423943  48.1653252
  52.7831421  47.3975067  53.3058739  53.2365112  48.0955467  53.7785568
  52.9813614  46.6038055  53.8028412  28.2695065  49.5702477  72.4425507
  28.3323479  49.5174408  71.4888763  27.6203728  48.9069710  72.6768951
  58.2943497  26.8329067  15.6304827  58.0864296  26.6934261  16.5543575
  58.3532715  27.7839184  15.5391703  43.0554352  29.3696175  73.1168365
  42.8030739  29.7263355  72.2651901  43.5373535  28.5693722  72.9080429
  17.5736637  60.3945427  16.9883480  16.8998032  60.3695793  16.3089962
  18.3891144  60.5484848  16.5112991  42.1663437  19.1596508   8.7974520
  43.0510178  19.4996624   8.9315395  42.2461205  18.2179394   8.9492598
  65.6661606  33.6758881  58.4658775  64.8443146  33.1855698  58.4857101
  66.2888947  33.1185417  58.9325600  38.3144760  71.6476212  85.5502701
  39.0570602  72.1202240  85.9263687  38.1853523  70.9004745  86.1344986
  77.3446045  12.1074324  44.9036255  78.0752640  12.7230892  44.8459129
  77.4954147  11.4890490  44.1887207  31.2782917  27.1815090  84.5648270
  30.5945377  26.5558910  84.3254242  31.7729988  26.7425041  85.2567596
  74.2486343  61.7929306  30.9468384  75.0143661  61.5852814  30.4113274
  74.3451233  62.7228127  31.1523533  85.1105576  33.6247253  22.4075680
  85.6057281  34.4408188  22.4785366  84.6394806  33.5574036  23.2381001
  26.3946362  35.0517578  16.6852551  26.8830795  35.7594757  17.1057167
  25.9974022  35.4592400  15.9155827  39.2571831  50.8975220  31.2752476
  39.4308243  51.3708916  30.4616127  39.2828636  49.9739265  31.0251598
  23.1167374  64.4950867  25.3015251  23.7058735  63.9374657  25.8096657
  22.2912636  64.4753189  25.7857113  46.5142670  18.5576019  31.2991791
  46.7900200  19.3759747  31.7120438  45.5578079  18.5904579  31.3175869
  70.9308929  35.9023247  86.1168823  70.6585083  36.3896027  86.8944397
  70.7922516  36.5115166  85.3917007  64.8801956  20.9167576  13.9968891
  64.2055283  20.9666100  14.6740723  65.7059479  20.9872208  14.4758358
  64.1210403  67.4656372  65.2345428  64.6133728  68.2437439  64.9730301
  63.7137794  67.1567001  64.4252625  63.9685669  41.9182739  40.2101517
  63.0304108  41.8034477  40.3615074  64.0452118  42.7962303  39.8365860
  46.7459106  67.8943405   0.6106682  46.3912125  67.0246277   0.7951161
  47.2644577  68.1108093   1.3855764   1.5164446  48.4400139  62.5759468
   2.1107199  48.6601334  61.8585777   1.6677150  49.1221809  63.2301636
  70.4734268   9.4377851  66.7164993  69.9612732   9.5044518  67.5224075
  70.2418060  10.2226267  66.2199097  24.8920860  64.9920273   0.3090144
  25.2668629  65.0001678  -0.5717289  25.2519779  65.7728958   0.7296733
  72.1602173  35.6800003  19.7649574  73.0357971  35.7471237  20.1458511
  71.5978546  36.1627541  20.3707104  25.6225338  67.2214813  35.1334877
  26.1256313  66.4747696  34.8086052  24.7181702  66.9087753  35.1574249
  57.5885239  30.8474579  47.6950302  57.0116692  31.6074123  47.6179314
  58.4178734  31.1367130  47.3145828  26.9153862  63.6354523  48.1801720
  26.4553032  64.0590134  47.4554939  27.1561203  62.7737198  47.8400307
  53.1369095  24.7755585  12.2535782  53.6720810  24.6450539  11.4707670
  52.7706604  23.9111080  12.4401722  51.0996361  49.9217300  45.2691727
  50.3873024  49.7213516  44.6620026  51.7867699  50.2952881  44.7173271
   0.8375117  50.0758514  84.4176178   0.5298757  49.8400574  83.5424042
   1.7255911  50.4048882  84.2787552  21.9692440  25.1543465  77.7619553
  21.6303291  24.9930420  78.6424942  22.4265633  24.3462086  77.5295639
  28.6166306  39.2997322  86.2191086  29.3295231  39.8236237  86.5845566
  27.9386101  39.3135223  86.8946304  46.8586807  11.7808161  80.3061981
  47.3089523  11.7838087  79.4615250  47.0282021  12.6493616  80.6710587
  86.0999527  65.8414917  26.7440033  85.4643631  65.1734390  26.4871750
  86.4410248  66.1786346  25.9156113  67.7177734  69.4411392   1.1841940
  67.6772766  70.3967438   1.2216072  66.8023529  69.1638870   1.1471589
  26.8707333  15.7665596  55.0911636  26.9483433  16.7179928  55.1617584
  25.9304676  15.6085787  55.0064735  80.2702713  27.4244347  71.8140640
  80.7022171  26.8824787  72.4743195  80.0091705  26.8069820  71.1308289
  65.6636276  37.7257843  23.2518024  65.2870712  38.4710960  22.7838840
  66.2512054  37.3163261  22.6167221  58.6770592  10.3817024  51.7903633
  58.2819099  10.2411089  50.9299431  58.1814842  11.1096745  52.1654587
  57.1301956  55.9198875  42.6008339  56.9641571  56.1478996  43.5155334
  56.9285049  54.9857597  42.5464363  14.1316986  19.7831078  77.0463943
  14.0989094  19.2279129  76.2673492  14.0407219  19.1736317  77.7788544
  85.2463150  10.5327597  64.4194870  84.5517044  10.3657007  63.7824326
  85.4855499  11.4487638  64.2782974   1.6472433  25.5204277  28.5527039
   1.2563065  26.3801670  28.7084160   2.4889348  25.5541611  29.0072899
  79.2106018   8.2535887  26.1211472  80.0024338   8.5986814  26.5336361
  78.7333832   9.0309830  25.8310528  84.8187180  21.3068943  27.9188538
  85.2361450  22.1309338  28.1697426  85.1894684  20.6585827  28.5175781
  14.5204706  32.1105347  60.1580276  15.0955877  32.5964050  59.5669250
  13.9808836  31.5725498  59.5786743  40.6108818  45.4874420  11.3017035
  39.9344826  45.4515686  10.6253691  40.9373016  46.3865776  11.2665358
  55.5476494   9.2039585  39.7402878  55.9579086   8.8721848  40.5389404
  54.6304512   8.9405193  39.8149490  73.4348221  18.7899132  54.5797424
  73.7118073  19.4448090  55.2205391  72.5342789  19.0320225  54.3637886
  32.5527420   2.6046889  18.6077480  32.0957832   2.2703531  17.8359699
  32.2415009   3.5052676  18.6989517  70.3779449  25.2862453  74.9438629
  69.4740448  25.2710152  75.2584457  70.5760651  24.3722115  74.7400894
  60.3825531  12.8120213  24.5852318  59.6511650  12.8498316  23.9688911
  61.0590591  12.3161945  24.1240044  24.6726532  27.8498898  88.3575058
  23.9709320  27.7185955  87.7198715  25.1999397  28.5595493  87.9906540
  49.6694374  31.8209457  18.7068768  50.1456184  31.8174725  17.8765335
  49.0234528  31.1205311  18.6154537  78.0309830  60.9860611   2.6597621
  78.1444092  60.8863831   3.6049769  77.1078568  61.2151451   2.5521474
  59.7840347  18.7611370   5.6004076  58.9113426  18.3705025   5.5551872
  59.7704239  19.2857742   6.4009094  39.9482994  41.2487411  60.5023308
  40.4727364  40.9340782  59.7660027  40.5239792  41.1594925  61.2618446
  20.4810410  52.1344490  28.2290134  20.3544693  52.2361107  27.2856808
  21.1916351  51.4980278  28.3081169  74.0059204  68.3726883  65.9876785
  74.0218048  69.1541824  66.5401688  74.8278503  67.9233856  66.1846161
   9.2262135  71.0980148  11.4377079   9.9298906  70.6272812  11.8843374
   9.0531187  70.5802841  10.6514349  55.3954697  48.5823898  79.8864365
  55.0391464  49.3891602  80.2584381  55.7456169  48.8453445  79.0352707
  26.4763908   5.7123661   6.0459790  27.1270390   5.4832478   6.7096004
  26.4420986   4.9483562   5.4703536  16.9874096  63.1820145   0.1266207
  17.0587406  62.3208466  -0.2851235  17.8721581  63.3724747   0.4383515
  55.9254684  34.1762123  77.7990341  56.4429054  34.8641853  77.3804779
  56.4728851  33.8715401  78.5227356  21.4333839   7.6397266  25.3208294
  21.6302814   7.8349714  26.2369862  21.9320183   6.8445716  25.1328812
  62.9504814   8.1810980  16.2703075  63.2550011   8.9697781  16.7191792
  63.7520714   7.7079864  16.0470276  64.2624435  70.7365417   2.6147437
  63.6210060  71.4094925   2.8426147  63.7353897  69.9710464   2.3856814
  47.6141853  37.7144699  82.3515167  47.6579361  38.6546288  82.1771088
  48.4737663  37.4975777  82.7124939  43.4021454  29.0349464  81.3617783
  44.0933075  29.5701675  81.7517319  43.8454857  28.2306423  81.0920029
  55.5334053  54.1226273  58.6942825  55.9335251  53.4194145  59.2057762
  56.1807175  54.8276176  58.7089386  48.0552979  51.5919533   9.3406954
  47.8045921  50.6751175   9.4537840  47.2771034  52.0865097   9.5977154
  39.0194359  39.2923393  78.8344040  39.8774338  39.5470085  78.4949646
  38.8187828  39.9524612  79.4978867  79.1497955  56.7053680  47.6601868
  78.8453522  57.2451324  46.9306641  79.8045731  57.2464180  48.1015091
  21.3577328  39.4093666   2.5969687  22.0276356  39.3995514   3.2806113
  21.8051128  39.7632675   1.8283097  28.7243443  19.5630283  59.5547066
  28.5848389  20.0419216  58.7377434  29.5047951  19.9640961  59.9371605
  70.6628189  68.9184723  38.9232254  69.7978897  68.5226593  38.8161659
  71.0710831  68.8387222  38.0611382  67.2416153  21.8265438  54.8872299
  67.9969864  22.1161385  55.3988800  67.3377151  22.2717056  54.0453110
  78.9657288   9.0871811  45.3881149  78.7935410   9.6042547  44.6012115
  78.3872528   8.3288050  45.3077126  31.6914482  39.5442619  83.1152115
  31.9028130  40.0583572  82.3359375  32.0990829  40.0238495  83.8363647
  67.2659836  10.9787836  70.5639420  66.4784851  10.4612551  70.7319946
  67.1244202  11.7936554  71.0457840  67.4232559  68.6913605  11.7231178
  68.1710815  68.5029449  11.1561174  67.8076630  68.8281784  12.5889950
  35.6376801  57.8311424  60.9328957  34.7969131  57.4386406  61.1680260
  35.6383362  57.8404465  59.9757423  16.0791054   7.2817717  72.5365677
  15.4594316   6.9071269  73.1625748  16.1251812   8.2087469  72.7707214
  35.9211502  54.6884079  87.4808578  35.8528290  53.7369080  87.5596619
  35.0238380  55.0029144  87.5910721  26.5856533  38.8052711  15.1740580
  27.1439476  39.5671463  15.0188618  27.0258789  38.3245468  15.8750162
  58.9138336  69.6195602   9.0274630  59.6602974  69.8164749   8.4615564
  59.3064003  69.2876587   9.8349066  48.8424301  69.3464432  61.4486351
  48.4853668  68.5582504  61.8578758  49.7688980  69.3425217  61.6892128
  52.9997978  16.1036034  76.9144516  52.5893021  16.2516766  77.7663879
  52.6928253  16.8295193  76.3712692  86.0266418  32.8177452  35.6193237
  85.4116211  33.5454330  35.7112465  85.5585632  32.0621948  35.9746819
  79.2851715  26.3033028  34.5579987  79.6847229  27.0115891  35.0628967
  79.2699280  25.5591679  35.1598816  40.0497475   9.6650133  69.3021469
  39.6648331   9.1707792  68.5783997  40.6236343  10.3029919  68.8780365
  28.9798717  11.8844175  10.4396839  28.9007397  12.6364069  11.0266104
  28.0779724  11.6723137  10.1992273   4.3111982  53.7631073  74.7963257
   4.6889300  54.1176949  75.6011963   3.3671744  53.7629280  74.9545975
  13.1289988  30.2492104   0.5960619  13.8260326  29.6518517   0.8672430
  13.1689320  30.2454414  -0.3602974  10.6916285  47.1465263  15.4814949
  10.8702784  47.9893265  15.0643549  10.2213945  47.3715210  16.2842960
   8.5295877  12.4316492  43.7125053   8.4310055  12.0671864  44.5920944
   9.4725666  12.5611067  43.6111908  24.2591496  62.1906052  75.6453476
  23.6186504  61.6229134  76.0739746  23.7863216  63.0074234  75.4857559
   5.3331995   8.8651171  84.3974075   4.9550381   9.1885443  83.5797119
   4.7388344   9.1814384  85.0777740  40.6220589  10.0923185   7.1617308
  40.5432434   9.4765282   6.4331551  41.0516434   9.5902510   7.8542747
  79.1007690  17.4074249   0.4756356  78.6660919  18.2325668   0.6911210
  78.6873856  17.1248608  -0.3401508  34.0248070  38.0092087  72.5813446
  34.9727249  38.1329613  72.6300354  33.7205429  38.1335373  73.4803391
  41.0960693  66.0519104  46.3571892  41.5619278  65.6651688  45.6158142
  40.1753807  65.8461761  46.1952133  31.0132599  15.2761993  66.9179611
  31.0704117  16.2296524  66.9803467  30.5354881  15.1176510  66.1038208
  54.9301720  23.7435207  21.9201908  54.4474754  24.0968552  22.6674461
  54.4194641  24.0121307  21.1564789  44.9875984  12.5615959  25.7850304
  44.1405525  12.3678617  25.3835220  45.3086052  13.3276052  25.3092003
  35.0454521  30.4694672  15.3933229  34.2496643  30.0880203  15.0225792
  34.9796944  30.2951317  16.3322144  17.1585522  18.2811928  19.9989223
  16.3109894  17.8541908  19.8742599  17.4994621  17.9045715  20.8101978
  26.2077217  26.3598652  63.3098488  27.1603489  26.4532681  63.3129349
  25.9313927  26.6954651  64.1626358  73.8061829  34.2477989   4.5842714
  74.6981430  34.4274788   4.8815141  73.8519592  34.3215828   3.6310182
  24.5079117  51.2852745  51.0725975  24.8200569  51.0670357  50.1944351
  23.7298889  50.7407150  51.1924477  21.2858315  49.5297508  46.7890358
  21.1591587  48.6543274  46.4232178  22.1890869  49.7543106  46.5655823
   2.7065957   1.0278256  28.4262276   3.0838251   0.5038052  29.1328621
   3.0941150   0.6682401  27.6282539  14.1683683  69.7053909  47.5414200
  14.1263952  70.3722610  46.8560333  15.0344496  69.8185654  47.9329910
  10.4320383  20.4585743  85.9031601  10.7695799  19.9557571  86.6444244
  11.1266861  20.4123764  85.2462234  73.1972427   7.0256310  27.4320221
  72.5990677   6.2913218  27.2934074  72.9205627   7.6836147  26.7942619
  12.6683731  36.8139687  17.3355598  13.5213394  36.4000435  17.2038536
  12.4819279  36.6876144  18.2658863  47.4196205  61.2735138  15.5226994
  47.5108032  60.4093437  15.1212950  46.4833107  61.4649925  15.4689331
  86.4547806  13.9915180  60.9949875  85.6701965  14.3228445  60.5580864
  87.1272583  13.9937687  60.3138123  61.0341873  36.4394646  52.2614403
  60.9699440  36.9547615  51.4573441  61.4564209  35.6242943  51.9904327
  13.1473961  67.9301682  15.9746466  13.0355902  66.9840088  16.0669212
  12.4380569  68.1993790  15.3910408   5.3923078  43.6350021  79.3686218
   5.5843797  42.7656288  79.7200851   5.2472539  44.1794815  80.1423950
  41.2544441  64.3152390  70.6467056  41.6167259  64.3352356  69.7609406
  42.0137444  64.4275055  71.2186279  22.9169559  22.7759743  30.4655762
  22.2377911  23.3479671  30.1080933  22.7215309  21.9137802  30.0986137
  61.8369331  55.7862778  54.5874405  62.5364494  56.1680603  54.0572052
  61.0775299  56.3443413  54.4197960   6.6870918  24.7153778  58.2748909
   6.2017508  23.9410343  58.5596199   6.0227056  25.4003849  58.2001381
  81.4573364  36.7438431  54.2884064  81.0034180  35.9041595  54.3599815
  81.3134842  37.1668015  55.1349525   7.5973763  58.9709702  82.1665192
   8.3762665  58.4696884  81.9251099   7.7430868  59.2144699  83.0806961
  67.0999680  12.4344702  41.0940132  67.7966080  13.0709610  40.9333992
  67.5602188  11.6349115  41.3491707  25.5188637  70.9820709  21.1475449
  25.7921238  70.4528503  20.3982220  25.2624645  70.3423538  21.8118114
  62.4035110  23.5544777  78.8358688  62.7237053  24.0506763  78.0825424
  61.6238785  23.1035118  78.5117798  18.0466633  10.7082396  83.3792496
  18.6292515  11.0260143  82.6894379  18.2593441   9.7787333  83.4630280
  60.7157669  60.5240135   5.4778657  60.3490677  60.6391640   6.3545094
  60.8565025  59.5804939   5.3991461  74.3922043  18.8335819  76.3749847
  73.6564636  18.2747269  76.1247940  74.8482361  19.0116825  75.5524521
  42.4665871  70.3108139  46.8183632  41.9634285  69.6811600  46.3020325
  42.2706528  71.1585922  46.4194756  55.1891518  66.9333878  76.3941269
  55.2082062  67.8571167  76.6443253  54.3002357  66.6467743  76.6036835
  58.3550377  44.4230537  80.2002563  57.7655640  44.0332184  79.5546646
  58.0475006  45.3248863  80.2916183  79.2888489  39.9492073  27.8073883
  79.7216873  40.6805496  28.2478695  78.9313889  40.3303261  27.0053864
  33.1812935  54.1898842   4.4129558  33.5046577  55.0872803   4.3332691
  32.2688484  54.2378654   4.1276994  41.0835457   8.3730984  88.2235489
  40.4695435   9.0476780  87.9334106  41.8527222   8.4938698  87.6667557
  48.9502449  48.4187965  25.9420452  49.4106445  49.2210770  26.1882362
  48.1773224  48.7226334  25.4661198   6.9862080  54.7226830  44.3099060
   7.7896810  54.2428741  44.1087952   6.8185849  55.2478027  43.5273552
  71.0588760  18.8420830  72.7942734  71.1065140  19.4917717  73.4956055
  70.8990402  19.3556538  72.0024796   2.6114697  49.5656967  33.3492393
   3.0902481  48.8811798  33.8166122   3.1091821  49.6978149  32.5423546
  84.9024200  63.4797401   1.8865557  85.2934494  62.7012405   2.2831206
  85.0003662  63.3433914   0.9441930  82.7021179   4.1765342  64.2949219
  82.3481598   5.0611706  64.3863754  82.1872940   3.6483161  64.9049759
  13.1197596  34.5199318   5.3121362  13.3923187  35.3202744   5.7609043
  13.9302483  34.1587906   4.9530849  51.0578041  30.5600262  33.2279091
  50.8895378  31.4431896  33.5564499  50.7410316  30.5760498  32.3247871
   5.0090904  64.9912796  50.5319824   4.1984243  64.4839859  50.4906616
   5.0991178  65.3705597  49.6577530  15.3128204   5.0108452  31.8727646
  14.9177160   5.8616686  32.0630913  15.4136944   5.0011492  30.9209442
  26.5179405  65.7079010  29.8476200  26.1612663  65.9450684  28.9916019
  27.4657249  65.7928162  29.7440624   3.8645175  39.2458191  35.0478554
   4.1251831  39.0383682  34.1504974   3.4334247  38.4509697  35.3618660
  41.2600899  34.5603523  88.6653214  40.5321655  35.1562538  88.4885101
  41.3460884  34.0430756  87.8645325  35.2847176  17.6648884  63.6965065
  36.2083511  17.6567669  63.9476471  35.2721329  17.2858353  62.8176498
  39.6698189  55.8099251   5.2551551  38.7254143  55.6821976   5.1655889
  39.9593468  55.0801430   5.8027148  43.2018280  68.1830063  81.6598434
  43.5778427  68.4855194  82.4864807  43.5119324  68.8141632  81.0104599
  51.6299629  50.4701004  89.1506958  50.6910400  50.3261299  89.0326691
  52.0124626  49.5931854  89.1199417  21.2143593  66.8369370  39.6163864
  20.8204079  66.2743759  38.9496346  20.4905243  67.3785706  39.9309158
  78.1486588  10.2556839  43.1615829  78.7731323  10.8336897  42.7232056
  77.7725220   9.7299871  42.4556084  75.1477585  52.0549545  45.5019836
  75.0979996  51.4862099  46.2702827  75.5883255  52.8443909  45.8165092
  51.2210884   6.6809521  11.1402740  51.0694237   6.4927793  12.0664606
  51.8755074   7.3794980  11.1418285  43.3268394  58.3914604  12.9750051
  44.2366982  58.1848755  12.7611942  42.9183350  58.5771370  12.1294994
  27.3515587  44.4627228  19.0103149  26.5168686  44.6534805  18.5823727
  27.4770985  45.1866226  19.6238651  56.6070251   5.3597188  53.8318024
  55.8177490   5.2223105  53.3079720  57.0989799   6.0269160  53.3531990
  33.7186127  26.7502689   0.8571532  32.9641800  27.1285572   1.3087742
  33.9866409  26.0172291   1.4112705  58.5118904  46.2180061   2.2025876
  58.1902275  45.3291016   2.3529639  57.8850403  46.7798386   2.6582599
  84.9433289  18.3825264  80.9042892  84.2995300  18.7355137  80.2901611
  84.9360733  17.4390564  80.7429199  13.6275215  57.0624809   3.8601975
  14.3320169  57.5248413   4.3142247  13.4483051  57.5983849   3.0875907
  75.7970276  64.6678696  37.7170601  76.1348114  63.9960747  38.3093643
  75.2568588  64.1856079  37.0910645  64.2299576  56.1126862  50.5006294
  64.0127945  55.2913322  50.9415932  63.7373161  56.0817604  49.6805153
  77.8721237  51.7658157  79.0475845  78.4674530  51.1544456  79.4812241
  78.0379410  51.6396217  78.1133423   9.6747112  50.1937675  67.6535721
   9.7157640  51.0408936  68.0973358  10.5284176  49.7943230  67.8204880
  65.3964081  17.4850101  48.6212044  66.1581879  17.9815712  48.9201355
  64.7255402  17.6543140  49.2826385  39.3871613  58.0285988  31.2146263
  39.7683983  58.1623573  30.3468704  39.9506187  58.5303230  31.8037109
  11.7935419  22.7029305   3.9692075  10.9624004  22.9295502   3.5519791
  12.2846584  23.5243549   3.9865220  68.3025360  19.3963318  43.0944519
  67.6481476  19.9494591  42.6677704  69.0289536  19.3611794  42.4721069
  77.7710266  17.2425194  70.9626617  78.3123016  17.1875820  70.1751099
  78.2137451  16.6791306  71.5973434  27.4062195   9.2190676  18.4017048
  27.6538029   9.8048410  19.1171093  26.8556080   8.5545921  18.8158684
  86.1161118  16.3574638  22.5427113  86.0953751  16.8669300  21.7326202
  87.0477982  16.2472591  22.7325592  54.1152191  35.8693123  53.2787018
  53.5144386  35.4969521  53.9241791  54.3356018  36.7332230  53.6270103
  75.7104416  24.5137863  88.2379913  75.8452454  24.9925003  89.0558472
  75.5360794  25.1944695  87.5879898  41.5765648  62.2130051  43.2629242
  41.7819939  61.3662224  43.6591339  40.8151360  62.5271759  43.7505264
  52.7817192  19.9849014  58.9367790  52.3357849  19.4690552  59.6085510
  52.9372215  19.3659058  58.2234116  85.3187485  19.1514645   7.2812862
  84.4411011  18.9060421   6.9884763  85.4561081  20.0267200   6.9189444
  82.2849731  52.1532784  60.4495010  83.1418991  52.4787064  60.7251854
  82.1642227  51.3448257  60.9475517  24.9681454   3.5043468  25.5173836
  24.4903507   2.8854353  24.9652138  25.8851528   3.3890691  25.2683029
  41.0304604  33.6240349  58.8443985  40.2172012  34.0872650  59.0450439
  40.9921379  32.8305473  59.3783875  33.3911667  56.2262001   9.5713301
  33.8511581  56.6417389   8.8419695  32.9342690  55.4843826   9.1748695
  72.0968933  38.2682877  30.7345581  71.9261017  39.0500870  31.2597771
  72.0090637  37.5415344  31.3512783  39.8440475  54.0150375   7.7372422
  40.4395714  53.8056793   8.4567919  39.0144920  54.2248688   8.1662455
   8.5667801  58.1502304  87.3535767   9.1441545  58.9062462  87.4599304
   8.1718750  58.0271378  88.2167816  53.2835007  63.1132011  34.8658714
  53.3082695  62.5523300  35.6411400  54.1908798  63.3920860  34.7429237
  28.8961830  39.7013283  73.3231735  28.1950893  40.3527489  73.3044586
  28.7260609  39.1444588  72.5634460   1.5513545  33.0965080  21.5848293
   1.0705150  33.9040031  21.7664261   0.8880250  32.4077950  21.6284237
  86.1277618  62.0519409  88.8990631  86.4804459  62.3896027  88.0757523
  85.5735779  61.3162956  88.6384201  80.2500076  11.4388285  46.8209801
  80.1070023  11.3499756  47.7632561  79.7884674  10.6931610  46.4373169
  52.4603996   6.8428683  68.2728500  53.1396027   6.1818824  68.4070740
  51.9640579   6.8458948  69.0913010  65.3802948  22.2688732  88.0462341
  65.0604401  22.9125214  87.4140701  64.7240906  21.5721607  88.0315475
  72.2516022   2.0518215  50.9184875  71.3628845   2.1345224  50.5727005
  72.4511871   1.1185236  50.8453217   5.1075187  69.0614243   7.6465344
   4.9479561  69.9344711   7.2879844   4.6046934  69.0413208   8.4607792
  35.3180199  57.4733353  19.9059563  35.9998131  58.1031227  20.1399632
  34.6156425  58.0075035  19.5350533  33.0850525  17.8492184   4.9982462
  32.8527718  16.9212322   5.0317421  32.8202553  18.1933422   5.8512959
  38.6673012  62.9923935  33.7584572  39.5508957  62.7042885  33.9875679
  38.0898743  62.3851433  34.2211189  49.4816818  37.8248520  64.5291595
  49.3932724  37.5251198  63.6244087  50.2927780  38.3331070  64.5349197
  68.5933762  11.7733316  46.1162605  67.9104538  12.0082455  46.7444801
  68.7889786  12.5907822  45.6582794  50.8515778  35.7978859  19.0705280
  50.0084419  35.3463097  19.1083889  50.7045326  36.6194229  19.5392303
  75.7559738  33.4047394  61.7676773  76.1804276  33.8437233  62.5048141
  74.9758987  32.9999161  62.1469231  58.2377892  50.4254227  78.4419403
  57.6196938  51.1422386  78.2992249  58.8860664  50.5258102  77.7448807
   1.6879103   9.9731073  25.8018932   0.8214032   9.5664806  25.7946758
   1.7069793  10.4818964  26.6124516  16.1868668  25.9776554   1.0441128
  16.3115139  25.0600052   1.2862158  16.7461376  26.1011124   0.2771657
  13.5480022  30.2241402  64.3097000  13.6028481  29.9357891  63.3986130
  14.0689774  31.0266190  64.3387222  42.9827576  31.0921497  78.0873489
  42.7879295  31.8837872  77.5857697  43.3146515  30.4725475  77.4375992
  64.9593658   2.2634206  35.7539406  65.1939163   2.8587625  35.0420494
  64.4768066   1.5563442  35.3256760  47.4879265  57.3869057  42.5906181
  47.3777199  58.3257866  42.4403229  47.9204903  57.3298759  43.4425964
  44.4468346   9.4708729  16.0922832  43.6652336   8.9201136  16.1369610
  44.4043427   9.8772202  15.2266569  78.0646057  39.3959999  56.8798904
  77.6163177  39.0007744  56.1321831  77.3766556  39.8672485  57.3498764
  62.9986153  12.3954048  42.0498848  62.4214668  12.8288221  42.6786003
  62.4322052  12.1918840  41.3055801  58.3069916  33.8640862  82.4590149
  58.4493675  33.0143623  82.8760605  58.0106621  34.4329567  83.1695099
  48.4848061  60.9639854  59.8300705  48.0122986  60.4113350  59.2075386
  48.1701088  61.8499908  59.6506500  79.9912262   2.1517427  44.9058723
  80.6246796   2.5577807  45.4975586  80.4369202   2.1256022  44.0591736
  10.7786255  -0.2227307  80.5536041  10.9068785   0.5610914  80.0193634
  10.3464136   0.0956494  81.3460999  40.1802101  59.5369377  67.3307800
  39.9250679  58.7124214  67.7446747  39.4644585  60.1388702  67.5347595
  29.5108070  48.4831085  40.9560699  29.5369720  49.0956306  40.2209778
  30.4051266  48.4800911  41.2972679   9.4362068   8.8065014  24.5801468
   9.5462856   9.0289822  23.6556931   9.5283251   9.6409712  25.0399361
  24.4566002  49.7196617   7.5444632  24.7530022  49.6581841   8.4525375
  24.4408035  48.8137283   7.2358165  47.3841476  48.6385803   9.7846575
  48.3248215  48.6768646   9.9575644  47.0251198  48.1441345  10.5214462
  79.4474945  63.8271675  17.5539341  78.8897934  64.3734741  18.1077862
  78.9379196  63.6983414  16.7539520  50.4667053  23.5517540  62.2725830
  50.7068062  24.4629650  62.1044159  49.9169312  23.3076057  61.5280228
   9.9432125   0.5449653  34.1464310   9.6145706  -0.2860406  34.4894409
  10.3311348   0.3185385  33.3011627   0.8620888   4.4279246  16.3653603
   1.4861037   3.8281672  15.9565477   1.3119209   4.7441397  17.1488724
   4.7052598   9.3095121  78.2321396   4.7303562   8.3531132  78.2020874
   5.5797334   9.5809393  77.9531097  26.9263496  54.8041039  43.6796608
  27.4890842  54.3439560  44.3024178  27.3203926  55.6725197  43.5971184
  38.1222572  28.2397709   5.5932755  37.9574356  27.4035091   5.1576939
  38.8513947  28.6238327   5.1063595   6.0611653  71.0275421  44.8052711
   5.3104248  71.5968857  44.9739914   5.7460785  70.1478653  45.0129051
  26.2944717  49.5527229   1.7749566  25.4929504  50.0705490   1.6997621
  26.0605373  48.6960258   1.4177761  18.6721897  53.6133614  38.7449226
  18.3308086  53.0177956  38.0778427  19.3217430  53.0945320  39.2193985
  16.6257172  49.4996376   4.7036705  15.9663782  50.0874214   4.3348670
  17.4141140  50.0379257   4.7737241  78.4757919  24.2055454  36.2499390
  78.8758698  23.3808918  35.9740448  79.1143875  24.5931282  36.8484421
   4.6057482  50.6446648  68.9683151   4.0294590  49.8812523  68.9319611
   5.4899096  50.2785263  68.9475021  43.5471802  17.0096321   0.0498679
  42.8151512  16.5120144  -0.3144644  44.1658211  16.3425159   0.3473131
  27.2934666   4.0103545  52.7498360  27.1164017   4.7728724  52.1989784
  28.1688271   3.7243395  52.4887428  53.2193298  71.2899094  46.9804688
  53.6240616  70.6483002  46.3967247  52.6604538  70.7695694  47.5576477
  56.9710655  44.8717079  72.1872787  56.2328987  44.3003960  72.3992844
  56.5840950  45.5841675  71.6784668  52.4329376  52.0570450  30.4532032
  51.4908066  52.1152382  30.6120605  52.7019768  52.9582977  30.2754459
   2.5646877  23.1265831  59.2301674   1.6399605  23.0919647  59.4749374
   2.6251030  23.8669643  58.6264954  39.7702408  67.6226196  48.6473274
  38.9455261  67.4100113  49.0842209  40.1029739  66.7792816  48.3402596
  55.3133240  49.3326874  86.1513443  55.9206657  50.0614510  86.2789230
  54.5717583  49.7178421  85.6844711  29.7832565  21.8048897  57.8858185
  30.5157013  22.3858624  58.0913048  29.8481655  21.6624451  56.9415054
  67.0834503  21.6746178  18.9566193  68.0221100  21.8619709  18.9496117
  66.7064590  22.3603210  19.5079098  63.2165108  18.5188084  20.5711174
  63.4433327  17.5912418  20.6374760  64.0594177  18.9671860  20.5025406
  22.1426144  24.7010384  84.5654602  21.6559200  24.4620667  85.3542938
  21.5099411  24.6009674  83.8541641  50.0367470  36.4517059  82.9273300
  50.1600533  36.1459808  82.0286865  49.3751144  35.8637352  83.2917023
  67.6007385  63.1700821   2.2018304  68.4408188  62.7446136   2.3735068
  66.9737167  62.4489021   2.1473789  85.3016205  52.5936775  10.9182396
  85.6732330  53.0735016  11.6584473  84.5869064  52.0829086  11.2984200
  16.8686085  36.2937431  47.2744217  17.6521206  36.6553879  46.8602295
  17.1653309  36.0056076  48.1376495  14.0157318  13.4937067   0.5126861
  14.8722458  13.4523640   0.9380163  13.4433107  13.8966150   1.1655505
   3.7269938  55.4576302  71.3146439   4.3987527  56.0840683  71.0453033
   3.6441782  54.8607101  70.5709610  18.8647804  26.7962990  12.7030087
  18.6101418  25.8762550  12.6329269  19.7995110  26.8024788  12.4969244
  16.5721149  53.7640724  25.0499821  15.7615004  53.3747139  25.3779125
  16.4688435  54.7022209  25.2094727  57.6182137  19.5055866  35.6510925
  57.6609497  20.4471970  35.8177490  56.6819077  19.3141956  35.5969086
  10.4916229  50.1895790  40.7983894   9.9032269  49.7998085  41.4449921
  10.7081461  51.0493546  41.1591301  82.7557755  23.4449558  31.1484566
  81.9260483  23.8865929  31.3294125  82.5908661  22.5272770  31.3650246
  78.4390411  69.0928879  52.8377724  77.9601746  68.6908493  53.5625381
  77.9106598  68.8974457  52.0639229  48.2597923  33.8730621  -0.0410269
  48.3541794  32.9213371  -0.0017197  47.3290825  34.0282974   0.1199481
  36.0711937  59.8227158  58.9491882  35.2666206  60.3304482  59.0545731
  36.7717514  60.4341812  59.1762466  74.7158585   0.7410484  39.5447578
  75.0960770   0.0860165  40.1300735  74.1789322   0.2347024  38.9352036
  43.0781784  17.8890953  83.2503052  43.6424065  17.8571930  82.4777374
  42.4761543  18.6129284  83.0774918  27.5814781   1.6139891  71.6795120
  26.7814617   1.4116068  71.1944885  28.2862530   1.4790177  71.0460205
  45.5122223  57.7893562  10.9094915  45.8224106  58.5753632  10.4598169
  46.3019333  57.4020653  11.2871122  21.4412155  58.4718399  12.2799673
  21.5061646  59.2393188  12.8482857  21.6841812  58.7950249  11.4123554
  46.2772446  37.3819466  75.4608841  47.0280914  37.1341820  76.0003967
  45.5307274  37.3473701  76.0590057  84.5799484  51.3264313  41.6181488
  84.4615097  50.3874359  41.4749832  84.3049316  51.7307320  40.7952614
  30.0334358  10.4992113  61.5503807  29.9466152  10.6369705  62.4936295
  29.5728111   9.6765757  61.3850708  85.0457230   7.0375838  55.1934624
  85.1420975   7.9890294  55.2346344  85.1819839   6.7438412  56.0942307
  61.8671227   2.9478223  84.2169189  62.6033058   2.5101061  83.7895203
  61.2532730   2.2417481  84.4191055  75.6227493  71.8454590  31.2996845
  75.3149490  70.9917831  30.9951725  76.5439682  71.7040558  31.5178223
  31.0634937  27.6164932  41.6610794  31.6304531  27.0418282  41.1467400
  31.6624966  28.0890751  42.2390900  57.5849228   3.5715268  86.7642899
  56.7011642   3.8535118  86.5283127  58.1618233   4.1783509  86.3004074
  31.9637203  71.2063065  32.9840508  32.6000824  70.5186462  33.1799965
  32.4606590  72.0209579  33.0591278  15.9649630  65.0575790  46.2068138
  15.1737223  64.7925873  45.7378273  16.3026600  65.8003006  45.7062492
   0.3016052  39.9043999  66.9896240   0.4284023  39.9491920  66.0419235
   1.1529753  40.1424370  67.3566971   8.9407139  65.9460297  22.4012012
   8.8744774  66.4828033  21.6114407   9.8522387  65.6542892  22.4167614
  32.9143791  70.4663162  88.6854858  32.3654022  69.8694839  89.1940536
  32.3296013  71.1859360  88.4479599  36.6009636   6.8784380  33.8208275
  36.5677147   6.1878524  33.1588440  36.0594826   7.5811234  33.4612961
  25.7587013   9.5515528  24.5901279  25.2479153   9.0160580  25.1972313
  25.3477154  10.4151802  24.6284771  25.8496571   2.1027052  60.5065689
  26.0346222   1.3670564  59.9227524  25.9821053   1.7494905  61.3862991
  74.7762985  58.9214363  57.1282539  73.9524918  58.4971123  57.3681030
  74.5136795  59.7700157  56.7716331  70.4255753  30.7543106  63.4996262
  70.8683319  30.2933540  62.7870865  70.3299789  30.0959721  64.1878738
  70.7532272  57.6678276  51.2497520  70.0202942  57.2571831  50.7910538
  70.6978836  57.3274803  52.1426849  60.1063919  28.7928581  53.9868279
  60.9996223  28.8124065  54.3303223  59.8456078  29.7129059  53.9451752
  28.1570911  34.3190460   6.5760188  28.6549149  34.3075027   5.7585411
  27.2711678  34.5688896   6.3134332  11.9053507  20.2670403  22.0796337
  11.9131355  21.0773869  21.5702133  11.4643421  20.5016575  22.8961506
  61.1484299  29.8418751  47.3242531  60.4761543  30.4176559  46.9599037
  61.1072044  29.0532589  46.7833099  59.3039665   5.9693227  23.4111748
  59.6522141   6.1054654  24.2923222  59.0804138   6.8477674  23.1036186
  72.4033203   4.0135665  46.0288506  72.3049393   4.9510164  46.1954041
  71.8377762   3.8434932  45.2755470  46.1573296  29.1584301  88.1297607
  45.8177032  28.7152939  87.3522568  45.4434853  29.1075802  88.7654266
  71.0020447   6.6301932  33.7583504  70.4252014   7.3939624  33.7703056
  70.6262512   6.0566540  33.0904732  31.1029243  57.2821198  10.6681414
  31.9528332  57.0033302  10.3273182  30.5906544  56.4754143  10.7232456
  58.7760315  65.8925018  26.1814346  58.8272705  65.8137741  25.2288551
  58.9546890  66.8166656  26.3553410  14.1268234  55.0363731  26.8982067
  13.5311022  54.8354454  27.6199932  13.6018648  54.9003563  26.1094418
   3.5492096  14.0322104  56.3222008   3.2231624  14.8747377  56.6385422
   3.9407706  13.6220779  57.0933685  20.6255779  22.6696606  69.1198959
  19.9863987  22.3937702  68.4629593  21.4573708  22.3114357  68.8100204
  72.4076080  62.7490196  21.0092525  72.0349731  61.9218826  20.7039242
  72.2632523  63.3584404  20.2853756  43.4133644  53.0948792  24.0301743
  43.5084572  53.9592285  23.6300621  43.5618668  53.2454491  24.9637203
  82.1909561  32.5225830  40.3076630  82.1898270  33.4703712  40.4415550
  83.1093445  32.2688332  40.3993988  84.4435425   3.4808981  60.5956497
  84.6661148   3.6768115  61.5057678  83.4889069   3.4108694  60.5922813
  79.4971161   1.8559610  72.7965317  80.1745758   1.5022320  72.2202072
  79.9120483   1.8947625  73.6582565  52.7261581  55.2714081  43.3570328
  53.0755348  55.2734222  42.4658737  53.0148926  54.4365349  43.7256050
  22.9170055  10.2924643  44.5682755  22.8936882  11.2281847  44.3679886
  22.1061096   9.9472914  44.1947327   4.5320921  33.1822128  74.0709686
   5.3786330  33.5390701  73.8021774   3.9205031  33.9109116  73.9651947
  41.2456436  66.8806686  23.3243999  41.3264351  66.0668030  22.8270760
  40.5728149  66.6952591  23.9795036  11.5321875  52.4673195  25.1676311
  12.0156183  53.1217651  24.6634216  12.1272364  52.2237740  25.8767395
  39.8642616  37.2492027  85.1957703  39.7835350  38.1509933  85.5063934
  40.6715546  36.9286995  85.5979996  41.5138168  61.7641602  31.2449245
  41.9366226  61.2331924  31.9198647  42.2394409  62.1558304  30.7588177
  65.7435303  51.1678009  85.7648544  65.6519775  50.5632515  86.5013199
  65.2992783  51.9652290  86.0529251  56.9264221  39.9524918  12.9021578
  57.4649811  39.1652107  12.8223143  57.0403137  40.2294044  13.8113222
  50.9541283  64.4730682  65.6931915  51.0622292  65.2449188  65.1375046
  51.7813492  63.9990196  65.6082230  45.8250008  50.3500900  36.1831970
  45.1463661  50.3754692  36.8577652  46.6280403  50.5969124  36.6419258
  56.7632866  62.1481209  88.1459274  56.2829285  62.9625473  87.9969406
  56.6980286  61.6762505  87.3156738  10.0222197  54.1798973  19.3326015
  10.2735310  53.3318443  19.6984940   9.9614315  54.0254898  18.3898945
  77.8543167  64.9407578  27.4336357  77.2901917  65.2926102  28.1222553
  77.8033676  63.9913177  27.5440845  41.6662331  53.7158165  32.2802391
  41.7506981  53.6153946  33.2284012  40.8989143  54.2765770  32.1661949
  85.0349503   9.6095467  57.0445175  84.2315216   9.2850313  56.6377869
  84.9080811  10.5564804  57.1032715  58.4615250  37.5168190  13.3527260
  59.2315063  37.1500130  12.9181967  57.7561607  36.9027214  13.1488190
  24.2782116  62.1722221  86.7079773  24.3372288  62.9032021  86.0928268
  23.6211891  61.5902405  86.3260727  46.9548149  63.6784782  38.1842346
  46.9752274  64.1348038  37.3430519  47.2187424  62.7820511  37.9768906
  84.3450241  36.5734634  17.0105267  84.5450592  37.4112167  17.4281273
  84.4053192  36.7531052  16.0722694  32.5267639  10.4386454  34.5225105
  33.1828194   9.9738941  34.0030632  33.0333900  11.0514793  35.0554237
  52.1303215  48.2096672   8.3159361  52.4596062  48.9434967   7.7969971
  51.1928215  48.3810272   8.4051609  21.2579746  40.5021324  76.3625031
  21.9335880  39.8298645  76.4510117  21.4700718  41.1453590  77.0388947
  59.4683838  57.4375763  84.2082520  58.5127029  57.4888611  84.1915894
  59.7351761  57.6480675  83.3134079   2.6950436  22.2052956  80.3636322
   3.2679985  21.8278408  81.0310822   2.7580891  23.1505470  80.5005875
  57.1707878   9.1970253  58.2038574  56.8091888   9.4983454  57.3703804
  56.9756317   8.2601662  58.2248955  72.2010193  58.6785774  72.0324860
  72.8912582  58.0851707  72.3285675  72.3281097  58.7403946  71.0857773
  15.7541161  52.0156441  67.9557190  16.5847282  52.1301842  68.4174500
  15.6251850  51.0676231  67.9263077  41.0944862  47.5018845  58.6481934
  40.5690422  47.0560150  59.3125267  40.9471359  46.9975662  57.8480797
  73.6483994  65.8594742  76.3058243  72.7533188  66.1318741  76.1036758
  74.0662460  66.6479187  76.6522217  17.8528309  48.2256966  20.0755711
  18.1668797  47.9685135  20.9424400  16.9030781  48.2917328  20.1747684
  24.0642986   4.1042814  62.9657326  24.7624226   4.6630850  62.6242714
  23.5134106   4.6956429  63.4786110   2.5473378  16.7570992  72.5038605
   2.9843602  15.9059191  72.5309525   1.9261881  16.7306938  73.2316742
  70.1713943   0.2806482  58.9201393  69.3366699   0.0455323  58.5149384
  70.1028214   1.2217158  59.0811424  82.5405045  18.3989220  85.6335526
  82.6387863  18.9198456  84.8365479  83.3169098  17.8393536  85.6512146
  57.1682358  37.8079338  38.3063774  56.2490807  37.9144936  38.0613670
  57.2559509  38.2958260  39.1252174  34.4582253  49.6183395  87.7377625
  34.9938354  49.4704819  86.9583511  34.2893219  48.7413712  88.0821991
  19.4805355  69.3119507  70.1683731  19.4631271  68.7563705  69.3891068
  18.6635971  69.8090286  70.1264267  21.9030495  48.1928368   9.6346979
  21.2930698  47.6075592  10.0837030  22.6382694  47.6307602   9.3902445
  52.0173950  65.5594864  80.3861313  52.3987236  64.7010040  80.5700302
  51.1008644  65.3753738  80.1804581  74.2367325  45.5365219  48.6286697
  73.6447678  45.7234535  47.9000587  74.9488144  45.0320587  48.2353668
  34.1707687  42.4042091   6.1654887  33.3918266  42.2698936   6.7053380
  34.7407799  41.6656189   6.3795114  86.4166183   5.4817810  57.1460953
  85.9749832   4.8382211  56.5920029  86.9388657   4.9571538  57.7529335
  15.3078365  43.3541794  31.9044342  14.9562998  43.9223671  31.2190037
  15.7942657  43.9450912  32.4792747  70.8334732  27.1099758  53.7719994
  70.1198349  27.6127911  54.1645813  71.4552536  27.7721767  53.4701538
  48.9750061  37.3335876  45.3492813  49.7124367  37.0593910  44.8040771
  48.5559006  36.5149460  45.6146278  57.5920868  21.9875584  67.5244675
  58.5404015  21.8897095  67.4387131  57.2657967  21.9564972  66.6251373
   4.7860465  34.5752869  10.7774696   4.8793459  35.1094627   9.9886837
   5.2470665  33.7620049  10.5718851  17.6824093  63.4027672  44.8314590
  18.2415638  62.9902382  45.4897881  17.0424309  63.9015121  45.3393097
   5.2942219  16.7533607  26.9245987   6.1714416  16.7662773  26.5417805
   5.3450251  17.3633957  27.6604710  11.6511793  35.4353523   2.8438783
  12.0478735  34.8808861   3.5157647  12.1689835  36.2402229   2.8611462
  12.1877842  55.8053322  30.4520283  11.8855410  55.1654015  29.8075352
  11.4528055  56.4104080  30.5516357  29.5002632   8.2170124  74.2140961
  29.9316311   7.5346160  74.7283783  30.2118664   8.7944221  73.9375916
  54.9525604  47.1918831  14.7899704  55.6400604  46.6274147  14.4364862
  54.1905060  47.0153542  14.2382984  82.1064835  25.6004410  52.2579041
  81.2959747  25.1167030  52.4169731  82.1178360  25.7441826  51.3116264
  63.2350883   5.3528652  60.3904419  63.6193314   6.1459780  60.7640190
  63.6780853   5.2456512  59.5487213  80.5241318  61.6977577  54.4759674
  80.2121429  61.9914665  55.3319016  80.0252151  62.2193489  53.8472786
  76.3307419  66.9869766  66.7189484  76.6858978  66.2111816  66.2850876
  77.0730209  67.5882645  66.7798309   6.1171126   0.6600641  60.0715446
   6.3323221   1.0639367  59.2308311   5.2368665   0.9783307  60.2718086
  35.5227623  29.6320744   6.5176287  36.4468689  29.8078423   6.3405328
  35.1954193  29.2353668   5.7103472  38.0208969  37.4792976  63.5761871
  37.6489143  36.8690147  64.2129059  38.8707275  37.7210922  63.9443665
  84.1457672  61.1562004  57.2001228  83.6998291  61.6449699  56.5084038
  84.6287003  61.8215446  57.6903534  58.4462318  53.1920700  43.0696297
  57.7827606  52.9184418  42.4362488  59.1221581  53.6156616  42.5405540
   0.0574998  30.2570839  70.1415634   0.9292344  29.8779430  70.2536469
   0.1808442  31.1927013  70.3016739  54.6325836  48.8688545  56.8439522
  54.6048012  48.9427872  55.8900185  53.7988358  48.4604149  57.0769119
  86.4044952  17.8915901  20.3580189  87.2153549  17.8330917  19.8527355
  85.7238235  17.5953693  19.7537231  50.3115997  67.9289703  86.9505768
  51.1099052  67.7708588  87.4544983  49.9067154  67.0657349  86.8661728
  85.9083023  28.8150902  28.4317703  85.4028931  29.3650303  29.0304050
  85.2788162  28.1696014  28.1103287  61.0762749   4.7692151  14.9056311
  62.0260620   4.8845353  14.8765984  60.9273376   3.9090230  14.5130520
   8.8148775   5.3776417  63.9383812   9.6670198   5.1787095  64.3263397
   8.8755894   5.0442972  63.0431557  55.6770210  35.1131592   5.4471693
  56.2780037  35.7351608   5.8572459  56.2196388  34.3492661   5.2515416
  60.8528023  53.4969177  28.7265625  61.0129738  54.1690445  29.3889980
  60.7308655  53.9865532  27.9131603  51.9607315   2.1130624  51.1486893
  51.9506416   2.8832443  51.7169762  52.5867119   1.5185405  51.5621147
  36.8692894  65.6898880  65.6935120  37.3178635  64.8520737  65.8078690
  36.9464722  65.8771667  64.7579880  39.2675095   2.1742659  40.2254143
  39.7183609   1.5335422  39.6754723  39.2334518   2.9672863  39.6904449
  76.6544876  68.5991211  15.6848240  76.0297089  69.2210922  15.3119478
  76.5858307  67.8258514  15.1248512  67.2464447   7.3402081  73.4167175
  66.3795776   7.2999744  73.8206482  67.1576691   6.8353424  72.6083450
   3.1810503  38.6887817  64.1477966   2.5772438  39.3357430  64.5126114
   3.4665732  39.0692749  63.3171730  64.1925964  48.9995956  11.0214996
  65.1320343  49.0193710  10.8390217  63.7804718  49.0138092  10.1576824
  29.5096169  60.3331375  64.7717667  28.9487801  61.1071472  64.7207184
  29.9678154  60.3135262  63.9315872   3.0570703  59.0055923  79.8390884
   3.7521248  59.0571671  80.4951935   2.8817537  59.9167023  79.6037674
  55.4463196  61.6898384  39.0453987  54.5735931  61.9858398  39.3041687
  55.4038734  60.7356186  39.1077919  13.8926630   1.3488997  82.9596329
  13.2902136   1.8553890  82.4148788  13.8804960   0.4712000  82.5778885
  53.2408562  19.3707676  46.1873894  52.8889465  18.4956589  46.0243683
  53.8310928  19.5325012  45.4513893   6.5313115  66.4626236   4.8094063
   7.2434731  66.8850021   5.2896681   6.9061527  66.2632980   3.9515042
  78.8796082  35.4135284  11.5178671  78.3632507  36.2062531  11.6634569
  79.5503006  35.6769180  10.8877611  56.0185471  47.5588188  32.2167397
  55.9408684  46.6669693  31.8779106  55.1567955  47.9477386  32.0672264
   0.1835347   9.1059551  54.1219292   0.9145358   9.0493250  53.5065727
   0.2372344   8.2981577  54.6326256  86.6688995  62.7876892  70.1847229
  86.6993332  63.4221764  70.9007721  86.0002975  62.1569481  70.4518661
  38.1705666  56.5175934  29.1862755  38.6270752  56.9794731  29.8894787
  38.7888184  55.8449554  28.9006958  73.5675964  30.3670673  45.9935760
  72.8622742  30.1195774  46.5914917  73.2031631  31.0865631  45.4780655
  24.5880604   3.4097087  72.7365875  23.7176952   3.0447724  72.5768509
  25.0634212   3.2620831  71.9189911   6.2147145  14.2594995   9.4550810
   6.0440307  13.6272097   8.7570057   6.3252783  13.7244835  10.2410622
  62.6648903  53.6386833  74.8535156  63.5545197  53.8043633  75.1655121
  62.1002769  54.0078659  75.5325928  19.3993378  25.1137714  64.1646423
  18.9771996  24.3218346  64.4976120  19.2906647  25.7560673  64.8659821
   3.8361385  26.3801060  21.3287773   4.5891757  25.9535789  21.7377300
   3.1663415  26.3906403  22.0125103  45.5419197  42.7191048  83.9464264
  45.3113708  43.3130150  84.6608124  45.9265862  43.2862549  83.2781448
  27.1221771  47.5825310  16.9032402  26.8394814  48.0448761  17.6922588
  26.8024464  46.6881828  17.0221844  43.1642151  31.5604286  17.3546810
  43.7273865  31.8493042  16.6366119  42.6439095  32.3326302  17.5765400
  53.8795280  61.0294914  16.3438320  53.6767883  61.9558563  16.4741325
  53.9394073  60.9287376  15.3938341  26.3246574   3.4318664   4.4689355
  25.4559155   3.0327299   4.4219394  26.9142132   2.7011297   4.6551566
  19.3915462   0.0227695  49.4049072  19.2504177   0.7673383  49.9896584
  18.7359600  -0.6207003  49.6739578  60.7191467  57.9601746  10.4172935
  59.7904816  57.7457619  10.3287497  60.9607811  58.3329887   9.5694408
  69.0073547  18.8678684  48.4513474  68.4566956  18.9241428  49.2322655
  68.8316116  19.6795177  47.9753532  54.2318840  40.7524605  70.3765793
  53.7228165  41.4763374  70.0117722  53.8004951  39.9650917  70.0446396
  35.4586411  40.8179398  15.2405519  36.2573967  41.0435410  15.7173376
  35.7631302  40.3032875  14.4931211  70.6580582  69.7476425  10.4721107
  70.7776337  68.9909668   9.8981991  70.5254364  70.4832153   9.8741312
   6.5007696  11.4194784  87.1553421   6.6158948  11.6981258  88.0638199
   5.8208160  11.9988213  86.8114548  10.7462225   2.4083607  15.3789778
  10.9036541   1.7060568  16.0100212  10.1476154   2.0247507  14.7380838
  26.5875244  46.7685127  11.8440819  26.7515793  47.0153999  12.7542267
  27.0636272  47.4202995  11.3295631  79.6422119  46.6677666  14.3873558
  79.5762253  45.7988129  13.9913759  78.8165054  47.0966797  14.1627073
  11.8994408  54.8771706  10.2368736  12.0550060  55.3200378   9.4026661
  12.1100378  53.9595947  10.0638466  52.3672371  17.6754379   9.0650282
  52.1300240  18.5978432   9.1605806  51.5384636  17.2046509   9.1529341
  54.2348938  50.3149338  69.7116089  54.4036636  51.1858253  69.3520355
  54.8572769  50.2292480  70.4337845   2.1603107   6.3233752  68.3779068
   2.0204785   6.3371186  67.4310760   2.4493799   5.4301243  68.5643845
   5.3096175  43.3738861  54.1870728   4.7507987  42.6019936  54.2772484
   6.1407280  43.1157722  54.5856476  60.4326172  10.5712032  66.1499863
  60.4035492  11.4834633  66.4383774  61.3485870  10.3150234  66.2577209
   7.0128880  35.8953705  39.4905472   6.3690777  36.0474510  38.7987289
   7.5590658  36.6814423  39.4864578  73.9782944  25.0903358  76.2589569
  73.7414932  26.0061741  76.4052353  73.2165909  24.7134075  75.8185349
  20.0826473  68.3393860  77.5563889  19.9388199  69.1636047  78.0213699
  19.8576584  68.5350952  76.6468277  59.1514282  37.9905853  20.9049835
  59.6455269  37.6883850  21.6670704  58.9678154  38.9118996  21.0885372
  53.9329605   3.3833809  35.1613503  53.4200096   4.1252680  35.4818459
  54.7790146   3.4695468  35.6006699  60.9118118   9.0328827  18.6537552
  61.6459579   9.3443785  18.1243877  61.1331062   9.2943239  19.5475731
  24.5576534   7.8289766  26.2134476  23.9132481   8.1000175  26.8672905
  24.5563850   6.8728113  26.2579269   2.3879423  21.5998955  27.9689827
   3.1693473  21.5242329  28.5166264   1.6731123  21.2959156  28.5283089
  13.4259796  44.2200890  35.4304276  14.2480574  44.1344757  35.9132233
  13.4094152  43.4599152  34.8489685  56.9400215  18.1223335  46.1398659
  56.2285423  17.4822063  46.1235695  57.3746643  18.0189476  45.2933273
  50.3202057  17.6704941  20.3277359  50.5649376  17.8130817  21.2420692
  51.1199341  17.8530979  19.8344612  65.0416412  64.8176346  60.8435097
  64.4073639  65.1793289  60.2245636  65.0245209  63.8745918  60.6803703
  63.1277809  59.5882835  81.2487640  62.2015381  59.4201965  81.0754089
  63.1310539  60.0996399  82.0579224  49.1352768  32.7255783  80.6499863
  48.5503693  33.2298355  81.2155228  48.5576172  32.1160088  80.1906738
  50.1256523  66.5341644  49.3582497  49.8748322  67.3834991  49.7215004
  50.9984665  66.6783371  48.9926834  57.1155968  14.7396545  63.4133987
  56.5428238  14.4502153  62.7031975  56.8255844  14.2373152  64.1748352
  66.9392548  48.4762764  40.3475494  66.3071518  49.0152054  40.8231812
  66.7915192  47.5889130  40.6746521  56.7346344  58.2087402  70.1497803
  56.8750572  57.4896049  69.5338669  56.6396255  57.7803802  71.0004959
  81.0864258   2.2560146  16.2743320  81.1695633   2.7328618  17.1001282
  80.3555679   1.6547053  16.4175034  45.8188667   4.0924306   5.8788471
  46.7088890   3.9560258   6.2036338  45.7644234   5.0344100   5.7177815
  70.6564865  49.1472588  68.9249802  71.0860138  49.0842056  69.7780685
  69.8078766  49.5481110  69.1131363  53.1724052  55.1495514  83.2431412
  52.7849541  54.2751770  83.2829285  52.4363976  55.7444267  83.3868408
  64.6765213  49.0800858  55.3327217  64.3493118  49.5623322  56.0920677
  65.1487045  49.7348862  54.8184166   5.7769594  30.0471458  53.1123009
   6.5195284  30.6503601  53.0813828   5.1714258  30.4445801  53.7380829
  26.8825569  23.7226372  10.0424910  27.2258453  23.1720905  10.7462549
  27.5953007  23.7688904   9.4052410  52.1605911  12.5721960  24.7878017
  51.8382187  12.1451492  23.9941158  51.3714447  12.8917542  25.2252483
  11.6439657  48.9325027  48.5518875  11.3167267  49.6013603  47.9504128
  11.8633261  48.1904144  47.9884872  14.0755548   5.8892345  87.9802475
  14.4748726   6.7462282  87.8307877  14.6575947   5.2729735  87.5356293
  80.9991608  52.5735016   2.6075408  80.7633209  51.6742668   2.3795366
  81.5883942  52.4840012   3.3565574  24.0407085  43.5523186  10.2353325
  24.7273178  42.9623680   9.9242725  23.7611008  43.1755905  11.0696745
  47.4363174  29.0975533  19.4999275  47.4191437  28.5345192  18.7260227
  47.5503769  28.4931469  20.2333546  78.4112625  64.9927979  79.3065109
  78.5201645  65.1373672  78.3665848  78.6244965  64.0682526  79.4329224
  34.4354210  38.2589264   6.0753655  34.2032127  37.7912560   6.8776112
  33.7417030  38.0315628   5.4562578  62.0648842  36.2906113  14.2147751
  61.2457733  35.8456421  14.4322462  62.7330284  35.6084175  14.2813053
  24.9464359  14.7432566  82.3856277  25.5520344  14.1045485  82.7618332
  25.5125675  15.4122171  82.0006332  43.4449158   0.0380717  67.0157547
  43.9038239  -0.3425084  66.2668915  42.8680153   0.6988218  66.6325684
  86.3256302  49.7171669  10.8444471  85.6336746  50.1839142  10.3758545
  86.4393311  48.9027214  10.3545666  69.1577988  35.2191429  32.3339539
  68.6230927  35.3898125  31.5585861  69.9605789  35.7190437  32.1860580
  13.3049850  52.5957260  43.3978157  13.0556345  52.4833221  42.4805260
  14.1816998  52.2159615  43.4559631  57.2240906  58.4122162  81.5292053
  56.3440857  58.4312057  81.9053268  57.1222496  57.9354477  80.7054596
  18.9838982  58.7153282  74.1215210  19.6924725  58.8766632  74.7445145
  18.7019482  59.5882568  73.8481445  23.1399193  19.7750320  83.3033524
  22.4874802  20.1819172  82.7332611  23.8055305  20.4517632  83.4267349
  34.9440651  56.4787445  84.1635361  35.8552055  56.2377052  84.3307495
  34.6919479  57.0038109  84.9231262  41.7077713  48.8439674   4.0163040
  41.8160629  48.8615837   3.0654128  40.9617805  48.2620773   4.1616693
  10.1058521  33.1271477  87.6279755  10.9260607  33.4831657  87.9696503
  10.3054638  32.8932648  86.7215118  15.2252960  24.1946011  64.8985214
  14.7827034  24.6884556  64.2082672  15.1290779  24.7376385  65.6808777
  53.9827003   7.1904969  71.2592316  53.4285431   7.7640023  70.7298584
  54.6941032   7.7558484  71.5600815  32.3471375  59.8482208  78.6355896
  33.2114944  59.6190376  78.9770432  32.1574593  60.7044983  79.0190506
  13.6182680   0.1784438   6.1131654  13.0512266   0.9095893   5.8679667
  13.4884243  -0.4683998   5.4196482  13.9752750  32.0695724   2.9693856
  13.1389046  31.6288204   3.1192355  14.4553080  31.4808159   2.3870049
  12.9310265  63.0211639  38.5111122  13.2323217  63.9151611  38.6730270
  12.8882914  62.6217613  39.3799515  49.8236847  54.4683723  54.3456841
  50.3732796  54.0375328  53.6910400  49.9400482  55.4035759  54.1780968
  25.7320900  59.1268845  50.4167824  25.0573997  59.5650978  49.8981323
  25.3923931  59.1397476  51.3115845  45.8069458  52.2190590   6.8144760
  45.1609001  52.2755203   7.5185127  46.1880074  51.3460312   6.9085264
  67.4754028  44.1874542  80.9135742  67.4414062  43.8966064  81.8248825
  67.4649124  45.1431236  80.9666138  19.9789200  51.6088104  63.1788559
  19.3629131  52.0841446  62.6213379  20.3742867  52.2846565  63.7294464
  24.7109089  58.2725563  57.5138054  24.8525238  58.1085854  58.4461632
  24.1193962  59.0247421  57.4900436  25.4695568   6.9016476  13.6790609
  26.0376892   7.2099805  14.3850269  25.7035179   5.9800858  13.5685263
  64.6448593  65.1610794  68.9819641  64.8971176  65.8791351  69.5624771
  64.9069824  65.4550323  68.1095428   2.7401037  49.2989120  37.7039719
   3.6839299  49.2789116  37.8621635   2.3722589  49.6860428  38.4983597
  47.9214096  46.0853577  75.9461060  48.0770073  45.9523239  76.8811569
  47.0057220  46.3589325  75.8922195  49.8691521  65.8616409  37.1642799
  49.5089684  66.0445938  38.0320511  49.1163445  65.9178848  36.5757637
   9.0527020  11.7082090  14.6264973   9.4325190  11.8226719  15.4976282
   9.7211113  12.0418625  14.0280514  25.8726788  17.2150955  81.9206161
  25.9377728  17.5045834  82.8306656  26.5549507  17.7067928  81.4634857
  72.7921524  42.2032738   9.1532936  72.8111877  42.4645844   8.2326498
  73.1161652  42.9696274   9.6265316  15.4618750   7.6724114  60.8710938
  15.4912710   7.8673258  61.8077774  16.1361332   8.2337704  60.4883614
  61.0510330  57.3731232   7.6955328  61.1061974  56.5194206   8.1249237
  60.1260757  57.4674339   7.4679494  61.8294716  71.5967331  16.3559494
  62.3877220  71.6141891  15.5785913  61.7670975  70.6694946  16.5852509
  32.0151291  26.9960098  72.1033554  32.5424843  26.1989555  72.0500946
  32.5005150  27.5648613  72.7008820   9.4383402  59.2182159  75.4013443
  10.1641712  59.8394737  75.4599915   9.7766886  58.4162865  75.7996674
  33.4598198  29.9476910  78.2862473  32.6785545  29.4752369  77.9987793
  33.1529884  30.8389282  78.4529190   0.6681293  65.3272400  52.6057243
  -0.2667821  65.2857742  52.4045944   0.7044615  65.6198273  53.5163879
   7.7149420  58.3278465   4.8173366   7.9070344  57.4095421   5.0071969
   7.5481520  58.3477821   3.8749909  26.9000511  70.7518768  61.1906509
  27.8300877  70.6340256  61.3839684  26.5335846  71.1223068  61.9935913
  71.6277161   4.7827306  70.6883698  72.5769196   4.7474146  70.5700607
  71.2933350   5.0988564  69.8490295  63.1613503  69.9142380  81.0848541
  62.9104729  70.3997269  81.8707275  62.6684113  69.0956802  81.1414413
  78.2807388  70.2754440  24.1679840  78.7521210  71.0932999  24.3265743
  78.8930817  69.5902481  24.4358864  82.9529877  30.3075733  88.9061050
  83.7361450  29.7572193  88.9098587  83.1305542  30.9722786  88.2406158
  37.0468979  69.4839935  50.6201057  36.5849075  69.8929443  51.3519211
  37.1720924  68.5752945  50.8936615  45.5922012  55.3203888  86.8624496
  45.9373207  54.8996620  86.0749741  46.3580055  55.7180672  87.2767334
  58.0051804  53.9851952  19.9799385  57.7512512  53.9450607  19.0579071
  57.1958008  53.8078766  20.4592075  61.7947426  63.5551720  39.0429840
  61.0308685  64.0616760  38.7669754  62.5422401  64.1139526  38.8302650
   6.5783496  12.1689939  73.2797470   6.2159243  11.5947123  73.9543457
   5.8748755  12.7899323  73.0905609   9.8101521  26.4262943  13.5586815
  10.0086355  27.3446503  13.7415953  10.1772165  26.2706432  12.6884699
  10.9384174  54.7271309  49.5733147  11.8799410  54.7539139  49.7437477
  10.8460999  55.0697174  48.6843033  71.6141281  44.8537636  60.3574142
  72.2192841  45.5938225  60.4056473  70.9297714  45.0621376  60.9933929
  50.6762733  56.6280937  75.2180176  50.2498131  55.7921638  75.4066467
  50.2449722  56.9431419  74.4236908  80.3712463   1.9298447  39.4095039
  80.5971756   1.6200875  38.5324402  79.8764877   1.2084954  39.7982101
   6.1495104  25.3511925  18.2898674   5.2082696  25.1812096  18.2524014
   6.4449973  25.2634735  17.3836536  62.9669724  38.7684288   5.3721929
  62.1556702  38.3209953   5.1317344  63.5265541  38.6808624   4.6005502
  66.3833160  21.2176933  34.4685326  66.6347504  22.1307526  34.3294792
  66.5588684  21.0595245  35.3961067  50.1603851  11.6340532  83.7321472
  50.4400482  11.7091503  82.8198013  50.9126091  11.2497663  84.1823883
  45.8129997  50.0614319  45.1085930  45.5464211  49.1434441  45.0589981
  45.5691986  50.4278984  44.2585945  62.0603600  32.6106567  14.7799797
  62.5451431  32.7885475  13.9740181  62.5196953  31.8708763  15.1774387
  45.8343163  30.8902321  81.6195374  45.0463562  31.3594894  81.3454056
  45.9907799  31.1879368  82.5157089   5.7087402  63.8698578   8.0757542
   5.2464786  64.7043991   8.1537857   5.3548355  63.4735565   7.2795572
  42.4139709  61.3706360  15.9245625  42.4428596  60.4249496  15.7793798
  43.0905724  61.7225380  15.3461142  70.4966278  61.8065109  38.4310989
  69.5652084  61.9877510  38.5569229  70.6437531  60.9792862  38.8896713
  69.3274994  39.4077873  85.7668762  68.7731400  38.7057419  86.1075439
  68.9311447  39.6397972  84.9270554  84.5044479  33.7610664  24.9457645
  83.8237152  33.1963692  25.3117523  85.3255768  33.3260841  25.1754932
  24.7235794   5.7096472  41.8724365  24.8842201   6.3750138  42.5415497
  25.5845890   5.3270793  41.7035141  34.2589035  28.2144413   4.5187583
  34.2526360  28.5934849   3.6398273  33.3698578  27.8820305   4.6425858
  61.0669861  71.2971268  87.6077423  60.5577774  70.7251434  88.1819992
  61.8855515  70.8228607  87.4619598  32.9159889  29.0200214  14.4439964
  33.1566353  28.6863823  13.5797014  32.1388359  29.5560169  14.2859621
  32.2695465  13.6884050  89.2586899  31.4968719  13.8721523  88.7244263
  32.9344444  13.4080267  88.6297836  51.1097069  28.7600727  21.7367363
  50.8285789  29.6534176  21.5389156  51.8670082  28.8691235  22.3119164
  37.5147934  54.5775642  81.1967621  37.9172440  54.3770752  80.3517380
  37.9709702  55.3629227  81.4989929  11.8983402  14.5685863  63.5010948
  11.9823952  15.0862207  64.3018570  11.0796423  14.0854387  63.6130486
  26.3024807  55.0734520  37.8651390  26.0806255  54.7257729  37.0013504
  26.1621857  56.0170670  37.7867737  86.5255508   3.8254693  67.7225723
  86.3043365   2.8950565  67.7629318  87.2075729   3.9384372  68.3846283
  54.4506454  34.3258629  67.8211136  53.7087593  34.6765289  68.3139343
  55.2104111  34.4976463  68.3774185   8.6097269  52.5681190  86.3814926
   8.2227192  52.3565674  85.5319595   7.8733296  52.5450554  86.9925690
  13.9898968   6.7752066  14.3948584  13.1954193   6.2414961  14.4086971
  14.1945524   6.9240537  15.3180008  80.8837051  10.0426254  62.9169960
  80.3163223   9.2751198  62.9894409  80.3217697  10.7794027  63.1570358
  70.1525116  45.4258461  76.5121613  70.8681107  45.2479324  77.1224823
  69.8376465  46.2953758  76.7591705  15.8999233   1.8342694  54.7240753
  16.5681095   2.5084066  54.8477592  15.1544161   2.3021419  54.3478508
  29.3243389  45.7161865  82.9234924  28.4491386  45.9097176  83.2593536
  29.6167965  46.5380173  82.5294189  13.5059786  43.2200165   7.9526219
  13.2992039  42.3163147   8.1909485  13.5375166  43.2141991   6.9959593
  81.7621536   8.8241730  77.0972137  81.1429825   9.0854206  76.4155884
  81.6444702   9.4744549  77.7896881  62.5872803  64.5975800  29.8747673
  63.2012138  64.3366089  30.5612125  61.7227707  64.4683685  30.2648468
  16.2069817   0.0795641  85.3939056  15.9349298   0.7087181  84.7257843
  15.8215637   0.4101720  86.2053146  36.4597702  49.5915260   2.0931790
  35.9578171  50.4065170   2.1008556  35.9037323  48.9634132   2.5541852
  11.9210377  50.9897156  38.0151558  11.0917883  51.0148354  38.4925919
  12.3115673  50.1500626  38.2574463  21.6952324  38.2204437  81.5989227
  22.4075394  37.7819481  82.0642929  21.8091545  37.9587021  80.6852798
  11.6356125   4.5768089  75.2653122  10.9178295   5.2097201  75.2863464
  11.7851801   4.3536668  76.1840439  57.3632812  40.8009300  85.2148438
  57.8926353  41.5676613  85.4342499  57.6194382  40.1407661  85.8588943
  52.3617096   4.9368424  74.7595520  51.8187065   5.0117483  75.5442581
  52.5959206   4.0096703  74.7179642  66.0115280  21.5662670  57.2374420
  66.4668732  21.7081718  56.4075241  66.1780243  20.6474609  57.4479332
  30.8374939   3.3991733  24.5606003  30.5820312   3.8847740  23.7762775
  30.4200726   3.8712258  25.2811260  64.2389374  39.5438805  62.6515656
  63.7013512  38.8674736  63.0635185  64.4444580  39.1919861  61.7854500
  73.1659698  55.2101555  78.6136627  72.5044708  55.6295357  78.0634079
  73.7334366  54.7485580  77.9962997  53.3562431  38.8242569  29.2743721
  52.5150337  38.4804497  29.5750275  53.5252914  38.3603554  28.4543400
  67.2051849  27.1294403  61.1208305  67.1245346  26.2364101  61.4558296
  67.9817886  27.4797211  61.5572052  73.4883041  48.4952049   2.6030185
  74.2813263  48.4749565   2.0673511  73.7991562  48.7070847   3.4831951
  36.1534958  68.9473724  35.5469284  35.4253502  69.3400192  35.0654068
  35.8098335  68.8084564  36.4294395  12.5097303  59.4394913  30.3597126
  13.2257214  58.8198433  30.2196350  11.7927732  59.1025009  29.8224583
  84.9817123  22.5145969  57.5384254  85.1763535  23.3239326  57.0658531
  85.3920135  22.6328640  58.3951035   6.2884583  12.3343887   5.4956608
   6.5040240  13.2110529   5.8138165   5.9986711  11.8610926   6.2755618
  14.9952497  52.0970535  31.5742321  14.3171186  51.8713989  30.9374809
  15.1001854  51.3059998  32.1028633  76.2733002  56.5748291   2.5810385
  75.4887848  56.3858681   2.0661910  76.9860535  56.5697060   1.9421425
  59.0499725  63.6885109  19.0049343  59.4161110  63.9623756  18.1639977
  58.3147240  63.1213112  18.7727184  25.7910519  36.4703064  85.6593399
  25.9347134  35.7865906  86.3136520  26.6160374  36.5165329  85.1761322
  18.5037022  45.1880226   5.2321754  19.2933044  45.0449028   5.7539778
  17.7846355  45.1074638   5.8588228  85.6524506  38.9204559   0.5560123
  84.9634171  39.0813942  -0.0886287  85.3676605  39.3978691   1.3352451
  15.6842518  55.0388565  37.1548538  16.5275631  55.4718895  37.2872849
  15.5774078  55.0082512  36.2041283  58.8493080  58.6963234  78.6026306
  59.6514320  58.3625679  78.2008438  58.3474503  59.0570374  77.8717041
  82.6567459  37.1340866  50.8774109  82.6435699  37.4320297  51.7869644
  83.3552551  37.6448097  50.4681740  44.9075394  46.9292564  57.0664673
  44.7658386  47.2716446  57.9490356  45.8205109  46.6416550  57.0648613
  62.9841652   2.4506798   9.8877096  62.0547791   2.2349515   9.8106613
  63.0186081   3.1214283  10.5697222  43.9978981  46.2801857  72.0211716
  44.2884483  46.4897308  71.1335297  44.3412628  45.4017410  72.1844711
  53.1153526  45.6668282  31.3807793  54.0011368  45.5353775  31.7189159
  52.5525169  45.1926880  31.9928570   1.9271368  14.4445457  85.9011459
   1.7211230  14.5607414  84.9736252   1.1137526  14.1210928  86.2884598
  77.2763290   8.6055880  41.3591423  77.7429047   7.7699456  41.3745155
  76.9674988   8.6909132  40.4571571  67.5521469   8.7531376  21.1894665
  67.1982803   8.3792486  21.9964485  68.3137360   8.2096109  20.9875031
  65.2562866  40.4471741  16.6457291  65.1256485  40.8592186  17.4997692
  66.1025009  40.7796097  16.3463383   3.3030431   1.5372009  60.5366669
   3.1915376   2.3267546  61.0661964   3.3410738   1.8567940  59.6351967
  55.2940903  28.3857937  65.8354645  55.2426529  28.4355106  66.7899857
  54.6616936  27.7081470  65.5964966  44.5227547  49.0581932  80.7733612
  44.3971748  49.7400398  80.1134033  44.2034721  48.2585030  80.3552933
  30.3047028  65.3439941  38.8446159  29.7922745  65.8808212  38.2400818
  30.7453613  64.7057877  38.2835960  31.7671909  30.1069031  10.3155193
  32.6605644  30.4308128  10.2006197  31.8600788  29.3465137  10.8894634
  46.1488647  53.4440880  30.1329575  45.5404205  53.7418442  30.8092499
  46.0746155  52.4898796  30.1472778  34.4589310   2.8965974  69.4983292
  35.2782974   3.2256556  69.8679123  34.7261505   2.4110596  68.7178955
  83.4375916  48.2960052  16.8599892  84.2870483  48.6176872  17.1619415
  83.0428696  47.8975487  17.6356544  59.8119164  67.2797623  19.4451637
  60.2524719  67.2693939  20.2948914  60.4625435  66.9345322  18.8338242
  74.4985962   3.6100175  86.4521103  74.4211044   2.9779890  87.1667862
  75.3330688   4.0509272  86.6117172  78.2475052   2.6790698  14.3873043
  77.9408646   1.9758259  14.9597139  79.0057983   2.3075321  13.9365425
  44.3376846  65.4300232  74.6387329  44.3408775  66.3844986  74.5665588
  43.5268974  65.2278442  75.1056137  82.3841934  15.6797600   2.6983335
  82.3479538  16.6327591   2.6164138  81.8822021  15.4881954   3.4905050
  41.0464401  15.8758354  80.8269577  42.0007095  15.8959951  80.8990402
  40.7352295  16.1467495  81.6906662  44.3756447  43.5982094  87.8675385
  44.2357292  43.0434723  88.6349564  43.5953140  43.4641685  87.3296280
  11.4257345  50.3085213  64.3031311  12.2441311  50.5348549  64.7449799
  11.1922045  51.0968475  63.8129959  72.5552216  45.8878174  40.7128944
  71.6496964  45.6205101  40.5554199  72.5847931  46.8052368  40.4414253
  56.4448204  48.3857002  45.9803925  56.2455711  48.0697060  46.8616867
  57.3430634  48.0966148  45.8196831  80.1426239  71.0217972  65.0778580
  79.6794510  71.7638626  65.4664993  80.3464966  71.3066406  64.1870499
  83.8012543  55.8474731  35.5615654  84.5427094  56.2919960  35.1506195
  83.0302734  56.2926750  35.2099762  77.0836411  40.7681236  21.0867538
  77.8864670  41.1652641  20.7491417  76.4979782  40.7318726  20.3304996
  36.3592110  59.4270020  29.0504055  37.2803497  59.5883636  28.8462105
  35.9958267  59.0604744  28.2442760  11.4992313  65.1192932  70.6011658
  10.5839090  65.0431595  70.3316803  11.5511332  65.9709473  71.0350113
  29.1682034  34.1515350  11.6739655  28.9116879  34.3597946  10.7756004
  29.8093758  33.4466934  11.5826902  35.5388031  40.6617203  30.0345688
  34.8070488  41.2024879  30.3317833  36.2900505  40.9788170  30.5358753
  13.1726379  51.1872482  46.4945259  13.7475843  50.8993530  45.7854538
  12.8192034  52.0236664  46.1916733  12.3420448  16.5368214  61.5373878
  12.0710087  16.0034447  62.2845688  12.0216160  16.0583649  60.7727737
  80.1849518  38.0905724  75.8977661  80.7093506  38.4758568  76.5997543
  79.4677887  37.6467781  76.3504868  75.1860275  18.0620041  86.1105347
  74.4752045  18.6428375  85.8392639  74.8868484  17.1865196  85.8650742
  83.7057571  45.0189362  35.1612129  84.2303162  44.2947044  34.8198013
  84.2552948  45.4145851  35.8377533  57.5831490  53.6636925  28.2397823
  58.4978218  53.5869904  27.9682655  57.6224327  54.0893211  29.0962448
  86.2548447  29.7794933  82.3907471  87.1790009  29.5804405  82.5408783
  86.1366959  30.6570053  82.7544098  59.0410538   1.0056053  34.5552864
  58.7051201   0.2806959  35.0824356  58.8353424   1.7885942  35.0660133
  52.6904793   1.0466905  39.1273613  53.1810455   1.8579259  38.9951744
  52.2308464   0.9071213  38.2994156  72.1202087  56.9317398  32.0832443
  73.0677338  56.9367218  31.9475822  72.0138321  56.8000565  33.0253563
  55.4295959  42.6374626  55.0796928  55.2271385  42.8389206  54.1660957
  56.2847481  43.0404091  55.2299805  36.3501434  41.3733673  55.3919334
  36.2753525  40.8788834  54.5757713  35.4952850  41.7906494  55.4983559
  27.0158119  66.7357025  64.8151855  26.3398685  67.3026581  64.4438400
  27.0513668  66.9795303  65.7401276   8.8414974  10.0765715  73.3112106
   8.0399485  10.4675331  72.9635010   8.6267357   9.1506891  73.4245758
  15.1910591  18.1299782  89.0184174  15.6442823  17.6779060  88.3067627
  14.5075150  18.6385841  88.5821686   8.8883495  34.5720329  61.9058228
   9.2200270  33.7054253  62.1407928   9.3471489  35.1716995  62.4941521
  80.4217377   4.1441793  29.1081944  80.9513626   4.8776965  28.7956562
  80.0292740   4.4615421  29.9215107  71.4999313  45.3210526  31.6271477
  72.0425491  44.7248917  31.1110191  72.0848007  46.0454063  31.8495541
  63.0864868  50.5291367  83.2153931  63.1630821  51.2644081  82.6073303
  63.9019890  50.0404396  83.1042252   6.9589505  49.1911011  72.3583603
   7.1862507  48.6604881  71.5948029   6.0816054  48.8962135  72.6023636
   7.5033755  61.5475349  76.7503510   7.9064131  60.8411407  76.2455750
   6.5878444  61.5493355  76.4710083  56.7145424  46.0839119   7.4900045
  56.7325478  46.6846275   8.2350225  55.9052544  46.3006592   7.0270739
  58.0472984  20.0388699  71.0943756  57.2272453  20.3007736  70.6758652
  58.4289398  20.8589306  71.4075623  63.1127243  22.3250141  72.1556702
  62.1715622  22.3465290  71.9825211  63.4386559  21.6029797  71.6183929
  40.9869080  37.4412003  79.9623947  41.6260643  38.1205025  79.7473145
  40.1381416  37.8449516  79.7812500  45.1711655   7.6268649  12.3946047
  44.8571205   7.7136068  11.4945583  44.7363663   8.3352680  12.8693094
  60.0573235  45.0796394  30.9828072  59.5190163  45.0685272  30.1913929
  59.6660156  44.4135551  31.5480022  59.9976234  68.4089050  84.9471283
  59.6668816  68.5973892  85.8253708  59.2890778  68.6765060  84.3618164
   3.3026083   4.3866777   7.4213171   3.6789997   5.1722131   7.8181734
   3.3691862   3.7183628   8.1033392  47.6852531  27.5512428  62.0535240
  46.9182625  28.0907898  62.2454681  48.1043510  27.9862537  61.3109932
  27.8696270  61.0138359  20.2861824  28.3950558  61.1669121  19.5008659
  27.2036018  60.3843460  20.0097980  51.6367683   7.5022082   3.3349290
  52.0762787   7.0417447   2.6200628  51.7020531   6.9052267   4.0803032
   1.5514630  63.2598572   4.0784564   1.5296161  64.2069626   3.9415534
   0.7738207  62.9343224   3.6250999  30.5253143  10.6192627   8.3537979
  29.7336826  10.2946482   7.9246407  30.2106590  11.0245819   9.1618452
  32.0234718  45.3124695  25.7383137  32.4257393  45.7513847  26.4878254
  32.5748024  44.5449677  25.5859814  56.0038147  67.7303848  17.4291306
  56.1242447  68.6408234  17.6989956  56.4068451  67.2175980  18.1297321
  51.9548950  22.5281277  13.5627871  52.5076447  21.7641373  13.3984108
  52.0155983  22.6688385  14.5076399  14.5296936  69.4474564  53.9845772
  13.8959293  70.1500931  53.8401031  14.0277853  68.6423492  53.8575935
  65.7936401  59.4119453  83.3650970  66.0240555  58.9494514  82.5593414
  66.0279617  60.3239555  83.1931458  68.7751770   7.1559200  46.2154732
  68.5242004   7.2292089  47.1362724  69.5929489   7.6490817  46.1501350
  43.3304253  67.0288696  41.7018471  43.5804710  66.8370972  40.7980042
  43.7602196  66.3476028  42.2189445  36.0328751  66.1081696  71.5286942
  35.5693855  65.3885498  71.9571228  36.4119186  66.6115875  72.2491989
   0.5587088  23.0697441  13.4013281  -0.1063439  23.7029610  13.6714621
   0.1828478  22.2180080  13.6238308  26.5064945   9.9886513   0.4473088
  26.1172562   9.2897415   0.9729043  27.2005806   9.5560961  -0.0500569
  23.4791908   5.4950032  86.1771011  22.7503300   5.9114079  85.7171021
  23.8982983   4.9459672  85.5144196   4.3609900   2.2988861  64.7861938
   4.8499537   1.5882937  65.2011719   4.8907819   2.5428443  64.0272217
  75.7840195  43.1533852  34.8946762  75.5599594  44.0609550  35.1004639
  74.9626465  42.7668304  34.5911179  50.6190643  38.1076889  34.4402580
  51.4471397  37.6362152  34.5309982  50.4401283  38.4483528  35.3167076
  46.7293129  36.6485558  61.2418480  46.1951027  36.2948761  60.5306778
  46.1495972  36.6409035  62.0034904  17.7343807  40.7177124  79.8800430
  16.8208656  40.6705666  79.5980911  18.1791821  41.1861725  79.1736908
  62.3691635  31.8590031  54.9654770  63.2326698  32.2450294  55.1123428
  62.5518265  30.9582672  54.6979980  25.8553524  60.6228714  12.4676428
  25.3038425  59.8930779  12.1857309  25.2371540  61.2834511  12.7802076
  13.9667702   5.2204466   5.7570982  14.2928429   5.5228372   4.9094725
  13.0775547   4.9155073   5.5767131  64.0972061  38.1784782  75.1563797
  64.5686874  38.8140945  75.6948318  64.7222977  37.9314651  74.4748535
  30.5414391  63.6603241  53.1672478  30.7165432  64.5490570  53.4766464
  30.7811298  63.0985527  53.9042625  26.7164803  31.7926083  67.4230194
  25.8621254  31.8031654  66.9915085  26.8103466  30.8966484  67.7465515
  32.1412659   1.2851570  26.6030216  31.9820042   2.0399277  26.0362854
  33.0800095   1.1173841  26.5203114  25.2156143  58.5903587  86.8853302
  25.3817463  57.7253876  87.2601089  24.3045292  58.5542068  86.5940399
  34.6200218  47.2020416  53.8274956  34.4085579  46.9345856  54.7219124
  35.5382996  46.9564667  53.7148438   0.3196871  63.5830193  27.8945255
  -0.4549239  63.7570686  28.4292374   0.2594474  64.2105484  27.1742420
  84.9858627  39.8809776  83.5436478  84.1692886  40.3717422  83.4509430
  85.6392670  40.4158630  83.0928879  25.9031029  70.4254684   7.9071980
  26.6030598  69.8184052   7.6668420  25.1721191  70.1858139   7.3375845
   8.3409500  43.7927551  20.7519798   8.3133640  43.1209335  20.0707130
   7.6883540  43.5108109  21.3929615  83.8495865  38.9182663  62.8992615
  83.4182129  38.1839333  63.3361855  83.3889465  39.6929131  63.2216988
  82.1799088  13.1731787  33.0327034  82.8957825  13.0513077  33.6563225
  81.3978958  13.2544994  33.5786667  57.9514809   0.9767165  53.1812820
  57.6368942   1.2718735  52.3267937  57.9737206   1.7705845  53.7156143
  29.5159588  40.9336891   0.9555541  29.1690655  41.7717628   1.2613852
  28.7574120  40.4804344   0.5875903  60.6363831  15.1441975  55.7416611
  60.7435646  15.0336323  56.6863937  59.6893616  15.1962099  55.6125183
  50.6795578  42.4229355  29.0043869  50.1119041  41.9528313  28.3936443
  51.5597610  42.1014824  28.8090973  10.4112749  70.2653580   6.1073623
  11.1770134  69.7004700   6.2111769   9.6680031  69.7043762   6.3288994
  38.9388847  33.3928070   5.6830292  39.5578232  34.0245552   6.0491476
  39.2453308  32.5442848   6.0029316  84.5800323  60.1078224  21.6451225
  85.3698349  59.6764488  21.3189850  84.2640228  60.6222763  20.9023514
  82.1213226  42.4932022  88.9799423  81.8452530  43.3418694  88.6338348
  82.2444153  41.9465981  88.2038574  76.6236191  50.3301048  82.4788055
  77.4010239  49.7745209  82.4221954  76.1780014  50.2045937  81.6410141
  57.2117920   6.9208560  33.4242859  56.6280937   7.3024101  34.0799866
  57.0065308   5.9859953  33.4359207   8.0762262  25.3867741   5.2240081
   8.6549826  24.9902344   4.5728331   7.2733278  25.5847263   4.7419281
  85.7027359  11.3091354  53.2813377  86.0704727  10.4409161  53.4462547
  84.8497086  11.1362276  52.8829842  15.4509411  45.4825935  58.4477959
  15.1000948  46.1855278  57.9009666  14.7901917  44.7915077  58.4026184
  85.7293320  71.2555466  83.4094467  85.0266800  71.8838577  83.2429047
  85.4613190  70.4662247  82.9389343  56.8493347  41.7007027  49.6341476
  56.9961891  40.7556915  49.6743546  56.4112854  41.8395081  48.7944565
  58.5920753  45.4044418  45.0133362  58.8407936  44.9296608  45.8064003
  58.7952080  46.3193054  45.2082481  82.1229095  60.0949554  70.0572891
  82.8631210  59.4954262  69.9630661  81.7083588  60.1011162  69.1945343
  47.5432281  52.8934784  22.5165825  48.1272163  53.1952286  23.2123814
  46.9200439  52.3177757  22.9597988  63.7107162  23.5911217  84.7666626
  64.5725632  23.1994209  84.9081726  63.2978783  23.0307007  84.1096039
  74.6491318  36.7020416  54.9921875  74.6683121  36.1321869  54.2233353
  75.0608749  36.1845360  55.6842041  49.1225777   4.0863509  58.8313446
  49.9099693   4.6267118  58.8965492  48.5936317   4.5140944  58.1579323
   3.2714911  63.4295273  48.5820236   2.3447931  63.2163773  48.6917000
   3.2782779  64.1532822  47.9556351  39.0183182  65.1343460  79.9118118
  39.7566109  65.7433548  79.9281693  39.4234200  64.2673111  79.8926010
  81.4359131  33.1541634  33.9896812  80.9016876  33.8622665  33.6299133
  81.3476715  33.2458382  34.9383888  57.3139267  45.2473373  36.2409935
  56.7831993  45.1122513  37.0260468  57.1473160  46.1566620  35.9927979
  12.9133453  34.3692322  76.5973816  13.5796528  34.5531921  77.2595139
  12.5622025  35.2290115  76.3656235  41.9206009  59.8942375  55.7592506
  41.4915848  60.3139000  55.0135536  42.7000504  59.4822998  55.3864326
  58.8976440  69.4895706  60.1801987  58.3065796  69.4059601  60.9284554
  59.2460976  70.3784866  60.2483864  78.2686844  20.2086487  87.1083755
  77.8570938  20.0848980  87.9636612  77.6358185  20.7263298  86.6106720
  84.8204117  39.3057861  46.1858177  83.9516830  39.1917458  45.8004074
  85.2826691  39.8747902  45.5703621   5.9069910   4.6316209  62.6283913
   5.5485358   5.3867426  63.0947952   6.4392347   4.1772842  63.2814827
  79.8272018  30.2377357  45.2878113  80.1913986  29.3909473  45.5457764
  80.5040054  30.6319351  44.7375641   7.3827548  47.1072235  64.6506882
   7.0872898  47.2216797  65.5539246   8.1962614  47.6090317  64.5993958
  53.0587387   2.1855569  74.6293106  53.6420441   1.9648937  73.9031601
  52.4118309   1.4801248  74.6397476  78.9947357  39.5990028  59.7755508
  79.0145187  38.7648621  60.2446480  78.3501358  39.4675407  59.0802498
  42.6566429  41.6130180   3.0219378  43.4709816  41.2436333   2.6804130
  42.8630219  42.5322723   3.1910822  13.9927492  61.5364418   5.1780801
  14.5592699  61.3001938   4.4435925  13.1507874  61.1307755   4.9712849
  63.1732330  17.1630058  80.2285309  63.5584679  16.5545692  80.8591080
  62.3185654  16.7846661  80.0220413  70.3077774  49.0735054  76.0499344
  70.5751953  49.9426460  76.3488007  69.7815933  48.7242851  76.7692413
   2.6312025  18.0526810   6.4780717   1.8453056  17.7603912   6.0163741
   2.3261118  18.7601681   7.0460606  39.5581665  60.8076668  17.3820915
  39.0206757  61.0297089  16.6218052  40.3757362  60.4777603  17.0093002
   3.4896905  63.6803131  19.3300838   4.2575173  63.9517212  18.8270817
   2.7445376  63.9940109  18.8176651  29.3989563  42.6069145  19.3953457
  28.6167850  43.1416359  19.2592831  29.4596844  42.0665512  18.6075974
   8.8080063  34.1307449  11.6864548   9.4034815  34.8341866  11.9449301
   8.6470270  34.2832527  10.7552948  75.2210083  41.0083160  30.7707119
  74.7880630  40.5455093  30.0533562  75.9890289  40.4735718  30.9717789
  60.2030334  70.5891342   4.2962947  59.5311165  71.2211380   4.5518937
  59.7896538  70.0640411   3.6110005  59.2224693  33.9305573   6.5923305
  58.8640366  33.7035103   7.4503555  60.1166077  34.2192802   6.7750545
  26.8167610  64.9988022  62.7453232  26.7298279  65.6831131  63.4089470
  27.0967941  65.4638824  61.9569626  22.0175991   0.0021947  14.6431160
  21.7645340   0.8481936  15.0125427  22.8793068   0.1577942  14.2564898
  85.8337402  29.9354172  77.7886963  85.5096664  30.7310066  78.2108917
  85.4820328  29.2216511  78.3207397  39.2994957  48.2952271  56.1558609
  39.5436668  47.3833885  56.3144722  38.3975792  48.3597603  56.4698868
  26.3736954  19.8950481   7.0533886  25.4919624  20.1535969   6.7851877
  26.2394276  19.1283455   7.6104999  15.7844772  16.7542286  17.0702991
  16.2329712  16.0960426  16.5393791  15.8076715  16.4009819  17.9596310
  76.2912827  18.4970398  54.0933151  76.4424133  17.6709747  53.6339607
  75.3402100  18.6049194  54.0854874  82.0275955  52.4540825  22.1632729
  81.7581711  52.6834831  21.2738800  81.4387207  52.9541550  22.7284164
  31.1338959  31.3803883  59.1490250  31.7070675  32.1200752  58.9476166
  31.7067413  30.6147499  59.1056747  59.4906960   5.7451591  35.2137794
  59.2150803   4.8572617  35.4416084  58.8456612   6.0384698  34.5702515
  64.5354309   2.4765434  13.0957441  64.0786896   1.6767790  13.3564987
  65.4590607   2.2267623  13.0682688  85.5928802  17.6720161  12.3856268
  85.4333344  17.0790367  11.6513567  85.5686111  18.5464268  11.9969769
  29.5917015  14.9662466  78.1240082  29.6204891  15.3502159  77.2476730
  28.6847305  14.6792135  78.2300644  61.5870323   1.9527547  88.9045181
  61.5859261   1.2373946  88.2685242  61.3805809   1.5316823  89.7389679
   5.6103826  52.9107361   7.9518504   4.7079082  53.0041847   8.2568750
   6.1370611  53.3371315   8.6278896  43.2395668  41.3380737  13.5204506
  44.1885605  41.2573967  13.6160202  42.8871727  41.0185738  14.3510962
  85.1513901  29.5451851  57.2651711  85.9263992  29.5854511  56.7048454
  84.6961746  28.7502327  56.9875717  74.2954330   8.6190577  76.9733582
  74.5481033   9.5407295  76.9194031  74.2476044   8.4383821  77.9121323
  22.9797935  29.2578526   4.0772352  22.0269642  29.1930885   4.0127807
  23.3065758  28.6522026   3.4119289  54.9999046   6.3048706  44.2526665
  55.2343102   6.0381989  43.3637505  55.2907639   7.2147236  44.3143196
   3.9233470  15.8796549  43.6278458   3.6342483  15.7831135  42.7204666
   3.2973390  15.3627558  44.1349564  46.3218079  32.4828873  56.5992203
  46.8365059  31.7206173  56.8642921  45.5068359  32.4058838  57.0953293
  50.1847572  35.3846207  11.6120129  50.8102264  34.6910095  11.8215933
  50.6455650  36.1956177  11.8268948  36.5303268  19.9228344  68.7758789
  36.3452492  19.1282444  68.2752762  36.8021965  20.5626087  68.1178513
  72.2227020  46.1952667  73.3431473  71.2891541  46.3496895  73.1986618
  72.4833755  46.8715324  73.9683990   2.4221368  26.6993809  10.9472637
   1.9928547  26.2999077  10.1907120   1.7366425  26.7480392  11.6135674
   9.9591608  19.4655838  76.1480942  10.5066681  20.0284004  75.6006393
   9.0657625  19.7671852  75.9834518  18.6395416  45.4709854  18.5158386
  18.4313087  45.5156898  19.4490452  19.2266083  44.7190552  18.4371872
  31.6760864  37.9007988   8.8090572  31.2028027  37.6412697   9.5995493
  32.2364006  37.1511269   8.6083775  85.6010818  34.7234573  68.3348465
  85.9254761  35.0833969  69.1603470  85.0384674  33.9944496  68.5960846
  16.1290703   3.9348652  86.8914490  15.9196482   3.1258357  87.3581924
  15.6523209   3.8645217  86.0644073  59.3376656   6.9253020  55.2571831
  60.2773247   7.1055417  55.2291985  59.2298126   6.3308930  55.9996643
  69.7991257  31.9893665  85.0191879  70.6444321  32.2993889  85.3441162
  70.0221176  31.3725510  84.3220215  75.0926056  54.6057854  43.6621971
  75.6826706  53.9806862  44.0832787  74.2912216  54.1076660  43.5012589
  51.7169838  48.4716568  12.2977057  52.1676407  49.1634903  11.8134499
  51.7356033  48.7656326  13.2084541   8.0154390   9.9855623  27.3653774
   7.3187160   9.4322824  27.7184944   8.0351009  10.7459936  27.9464035
  64.6298294  31.3897877  29.2979145  64.4228592  32.1194878  28.7140179
  65.3480682  31.7140808  29.8412361  46.6099930  60.9942741  19.8985500
  46.3077736  60.1908836  19.4749241  46.2303696  60.9594688  20.7765636
  40.4189224  49.2987213  63.0506630  39.5732765  49.6957092  62.8420563
  40.3649368  49.0970993  63.9848289  37.8545647  45.4925194  71.2239075
  38.6510124  45.7962112  71.6594238  37.9869041  44.5511513  71.1119156
  60.7086678  22.9612064  66.6879120  61.0627060  22.0724468  66.7194824
  60.7917480  23.2196541  65.7700195  51.5766335  21.2460270  52.0267029
  52.3011971  21.6626415  52.4932594  51.7447090  21.4368439  51.1038971
  21.0758038  29.9585514  74.2790985  21.0741329  29.1525440  73.7627869
  21.9618206  30.0116215  74.6374207  64.9115295  36.8348656  28.1655598
  64.7975540  37.2830162  29.0036545  64.9812241  37.5414848  27.5236397
   2.6788428  19.9137325  74.1278534   2.7998385  20.8523846  73.9845886
   3.5036967  19.5198097  73.8438263   7.2025070  67.9804001  44.9966888
   7.2172937  67.3222656  44.3018036   6.2911539  67.9999313  45.2887230
   4.8757310  40.6751938  45.2858925   3.9531043  40.5506706  45.0634384
   4.9149995  40.5351982  46.2319870  58.8575058   8.7870331  29.2300720
  59.3745308   9.4037666  28.7118492  59.2942619   8.7646074  30.0815258
  31.2537251  70.8036118  66.4529724  31.9185715  70.4086304  67.0170670
  30.9096851  70.0723572  65.9400024  48.9161415  51.3242111  66.0100250
  47.9790726  51.5188675  65.9945068  49.2576408  51.7267532  65.2115479
  77.3334503  34.6716347  49.2323036  76.8095398  33.9309082  48.9272308
  76.7401199  35.4211388  49.1829300  20.3928108  70.6221237  83.8874207
  20.7098541  69.7516098  83.6467743  21.0642509  71.2205658  83.5598907
  81.0863190  25.6191425  55.6031303  80.8565216  26.4652424  55.2190208
  80.6986084  24.9742794  55.0114670  43.8278313  26.5480766  37.7183723
  43.2144585  26.0825462  37.1497917  43.7272339  27.4686928  37.4763489
  85.7196121   1.7250456  63.6883545  86.3587494   1.0167286  63.6107140
  85.4059143   1.6667371  64.5908127  33.7643814  55.3439217  48.9700928
  33.5512009  55.0608177  48.0809135  34.3346901  54.6547089  49.3106308
  75.6136398  20.9221764  38.7948036  75.8835526  21.6568432  39.3458443
  75.3911438  21.3223495  37.9542122  36.3669739  41.5273323  68.9874649
  35.8117905  42.1830864  68.5655823  35.9311790  40.6939735  68.8090591
  23.2914238  52.1343727  79.7103653  22.9579849  51.4108086  80.2409286
  23.8577595  51.7151642  79.0624771  71.3921738   1.4419516  15.1694183
  71.6219101   2.3095543  14.8366718  70.5417709   1.2511048  14.7736635
  34.8972244   0.5437460  44.2476768  34.4068336  -0.1532740  44.6834679
  35.0748405   1.1805094  44.9399300  48.9536705  40.9377098   2.9614472
  49.4036598  40.4240913   2.2906706  48.3449516  40.3205605   3.3674290
   8.4786177  11.3832474  56.4944687   8.7884111  11.0435257  57.3340225
   9.0110779  10.9293509  55.8412514  72.6443024  63.7692451  38.6173019
  72.2633591  63.0159912  38.1659393  72.7404633  63.4810638  39.5250092
  12.5117359  18.2217083  75.2597351  11.9912653  18.1633911  74.4585266
  11.8799133  18.0872364  75.9661026  66.6560287  20.7597580  25.3586903
  66.5390472  20.1250858  24.6517677  67.5756607  21.0184021  25.2986031
  72.6988831  45.1932449  83.1111145  71.8603592  45.0510864  83.5503235
  72.9484253  46.0848160  83.3541336  85.2730331  -0.1977944  86.2779236
  85.3381119  -0.1472789  85.3242798  85.9841003   0.3583016  86.5963058
  49.3486710  44.5522766  28.3752537  48.7305984  44.5626450  29.1060829
  49.9024925  43.7893066  28.5407562  14.2904739  52.0398788   1.4995198
  14.8225842  51.4571724   0.9577253  13.6523199  52.4148903   0.8925941
  76.7294846   8.2409325  15.8245459  76.5428085   7.3021617  15.8149443
  77.5627823   8.3146811  16.2897453  64.9680862   6.9504862   5.0486584
  64.9058533   7.6085200   4.3563075  65.1823730   7.4508085   5.8360529
  45.6062469  69.1753082  35.3916779  45.8411331  70.0917206  35.5374489
  46.3191376  68.8276520  34.8558121  50.1071358  58.4077530  77.1129837
  50.3436356  57.6759529  76.5431061  50.4031258  58.1393318  77.9827957
  15.6178312  44.4636955  84.0722198  15.2112350  45.3302345  84.0767517
  15.0044203  43.9087791  84.5539093  76.8018494  46.8265991  13.8946428
  76.1789932  47.5464439  13.7941389  76.8974609  46.4676666  13.0124521
  17.6820087   5.7808504  47.2957230  16.9943752   5.2283034  46.9241295
  17.3693886   5.9934225  48.1751060  51.5424042  61.3031197  49.2423096
  51.9633141  60.5409088  49.6399269  50.8335266  61.5270042  49.8452988
  48.7777061  55.1405067   4.4372888  48.2456894  55.4292259   5.1787963
  48.9872971  54.2274818   4.6339855  22.7430744  62.0226517  23.5165672
  21.9122581  62.3324814  23.8770924  23.4089890  62.3979340  24.0927219
  19.3305073  71.0525818  55.9896889  18.3972282  71.0494843  55.7770653
  19.4046650  71.6501923  56.7337303  84.5452881  25.5358162  88.3161774
  85.0987244  25.4837780  89.0954285  83.9608459  24.7810345  88.3866425
  74.2023010  68.0239029  49.5731506  73.8150024  68.3944855  50.3661804
  73.4523163  67.8041153  49.0204811   8.8625460  14.7636185  87.5031509
   8.7898293  14.5329275  88.4292831   8.5393896  15.6632957  87.4543304
  71.8496094  44.0801239  14.1144209  71.8483200  43.1529236  14.3521805
  70.9252930  44.2978096  13.9940701  45.9201775   4.4858551  38.6136971
  45.8999290   5.1466231  39.3059425  46.5975456   3.8690417  38.8910904
  51.8480453  20.4068413  28.0707569  52.4297447  20.3925629  27.3107204
  52.2697372  19.8281708  28.7060146  48.9582710  52.4609184  69.7053452
  49.1344719  53.3106728  69.3014908  49.8062286  52.0168571  69.7086334
  44.6743774   7.6027880  24.5696278  44.4690056   8.5298605  24.4488335
  45.5831223   7.5959725  24.8702393  23.6811924   4.5163445  77.6447601
  22.7516899   4.3186851  77.5299225  24.0716400   3.6844740  77.9126663
  20.8064671  43.9742699  17.6609154  20.5109901  43.2254562  17.1430359
  20.6261044  44.7342567  17.1076298  16.7899513  49.3355560  76.4001465
  17.2708149  49.4247284  77.2229767  16.1589584  48.6351891  76.5661697
  -0.1486357  66.6227264  37.8301468   0.3535655  65.8108292  37.7604790
   0.5112413  67.3008575  37.9748154  54.1382103  46.2775154  35.6275902
  53.2513084  46.3654556  35.2784386  54.0277939  46.3268700  36.5771179
  84.3252640  56.3054924  13.3371420  83.5349426  56.5515175  13.8178720
  84.1044998  56.4593735  12.4185486  37.7104263  65.1575775  29.9623318
  37.6200600  64.2677002  29.6214752  37.3449745  65.7153549  29.2756271
  46.7899323  42.7519646  74.8550186  46.6496658  41.8094482  74.7643509
  47.5972519  42.9217606  74.3695984  44.0345001  52.1556664  70.5603790
  43.3358192  52.0206947  69.9201736  44.8076210  51.7597008  70.1582260
   2.3941076  54.0328979   1.5135026   2.8698461  54.7481155   1.0911670
   1.6107936  54.4471474   1.8755076  49.7199249  29.1481533  75.6300201
  49.5222168  28.4256001  75.0341492  48.8676949  29.4135704  75.9756927
  60.9943085  53.8695526  64.0146866  60.2600975  53.2575607  63.9633560
  61.6230392  53.5439034  63.3705750  14.9050446  71.3819809  26.2677288
  14.2989311  70.6582565  26.1093407  14.3398485  72.1291809  26.4638615
  82.9636307  35.6467705  19.0999603  83.6848831  36.0075607  18.5843410
  82.9736633  34.7100677  18.9031944  77.9930954  25.7743969  80.7810593
  77.4768066  25.6260357  79.9888077  77.3472137  26.0090961  81.4473877
  32.9577217  48.4707298  67.8935547  32.6581764  49.3518410  68.1174927
  32.4344597  48.2266846  67.1300964  45.6138382   4.3724961  16.1788883
  45.4871788   4.9420042  15.4200411  46.3466721   4.7650671  16.6533108
  26.7849789   6.4065652   1.3949525  25.9989700   6.8313794   1.7383959
  26.5476913   6.1477642   0.5044758  49.9567680  46.9034348  63.0033760
  50.8718834  46.6391983  63.0981140  49.9107094  47.2995796  62.1332130
  51.1495476  37.1919403  76.9309158  51.6414948  37.9779930  76.6935501
  51.6700974  36.4688492  76.5810623  22.0683823  56.5761681  24.4639320
  22.5731869  55.8341522  24.1310349  22.7109051  57.1153603  24.9250946
  26.6641560  70.9201355  40.6221046  27.2628345  70.3475266  40.1425896
  27.1818676  71.7024384  40.8124046  42.3098679  56.0090675  55.0748062
  42.8816452  55.8032761  54.3352470  42.5478096  55.3700523  55.7465744
  24.5337162  48.3510551  83.3115921  23.6756401  48.2355499  83.7197495
  24.3978462  49.0375519  82.6585236   3.8913779  49.5294609  61.4595642
   3.9893126  50.3186111  60.9267578   4.6623640  49.5262680  62.0268402
  83.7264404  48.6948090   8.8717070  84.3161545  47.9413109   8.8982573
  83.2548218  48.6592865   9.7039003  60.1794243  62.5883255   1.8895983
  60.3367958  62.7455482   2.8205912  59.2738266  62.8650093   1.7496973
  23.6307354   1.1499214  18.8053665  22.8161621   0.7719365  18.4739590
  24.2719479   0.4436010  18.7266884  49.6272583   1.7121993  32.1993141
  49.3829422   2.4924018  31.7014923  50.5661850   1.8124508  32.3561592
   3.3923867  55.1105270  13.1463671   4.3263674  54.9763985  13.3073692
   3.2939208  54.9991035  12.2007875  64.8463440  35.6859131  46.4706306
  65.5583878  35.7790451  45.8377419  65.1991272  36.0486488  47.2831573
  36.6748886  11.0559769   9.3406982  36.8262672  10.1785612   9.6920643
  37.4188881  11.2127752   8.7592268  67.5954971  31.9394150  53.5552483
  67.4720383  32.7625313  54.0279732  67.3801270  31.2610168  54.1952629
  68.9187164  17.7640438  85.4081497  69.0191040  17.6717567  86.3555832
  69.8150101  17.7760029  85.0723648  68.2907333   7.6589022  14.2655334
  67.7902451   6.8462472  14.3385677  69.1957550   7.3725677  14.1423407
  29.3287182  70.6047745   8.1927586  28.8034115  71.0619125   8.8494959
  29.1077843  69.6808395   8.3100853  35.8889313   6.5492148   6.4890032
  35.4863281   6.4347811   7.3498430  36.7664032   6.1786914   6.5838108
  16.3303967  12.4259138  19.4796848  16.5137234  13.1060305  20.1278095
  15.4986267  12.0448608  19.7610893  33.7801399  26.9646473  69.5226288
  34.6007347  27.3297119  69.8536606  33.2114716  27.7249832  69.4012299
  50.6544533  54.6136360   7.8807864  50.5723228  54.6387634   8.8341255
  50.3206825  53.7510452   7.6342869  29.0534115  43.8854675  80.5051804
  28.6771793  44.4025345  81.2174454  29.8944111  44.3047714  80.3231430
  15.5440226  45.5775375  71.5504761  16.2003689  46.2726059  71.5986481
  15.5955353  45.2615700  70.6483994  62.6173401  41.5653267   4.3227911
  62.7209091  40.7689095   4.8435798  62.0367317  41.3091125   3.6062160
  79.1972046  60.6786499  85.5003128  78.5428162  60.8426476  84.8212662
  78.8546448  59.9289665  85.9869995   3.4474118   1.7280891  31.7111874
   3.2666559   2.2080896  32.5193672   2.9537382   2.1971548  31.0385075
  41.7885780  40.1215286  11.6147881  42.0287361  40.0589828  10.6903181
  42.5289040  40.5687523  12.0248413  47.9839554  53.2680168  48.1572342
  47.2334557  52.6778450  48.2256737  48.6191750  52.7871704  47.6266556
  11.3606749  32.7473297  85.0382996  12.0446901  33.2750893  84.6262054
  11.5571804  31.8494778  84.7709427  48.5369072  49.3098335  30.3848190
  49.3569069  49.2398720  29.8960094  48.5689087  48.5866127  31.0110416
  30.2612209  40.0921516  45.6882401  31.1211739  40.0182838  45.2744026
  30.3450012  40.8371811  46.2833405  77.9451370   3.9338715  57.4977951
  77.1643982   3.3820598  57.5445290  78.0927353   4.2169309  58.4001961
  25.5500278  47.2613983  62.6758804  26.3880882  47.1581192  62.2250824
  24.9430370  47.5431328  61.9914703  28.6300068  47.1629448  75.2630920
  29.1335373  47.8576508  74.8387451  29.1576843  46.3741608  75.1381607
   2.3160775  37.0797997  35.2843666   2.0237377  36.1810188  35.4359016
   1.5075203  37.5899620  35.2374420  81.1530304  59.3162231  20.1452446
  80.9694214  60.1859894  19.7902451  80.9734726  58.7185059  19.4194851
  62.7061958  31.5983372   5.8114767  63.3072395  30.8552094   5.7591190
  63.2040977  32.3345833   5.4561353  54.9108849  37.9468117  47.3400116
  55.3759422  38.4419670  46.6656418  54.3008041  37.3931236  46.8527069
  72.1243057   6.6271887  46.7998238  72.1716843   7.5730019  46.9391975
  72.7963333   6.2659564  47.3778572  25.5176353  69.5163422  82.3489914
  26.4423828  69.7459259  82.2575455  25.1353626  70.2495422  82.8311844
  52.8431587  71.7612839  56.4784279  53.4503174  71.0221939  56.5148888
  52.5698433  71.8917465  57.3864517  45.2064705  63.5099182  65.9548035
  45.5248909  63.6515198  65.0632935  45.9480820  63.7420235  66.5137100
   6.1137347  24.4779301  86.4749756   5.7618761  23.8439903  87.0999146
   6.2427692  25.2748890  86.9892120  75.4465561  50.8356056  57.3161163
  75.4755783  51.5776443  57.9200783  74.9760284  50.1542282  57.7962875
  60.7302628   6.6465921  51.1955910  60.6736069   5.7615910  50.8353195
  61.5656929   6.6620674  51.6625481  -0.0962285  26.9588184  25.1425476
   0.0414298  27.6411858  25.7995529   0.4567818  27.2201862  24.4062748
   5.8598495  21.8595848  72.9604797   5.7291808  22.3610840  72.1557083
   5.1067343  22.0835342  73.5071945  53.2213669  66.9554214  56.8192101
  52.4141617  66.6118546  56.4363022  53.9010201  66.3454132  56.5325127
  68.6215897  31.6584568  57.8284531  68.1250381  30.8401241  57.8295975
  69.3915939  31.4706402  57.2917480   6.5195827  57.1778564  65.7984848
   6.8024001  56.5448952  66.4584885   7.2911391  57.7225876  65.6429138
  77.5539398  15.8786907  87.8255310  77.6000519  16.0228043  86.8803635
  76.6168442  15.8642721  88.0201721  23.4704056  12.5764503   6.3894906
  23.1498470  11.6843033   6.2570276  23.7161694  12.6078424   7.3140702
  11.3590002  23.4440022   1.0927391  10.8506451  23.4660950   0.2819872
  11.0472775  22.6628075   1.5496817  74.4454956   3.3310664  55.6005859
  75.1687241   3.9010770  55.3393135  73.6765518   3.9010661  55.5931091
  86.4314117  32.2297897  58.6516495  87.1352005  32.2420769  59.3003082
  86.4766388  31.3550129  58.2657089  38.7381020  52.5071945  82.9151688
  38.1421814  53.1585770  82.5452881  39.5719452  52.9687080  83.0043182
  69.7737579  64.2347870  56.5298615  70.6513443  63.9025993  56.3408623
  69.6462479  64.9455643  55.9015579  55.5890465  35.3973846  49.3027763
  55.4464569  35.9569054  48.5393372  54.8359795  35.5677109  49.8685608
  47.9866180  57.1525345  53.0200272  47.8447342  56.2967148  52.6154556
  48.4897232  57.6439629  52.3707085  13.5977716  34.6621704  67.8673019
  13.9704370  35.3140602  67.2736740  13.0721836  34.0961418  67.3019714
  84.4719086  27.6133251  14.0500612  83.6100311  27.6098709  14.4664564
  84.5201416  28.4600906  13.6063356  81.1310425  54.5739136  38.7796249
  81.9236679  55.1010094  38.8803406  80.9109192  54.2998466  39.6699409
  72.6122284  40.8315353  16.4129505  71.9671783  41.0064583  15.7277174
  73.4259338  40.6619453  15.9382381  77.9527435  36.9060020  41.9205589
  77.5699539  36.1093750  42.2881088  78.8414841  36.6519928  41.6718597
  85.1564713  63.4554977  54.7564201  85.3924789  64.3512421  54.9976158
  84.2506104  63.3591042  55.0502663  23.0062618  68.4704285  25.0270863
  23.4978371  69.2031021  25.3982601  22.3269653  68.2848282  25.6754246
   2.0994437  66.5054550  70.8958893   2.5993428  67.2730026  71.1737518
   2.6142716  65.7597809  71.2043610   5.8929081  45.5726585  83.5238113
   6.4463191  46.3205452  83.2987900   5.4658632  45.8281288  84.3414917
  73.7121201  60.9328690   0.5613311  74.0690002  61.2445145  -0.2703800
  73.8648605  59.9880219   0.5484822  36.1063118  64.9753571  32.2582016
  36.6838684  65.3314285  32.9333878  36.5358505  65.1999207  31.4327946
  81.1270676  26.3353024   0.1393364  80.1822968  26.4816818   0.1864696
  81.4703217  26.7257824   0.9430351  84.7981415  34.2545471  61.8723755
  85.0384293  33.4014740  62.2339859  84.0649414  34.5464020  62.4141045
   7.8588762  23.9192982   1.0852592   8.2221537  23.0812111   0.7991281
   6.9730763  23.9326553   0.7227508  31.4905605   0.6229149  39.3820267
  31.1551933   1.3339540  38.8359642  32.3289032   0.3896587  38.9832687
  83.6303940  21.8609047  83.2988968  84.5159149  22.2237358  83.2781754
  83.1006546  22.5452671  83.7078705  19.2734966  53.1119881  50.0984993
  19.5445347  52.2908554  50.5089989  19.2734413  52.9221535  49.1603127
  58.5380669  23.5922050  59.0903320  58.5400352  24.2702408  59.7659760
  57.6549187  23.6232071  58.7224731  68.9326553  16.7610416  42.9178085
  68.2699661  16.1421986  43.2245712  68.5039749  17.6154137  42.9679375
  85.1017227  60.3316917  17.5814934  84.4123459  60.1246796  16.9505157
  85.7860947  59.6849899  17.4092941  77.3423004  27.0358219  74.3756027
  77.0912552  27.6473503  75.0678711  78.2190781  27.3169994  74.1139984
   7.4625955   8.6294746  71.0977249   7.4068117   7.6794438  70.9949570
   7.5872164   8.9597263  70.2079926  45.0939407  23.7162399   0.8567219
  44.6791763  23.7905807   1.7161851  45.9779930  23.4005737   1.0439067
  11.7682810   4.2551064  44.1341400  12.3418198   4.9437656  43.7979355
  11.0697737   4.7258873  44.5887680   0.6972232  37.2067146   7.2002788
   1.2694173  37.1843567   6.4332547   1.2373531  36.8635139   7.9121113
  22.5789604  37.5960159  79.0679398  21.7044926  37.4781456  78.6969376
  23.0503597  38.1092453  78.4117355  86.2714767  56.5284119  81.5725784
  86.3793259  57.1272163  82.3115234  87.1643753  56.3459511  81.2798691
   9.5040455  39.8768272  18.0419044   9.3280153  39.0613899  17.5725346
   9.4400053  39.6393318  18.9669609  46.6363068  17.0106735  83.0723724
  45.9175835  16.4225750  82.8404083  47.3535919  16.4267101  83.3187943
  33.8825455  40.6975479  72.0575638  33.0944099  40.7200012  72.6003036
  34.2622871  39.8344727  72.2222900  53.3151207  26.5010300  28.9433155
  53.1199875  27.2407990  29.5185528  53.8766785  25.9308777  29.4684925
  47.7221451  64.4704895  26.2739773  48.6424828  64.3983307  26.5269623
  47.5569344  65.4126129  26.2374706  41.0555000  17.7199574  78.5524063
  40.2695503  17.4001598  78.1094131  41.2631264  17.0394936  79.1927872
  79.3757401  33.8787918  45.3460922  79.2420349  33.6678772  46.2701454
  80.2605743  33.5676804  45.1550064  26.2235851  69.7718353  35.8004570
  25.3905182  70.1542206  35.5247536  26.1311073  68.8372803  35.6152763
  58.8589211  10.0486450  48.6193047  59.6587830   9.5243731  48.6592064
  59.1674309  10.9485617  48.5134544  82.0806274  67.2693024  50.5794067
  82.1840363  67.8068771  51.3646164  81.4704819  67.7619324  50.0305252
  42.4627457   3.9669011  16.7168293  42.3899803   3.0308793  16.9033775
  43.2422485   4.0415230  16.1663399  74.9259872  48.8744164  71.1018677
  75.0734863  49.7515678  70.7481995  74.7474976  49.0178032  72.0312805
  70.6174240  52.5639725  54.9840965  71.1707382  53.1569862  55.4924355
  70.9167557  52.6719284  54.0813370  60.6630669  47.5378075  59.9042015
  60.1973572  48.3303032  60.1712151  60.6789398  47.5799904  58.9480629
  52.9573479   8.0721455  38.5693626  52.0917053   7.8419104  38.9068298
  53.0001755   7.6495576  37.7115631  54.3088112   1.6974863   4.6968589
  54.4508400   0.9642065   4.0982261  54.7659416   1.4440334   5.4987483
  15.8022242  65.0085297  33.7523232  16.0607891  65.7397614  34.3132896
  15.2312555  64.4737549  34.3039017  67.8156815  25.7574272  55.8068962
  68.0175323  25.8241634  56.7401886  66.9734802  25.3035984  55.7758522
  31.1000919  30.8393593   2.0192640  31.1941929  31.3045769   1.1880298
  30.3154621  31.2164211   2.4172761  83.3075409  30.1202316  22.8494015
  82.6172638  29.9229698  23.4825211  82.8415222  30.4570122  22.0841312
  17.9095802  12.4461279   0.4897590  17.1963959  12.6941710   1.0780413
  18.0718174  11.5233717   0.6858013  82.3675156  34.1103516  30.6835632
  83.0263214  34.7854614  30.5209599  81.5611343  34.4682274  30.3122177
  10.5232000  24.6218796  80.6741333  10.2406006  23.7106018  80.7512131
  11.1151972  24.6262474  79.9219666  40.1886787  29.9921131  13.0218048
  39.3271103  30.3030567  13.2997332  40.8065948  30.4817486  13.5646362
  12.6547604  66.1505737  44.8161507  12.9154940  65.3075714  44.4452171
  11.7350302  66.2468033  44.5690269  69.8142624  60.4727859  23.0482559
  69.7524567  59.7708588  22.4004040  70.3110657  61.1622467  22.6077328
  47.1661949  48.1523438  86.0164413  46.2329292  48.2668495  85.8371582
  47.2070274  47.9445152  86.9499130  66.5583267  12.8642340  47.5526276
  66.0481415  13.2271414  46.8285866  65.9079285  12.4508381  48.1203575
  51.2514267  59.0883636  27.6022835  51.9178314  58.5791893  28.0636749
  50.5180626  58.4824677  27.4959774  16.7317886  52.9492836  63.6529083
  17.1579018  53.3506622  64.4102402  16.8604317  52.0088196  63.7762375
  62.6957741  33.2633781  74.8750076  62.8445396  33.8496704  74.1331406
  61.7927475  33.4374199  75.1405029  82.0881195  59.8893166  85.8127670
  81.2932663  59.9725304  85.2859650  81.7708435  59.7742424  86.7084961
   9.4794836  64.8920135   0.7564565  10.4257584  64.7744217   0.8399245
   9.3797426  65.7573471   0.3596093   2.3994679   6.4957309  75.0338058
   1.7966497   5.8225636  74.7180710   1.8304858   7.1976414  75.3497391
  11.8958616  14.5016384  75.1857147  12.0259247  14.0326490  76.0099487
  10.9839535  14.7910013  75.2161102   7.5815897  39.3650055  50.3764153
   7.1759181  40.0125198  49.7998848   7.0390720  38.5826683  50.2771454
  75.4259949   4.7435594   9.6637878  74.8271332   5.4892111   9.6236811
  74.9969254   4.1231952  10.2530928  12.0789642  44.2124710  84.9604492
  11.7714872  43.9320946  84.0984268  11.7988300  45.1251564  85.0294724
   5.8695974  20.2634621  65.3146362   6.6359653  20.1869316  64.7462540
   6.0203729  21.0665665  65.8131485  51.6724854  58.6649437  69.5723953
  50.9495468  58.0377464  69.5871582  51.7337646  58.9382973  68.6571045
  78.0940399  18.5327892  83.0407181  77.1368790  18.5386257  83.0471039
  78.3405914  18.6892700  83.9522858   1.6666652  55.5976067  73.0829773
   0.8273036  55.3887596  72.6729889   2.2879059  55.6269493  72.3553543
  14.8652534  21.7955799  17.5732174  14.7036762  20.8547535  17.5027237
  15.8022470  21.8911324  17.4024982  27.2196484  69.0539017  19.4595051
  27.7870312  68.4552612  18.9737740  27.1610756  68.6710968  20.3348675
   1.2088189   3.8090796  70.4734497   1.7663680   3.6046844  71.2241745
   1.6990211   3.4880018  69.7165833  48.7478561  53.7220192  82.0239487
  48.8264351  53.5137215  81.0930023  47.8795776  53.4018784  82.2685547
  33.0904312  57.8832397  61.6727295  32.3016701  57.9546776  61.1351585
  32.9737053  58.5413475  62.3579292  42.0278625  49.9319038  70.0751419
  41.4705505  49.1834335  69.8620224  42.4425583  50.1658745  69.2447739
  65.0869217  17.3262501  14.2631464  64.7563782  16.4334488  14.3625193
  64.3104553  17.8479214  14.0601864  85.4806671  61.4539108  33.4273071
  84.6052551  61.3103104  33.0677719  86.0315094  61.6119766  32.6606178
  57.6089287  66.3749542  47.2978287  57.1674004  66.4050293  48.1465797
  58.5165367  66.1548538  47.5076561  30.8698692  67.5103455  31.9659367
  30.7707882  68.3358612  31.4916592  30.6009789  67.7148972  32.8615303
  28.7137508  39.0912170  56.6660309  29.5978527  39.4417076  56.7744370
  28.2440319  39.3799477  57.4484825  42.8156967  61.2463036  11.7324896
  42.7772675  60.9251251  10.8316031  42.1129265  60.7785912  12.1836996
  81.4191818  55.0054359  41.9859314  80.9650192  55.3490715  42.7552719
  82.2737808  54.7282982  42.3162155  16.6325340   7.3764234  69.9916840
  16.6115952   7.2601562  70.9415665  17.4431343   7.8581805  69.8271637
   8.0661077   2.8316298  61.0082245   7.3641300   3.2071111  60.4767418
   7.7590008   1.9508274  61.2229424  86.5411072  52.0084724  69.2086182
  86.2072449  51.1127701  69.1587219  86.4675217  52.2402878  70.1343994
   5.9787965  56.4931717   7.9846072   6.8573132  56.7990303   8.2101965
   5.6669116  56.0552979   8.7765837  63.9737625  43.6171303  74.4575500
  63.6137962  42.8090210  74.0920105  63.3646927  43.8560905  75.1562347
  19.3944168   4.7174940  16.4162064  18.8150806   4.2244854  16.9971924
  19.6005478   5.5149555  16.9038506   6.8079419  63.8391037   0.5597434
   7.5935640  64.3597107   0.7270637   6.1433554  64.2163773   1.1361297
  55.5703011  57.0359688  72.2374115  55.3187485  57.8031273  72.7516251
  54.8261871  56.4392548  72.3177795  78.1807785  11.6314783  72.4636841
  78.4811172  11.6963644  71.5571442  78.4205093  12.4709864  72.8560944
  51.7014351  16.8994865  25.1959190  52.0218811  16.3349590  25.8993778
  50.8782959  16.4956875  24.9209290  34.8242836  16.4311924  82.2776947
  34.9266853  15.4861994  82.1648407  33.9276848  16.5387306  82.5951462
  69.0295639  47.1480179  27.3259239  68.8055191  47.3012123  26.4080086
  69.0114822  46.1957436  27.4211731  67.4456406  42.6155396  57.8732796
  68.2375412  42.8369522  58.3632889  67.7671738  42.1947899  57.0759010
  63.8485718  54.6803627  60.3971825  64.5053253  55.0165863  59.7873764
  64.2957458  53.9760094  60.8663864  39.8158760   8.6384420  58.5381966
  39.6315308   7.7001672  58.5816574  39.3948174   8.9280243  57.7288284
   7.3899446  53.0875511  52.7684402   7.3958879  52.2866821  53.2926598
   8.2489452  53.1039696  52.3464470  15.0480556   7.8855839  54.9710960
  14.3985634   8.5004311  55.3122025  15.0819759   8.0693607  54.0323181
  75.4954987  55.2790413  36.7703362  76.2384567  54.6761818  36.7988472
  74.7607117  54.7399445  36.4776077  46.2794266  13.4474773  15.0426064
  45.3601227  13.6373920  14.8554010  46.3272781  13.4137125  15.9980135
  46.6117401  11.2444105  13.2115707  46.0389862  11.7367172  12.6235065
  46.9654579  11.9035740  13.8087473  66.5216599  27.2151852  10.4169569
  67.1497574  27.0638027  11.1232204  66.9642334  27.8284397   9.8302021
  14.6530504  59.3154373  72.9053497  14.1808424  59.2488289  73.7352982
  14.5944004  58.4388390  72.5253906  74.7946548  15.3641958  88.2879410
  73.8683853  15.5976496  88.3491821  74.8903732  14.6095133  88.8689117
   7.6088958  69.7346573  48.1933861   8.0016308  70.3071594  47.5344238
   7.9486217  68.8638458  47.9872169  42.5029678  31.6894436   4.9993014
  41.6641388  31.2718239   5.1947351  43.0795860  31.4136543   5.7118187
  46.2109375  68.9075470  44.3110542  46.2862473  69.8448181  44.1319542
  46.8669624  68.7394943  44.9875298   9.1501026  27.8239193  16.0509892
   8.5621510  28.0879936  16.7586689   9.4394894  28.6482372  15.6598558
  26.0567341  23.7846699  77.3059235  25.9009132  23.5551510  76.3898087
  25.5774307  24.6034889  77.4325562  23.0526581  55.8839455   0.0734245
  23.8281708  55.9149323  -0.4867980  22.9960423  56.7609329   0.4527922
   2.7752984   3.3845496  50.6591492   3.0793447   3.6865115  49.8032227
   2.7802672   2.4297268  50.5919113  10.7553520   2.3796542  46.2804756
  10.7356949   1.8328820  45.4950523  10.2805462   3.1728120  46.0320930
  21.6100712  66.6111526  30.0437584  21.2505550  67.1594315  30.7411613
  22.5160389  66.4509964  30.3079662  55.8654022  52.7192535  84.8735199
  56.0488472  52.2050781  84.0872574  56.4291229  52.3374290  85.5463181
  36.8617516  22.4407959  13.0482903  36.2711678  22.9951668  13.5583048
  37.2574883  23.0352268  12.4108934  49.5922775  37.3820114   4.7315888
  49.4006424  37.3586884   5.6691194  49.3044586  36.5287666   4.4069934
   8.4590273  33.4576759  15.9916019   9.2404289  32.9555893  15.7601824
   8.4468212  33.4541435  16.9487171   1.4973232  68.9077759  53.3133316
   2.4132972  68.8337021  53.5811691   1.4918178  68.6265030  52.3984070
  72.0636902  24.1676292  21.1251583  72.4280319  24.8911724  21.6350346
  71.7325897  23.5548267  21.7817211  52.3833733  57.1150284  45.1292763
  52.6480980  56.3588715  44.6054649  52.8605652  57.8508949  44.7458496
  11.4341536  47.7678795  12.4351349  10.6579170  47.2528572  12.2150431
  12.1496410  47.1320534  12.4412098   8.5327339  31.1156616  13.9854841
   8.1676655  31.7455635  13.3640509   7.8314924  30.9723015  14.6210461
  84.8810654  29.1061630  67.0946121  84.1569138  28.5848598  66.7480850
  84.8034363  29.0220490  68.0449448  83.3786545  56.5420532   4.0394120
  82.7774582  56.2594109   3.3502777  83.3880692  55.8150864   4.6620378
  85.6359024  27.9843941  79.6253281  86.3394928  28.2704105  80.2078934
  85.6437912  27.0294895  79.6910858  26.7297726  46.0909042  79.1431427
  27.3184566  46.8151627  78.9307022  26.4418545  45.7589493  78.2927628
   5.6473541  36.2491570  45.0266151   6.3030300  36.5995445  44.4236641
   5.9878383  35.3906746  45.2782211  73.3103638   4.7832913  84.0336990
  73.8833313   4.4720931  84.7344818  72.7767258   4.0222926  83.8049164
  67.8943558  45.1089020  44.3060684  67.0032501  44.9260864  44.6039619
  68.3205109  44.2520485  44.2853966   3.4675193   3.7103360  80.8205261
   2.9307580   2.9237952  80.7231979   4.1399961   3.4642954  81.4557190
  53.1752739  56.1775436  72.9959183  52.3136444  55.7617493  73.0265121
  53.2659454  56.6037521  73.8481827  29.9672604  32.7206421  84.0685730
  30.5985279  33.3702126  84.3780670  29.1792450  32.8870468  84.5858459
  30.0386715   3.7653685  87.1017303  29.8399410   3.6312530  88.0284119
  30.8590946   4.2584577  87.1016312  69.5771408  52.7031555  42.4969330
  69.0996933  53.4595947  42.8376350  70.1310806  52.4217529  43.2250710
  59.5320168  28.2671547  12.8391752  59.0282784  28.9769993  13.2374249
  60.4185143  28.3810654  13.1817780  54.0330200  70.9071960   3.2225730
  53.5929489  70.0894852   3.4547648  54.8679619  70.6309280   2.8447101
  51.7872696  35.1700478  16.6702156  52.1163063  34.3831863  17.1047440
  51.5436745  35.7555084  17.3872452   5.7429266  43.6646767  87.4360580
   6.6551576  43.5070229  87.1927185   5.4404340  44.3272209  86.8149567
  26.5307560   1.5485197  54.3220825  27.3443813   1.0715578  54.1585197
  26.7163563   2.4433889  54.0374908  64.0766830  64.2603683  31.8314209
  63.8793488  63.4728165  32.3384285  64.5758133  64.8133621  32.4324913
  27.1885071  43.8605881  11.0457315  26.8740025  43.7100487  10.1542969
  26.9475536  44.7674675  11.2347755  30.1945057  44.0108337  10.2566977
  30.5863018  43.1720428  10.4999294  29.2513981  43.8653831  10.3317041
  10.6988668  70.9023438  64.2667999  11.2060852  70.9135361  65.0784836
   9.8792648  70.4676895  64.5025101  71.9621964  13.8825045  47.3856850
  72.6290512  14.2001944  46.7769089  71.4425507  14.6579046  47.5976944
  66.6803131   0.5713130  13.3087330  67.3096771   0.7734734  12.6164503
  66.2711182  -0.2474793  13.0287867  67.1679611  31.5571880  31.2965031
  67.4963684  30.8397331  30.7546215  67.9162903  32.1461334  31.3933468
  23.9300880  51.9593735  22.2632504  24.1384678  51.2258644  21.6846523
  23.5809002  51.5487671  23.0542641  81.3878326  41.8100853  66.2889328
  81.0394974  42.5643044  65.8134842  81.8005600  42.1866760  67.0661469
  44.5885849  13.4580975  30.6672592  44.3138161  14.3739872  30.7106209
  44.0678596  13.0852442  29.9558811   1.7714978  32.5920448  68.8008957
   2.5984740  32.1750488  69.0426712   1.8283982  32.7045212  67.8520279
  62.4591331  64.6990738   1.4187247  63.1291580  64.1349716   1.8048433
  61.8154144  64.0915222   1.0543948  45.6901283  18.7593212  80.0947189
  45.1701584  19.4434395  80.5164261  46.5499229  19.1588783  79.9630280
  39.7363815  64.0584946  84.1737137  39.4666672  63.2490349  84.6075974
  40.5107193  63.8124542  83.6676483  69.7459793  28.5479488  65.0748062
  70.1647568  27.7253799  65.3282547  69.3252411  28.8593807  65.8761902
  75.8817596  56.3444290  26.6570587  76.6254501  56.2051964  26.0707321
  75.2678833  56.8704453  26.1445255  67.5766373  53.2497559  13.5997734
  67.3272095  54.1663857  13.4822588  66.7893448  52.8298340  13.9462872
   6.3929181  50.3883896  63.9049950   6.2739034  49.6809998  64.5387650
   7.2470927  50.7624207  64.1211395  10.6741972  23.8842659  25.0831108
   9.8626213  24.2550545  25.4296532  11.2811661  23.9029560  25.8230247
  74.4272003  68.2270432  77.4954071  75.1565628  68.8454285  77.4522095
  73.6584930  68.7742157  77.6564407  17.0923920  60.6792412  88.1275787
  17.3006592  60.4017677  87.2354660  16.2666874  60.2388306  88.3287888
  68.5189896  66.1439209  62.9898720  68.6097183  66.5005569  63.8735046
  67.5909119  66.2520981  62.7820435  70.9281693   2.8143501  72.5208282
  71.2558746   3.5284297  71.9740829  71.4522934   2.0558209  72.2636185
  33.9269791  -0.1763716  73.9750748  33.5405273   0.6074502  74.3656006
  34.8703728  -0.0597164  74.0874405  16.9393921  65.8100357  24.1385689
  16.4925499  65.5593185  23.3300476  16.4159546  66.5313797  24.4877262
  51.5257111   5.5070901   5.1836276  52.2066460   4.9918528   5.6161642
  50.7348328   4.9738216   5.2634296  16.0828323  43.5307045   7.2592120
  15.3587132  43.3235550   7.8499498  16.8688412  43.4076958   7.7914643
  11.2421484  56.1032829  12.6375504  11.2319765  57.0560570  12.5461855
  11.2919016  55.7770271  11.7390432  15.3826561  60.0148888  67.2352676
  15.2464437  60.4631691  66.4005661  16.1989632  59.5294495  67.1160126
  67.2815399  59.3729324  30.9225731  68.0433273  59.9524078  30.9337749
  67.5756607  58.5819130  31.3742523  26.6879215  63.9671440  58.5458031
  27.4325905  63.9921646  57.9449081  26.1251316  64.6866760  58.2598457
  45.1984406  46.8402367  39.0672760  45.2023849  45.8903389  39.1852417
  46.0394630  47.1290741  39.4215164  56.8057442  25.1873207  85.5186844
  56.9501114  26.1131077  85.7144165  56.3216782  25.1897507  84.6929092
  45.9375420  13.8022861  61.2266159  45.1855164  13.4134493  61.6732635
  46.6859093  13.2835875  61.5217972  69.3316193  63.4159966  44.7844391
  69.7910538  63.2964706  45.6156235  69.6415710  62.6969337  44.2338867
  61.7695808  70.0848389  67.1329041  61.5477409  71.0158463  67.1483231
  61.5673027  69.8051758  66.2400970  73.1253815  11.5346346   6.7536259
  72.7312775  11.1647902   5.9636049  72.5020981  11.3298273   7.4506230
  80.6589890  37.3068542  10.5198851  80.3715210  38.1572762  10.8521070
  80.2819748  37.2528839   9.6417179  49.5915909  51.1305847  42.7003593
  49.8413658  51.6858597  41.9617691  48.8324738  51.5695877  43.0840912
   8.6803837  63.4056854  82.0764771   8.1271601  64.1697845  82.2387238
   9.1107540  63.5943108  81.2425537  29.5720921   3.5494633  64.6339722
  28.7230816   3.8016677  64.9970169  29.7105160   2.6556005  64.9471436
  74.4569626   2.9376242  65.9421539  75.3852844   3.0275156  65.7267990
  74.0144958   2.9234028  65.0934830  15.2768450  68.9821930  85.9028625
  14.4243717  69.0137024  85.4686661  15.6023340  69.8811874  85.8570709
  51.8726540  19.0653458  13.0183659  52.8172607  19.0089417  12.8742590
  51.7858315  19.4659100  13.8833761  71.6471863  31.2138882  52.8767776
  72.1075134  30.5796032  52.3272247  70.7867966  30.8217697  53.0258293
   2.7751138  25.2104969  50.5267448   3.3819041  25.7512512  51.0323372
   3.0555880  24.3115120  50.6981888  70.8434601  44.4192581  51.2008286
  70.5270767  43.7310677  50.6155701  70.3688965  44.2744370  52.0193901
  83.2468262  19.5891666  21.3236122  82.6474609  20.0702000  21.8942261
  84.0050507  19.4011421  21.8767643   3.7719014  51.9978371  78.5845184
   4.4365106  52.6829262  78.5125275   3.0574327  52.4075584  79.0722656
  27.4867649  52.3264809  11.1222839  27.7526016  52.6336937  10.2555752
  26.8561230  52.9798622  11.4249668  54.6152992  61.8216476  74.7954941
  54.5769348  62.3798637  74.0188599  55.0645981  62.3545456  75.4515228
  77.6545639  20.9054585   6.6347070  76.8073425  20.6740589   7.0153599
  78.0806503  21.4393101   7.3052936  69.1709061  57.0512962  28.1732578
  69.7798843  57.5248337  28.7399540  69.7329636  56.5834198  27.5556717
  85.0040741   7.1171088  21.4994621  84.5666733   6.5182142  22.1046371
  84.4207535   7.8743091  21.4483604  82.5705109  30.6355305  12.1628504
  81.9122620  30.5731564  12.8549824  82.7936935  31.5656834  12.1276970
  64.1813431  10.4290991  56.7819786  64.3679886  10.4121809  57.7206497
  63.6018524  11.1821575  56.6665344  24.1535530  48.8553734  35.9562950
  23.7584820  49.6282730  36.3597565  25.0911827  48.9506798  36.1236267
  57.2360382   4.1129513  33.8360710  57.1283073   4.0071430  34.7812843
  58.0415916   3.6378396  33.6321487  76.0625839  55.0166397  61.5646553
  76.8491135  55.5621529  61.5692368  76.3523788  54.1755791  61.9180260
  59.6029167  15.0309448  82.0618515  59.9523926  15.0040503  82.9525681
  58.7566109  14.5879469  82.1231384  86.1191483   4.3799682   9.3109026
  86.6167068   4.8765092   9.9606037  85.2136459   4.4235983   9.6181450
  48.6413116  48.9609604  77.4477539  49.5508499  49.1201363  77.1954880
  48.6939850  48.2758751  78.1141739  33.1466370  31.4503727   7.5715466
  32.5689011  31.5920658   6.8216305  33.9630051  31.1301613   7.1878276
  79.6333237  15.1996822  53.1322670  79.5826416  14.6798458  52.3301239
  80.4774551  15.6472960  53.0746574  62.7687340   2.2686489  81.6503906
  62.7541733   2.4134021  80.7043152  63.5909348   2.6636879  81.9405060
  82.5526581  30.9282227  67.8465881  81.7531204  30.4711170  67.5857620
  82.8222885  30.4958115  68.6568680  74.5020447  61.1993408  47.5171356
  74.4357529  61.6883278  46.6969376  73.6897964  60.6948395  47.5615311
  55.7945290  24.7811947  65.2429810  56.3976631  25.5243282  65.2575912
  55.1874695  24.9794025  64.5299454  10.6507368  42.6936455  43.6161957
  10.3804693  41.8153381  43.8840790  10.2053537  42.8370323  42.7811508
  28.6190262  13.5452423  70.1488266  27.8919811  13.4061346  70.7556915
  28.5238991  14.4545965  69.8655319  15.5971899   6.6347923  67.3750916
  15.2870045   7.4507575  66.9823914  15.6314831   6.8186584  68.3138428
  74.0293655  55.5981140  46.2624626  74.6178894  54.8574524  46.4083786
  73.8091965  55.5494308  45.3321991  72.7567215  63.1629257   7.5261846
  72.5349808  62.4210281   6.9634681  73.3628159  62.8006287   8.1724243
  71.1384735  51.9608650  31.1372242  71.3121872  51.0634880  30.8530216
  71.6214905  52.5064240  30.5165062  82.6325455  23.4256763  60.6206970
  82.4129639  24.0047741  59.8908615  83.1748886  23.9630508  61.1980400
  53.0768127   0.0198061  88.0967865  53.7039337   0.5360356  87.5903625
  52.9843788   0.4969526  88.9214172  55.1629372  16.4952564  47.6688538
  55.3928833  16.4046879  48.5935974  54.2300758  16.2839317  47.6322060
  63.1817017   1.0201138  58.4628639  62.9006615   0.6646305  57.6197243
  62.5264854   1.6856556  58.6725731  52.9406204  51.0556717   2.9506254
  53.8371468  51.3676414   3.0737088  53.0218277  50.1027107   2.9118564
  45.9376335   9.6157846  74.0631561  45.6445999  10.4512815  73.6994171
  46.6220970   9.8537226  74.6885605  10.7734432  56.6604919  75.5859909
  10.6500931  55.9608879  76.2275314  11.7096167  56.8566437  75.6225357
   7.7383251  51.7681313  61.3290787   7.7996974  51.9967766  60.4016190
   7.3800898  50.8805046  61.3337402  30.6020813  62.6275520   4.8963366
  31.3759251  62.6397743   4.3330894  30.7422810  61.8818016   5.4798064
   4.3492980  20.8396168  69.8051453   4.9610457  21.1433182  69.1345062
   3.9784994  21.6421280  70.1721878  49.9776344  10.5041533  76.7618256
  50.2588806   9.5907316  76.7089386  50.7848625  11.0093126  76.6647110
  77.0014877  43.6162148  63.5826149  77.1363220  42.8232002  64.1014404
  76.0578003  43.6412773  63.4242973  70.7555313  11.5916700  41.6888733
  71.2013321  10.8718748  41.2423477  70.0133514  11.8020544  41.1221886
  58.6088104   7.0706611  86.4777756  59.4113007   7.4863162  86.7931671
  58.9003029   6.2378187  86.1067810  54.3945198  52.6124649   6.0591922
  54.8055229  52.0794449   5.3786058  54.7107315  53.5002632   5.8917041
   6.2563472   5.9584661  14.3469391   6.3495188   5.3613358  15.0892239
   6.5265088   5.4412990  13.5881357  63.1592407  58.7878990  29.8103371
  63.6863823  59.5434456  29.5505238  63.0569000  58.8815460  30.7574329
  63.2589989  69.4448700  78.4937744  63.2306557  68.5051956  78.6738739
  63.3144684  69.8527985  79.3579254   2.5290232  12.7702713  81.0760345
   1.8252574  12.4888334  81.6606140   2.6813433  12.0174589  80.5047989
  13.2575159  40.6432037  54.0139771  13.0822077  41.4224586  54.5414772
  13.3492422  39.9368095  54.6533699  32.9867897  67.6921616  19.0988350
  33.4536552  67.9611816  19.8899708  32.7910271  66.7658234  19.2395687
  75.3080750  26.8565941  86.8554611  75.0479431  27.6593056  87.3073654
  76.1755600  27.0516682  86.5009842  65.2245636  46.8889465   6.3640628
  64.4553833  46.6557312   5.8442559  65.7745590  47.3935966   5.7648420
  77.6665115  57.6333504  68.8042984  78.4430923  57.0911217  68.9426727
  77.9855423  58.5325775  68.8807526  29.7547283   7.2236271   5.6873155
  29.1860180   6.5489058   6.0581975  29.1615772   7.9413586   5.4653544
  26.2567425  53.5342827  81.7513504  26.9950237  53.9312057  82.2135468
  25.4937496  54.0302429  82.0481567  11.3945589  39.6920433  64.7967148
  11.6455412  40.5821114  65.0437317  10.7372875  39.8101273  64.1109390
   4.2348151  35.9742470   1.0215020   3.6797941  36.4941063   0.4401879
   4.9082303  36.5856514   1.3197041  44.3674812   1.7456348  70.0866089
  44.2332001   0.8063725  69.9601669  43.4923553   2.1254001  70.0081100
  65.3918686   3.1600010  16.1845493  65.5360641   3.5554211  17.0442486
  65.3272781   2.2213225  16.3604527  54.3824348  18.0635395  52.5086899
  53.5249977  18.4397526  52.3099518  54.7654533  17.8745651  51.6520576
  10.6305742   9.5179424  61.1418114  11.3237314  10.0073853  61.5847702
   9.8618889   9.6324396  61.7006035  50.3786507  26.7268448   8.9883852
  49.4351158  26.7241917   9.1495371  50.7494011  27.1827602   9.7439756
   3.9703612  56.2024994  62.1111946   3.9918017  56.1552811  63.0669899
   4.6913180  56.7897911  61.8841705  58.5388756  39.4559250  75.9181824
  58.4421883  38.5952873  75.5105286  59.3569221  39.8002052  75.5597153
  77.0845795  14.5371275  43.0167885  76.5161057  15.2918434  42.8635826
  77.6418304  14.8016787  43.7487106  65.0556030  36.7142906  81.3703537
  64.2143173  36.3315430  81.6193085  65.0385590  37.5947495  81.7454987
  77.3845901  50.9353600   6.6745443  77.5339279  51.6429558   7.3016281
  78.1814880  50.9126701   6.1447663  30.3284931  44.9887543  74.0633240
  30.5381355  45.4755173  73.2662354  31.1797905  44.7350616  74.4199219
  44.9287682  59.6387711  41.0262566  45.6332474  60.0736694  41.5066795
  44.2446022  60.3038750  40.9502068  13.5418110  61.7292519  19.2118855
  12.8602571  61.9250641  18.5689430  13.2278309  62.1288986  20.0230141
  65.1247025   7.4204969  61.2790489  65.6600418   6.8023267  61.7765541
  65.7588196   7.9919128  60.8459015  67.3568268  43.8370438  15.7534685
  66.4121704  43.9047089  15.6146126  67.4505539  43.6881790  16.6943645
  13.3105154  45.7785568  12.3312817  13.1970043  45.5367928  11.4120989
  13.0231085  45.0068130  12.8191767  68.0513687  24.1838131  23.6280308
  67.2043152  24.3993320  23.2377892  67.8404846  23.9043255  24.5188999
  17.3664265  31.3439808  73.8583298  17.9799500  31.7881947  73.2730942
  16.5143871  31.7250538  73.6460876  10.3136396  63.6095352  30.5039883
   9.9415407  63.8625908  29.6591587  11.2213259  63.3786583  30.3064175
  50.6545830  20.2826252  78.6371689  51.4106140  20.8652477  78.7092590
  50.0030251  20.7939816  78.1573563  25.1747913  57.4484940  54.9965591
  25.0795364  57.4453163  55.9490013  25.8547230  56.7978439  54.8216820
  82.5896912  21.8069038  56.5745697  83.4047318  22.1415176  56.9487076
  82.4383087  22.3530159  55.8031578   4.2302685  59.7925110  59.6575813
   4.7780347  59.3752937  60.3224945   3.6725655  59.0870895  59.3295898
  57.0299034  47.6379623  57.5802078  57.0785027  46.9135628  56.9564171
  56.1005783  47.8651466  57.6115036  10.8706551  49.4370499  25.8668709
  11.3610344  48.6279716  25.7214298  11.5220823  50.1320915  25.7731094
  44.6136894  51.1736984  20.6510086  45.5581551  51.1097145  20.5091648
  44.3006020  51.7250252  19.9338970  33.7047844  65.4623108  56.2857208
  34.4987106  65.2631989  55.7894669  34.0019379  66.0337067  56.9938393
  85.3176804  69.0407486  72.9002838  84.4865646  68.9840164  73.3717270
  85.7743301  68.2290649  73.1213608  57.4764099  59.3349533   1.5959529
  57.3295212  58.7767792   2.3595624  58.3116264  59.0350723   1.2371794
  22.7240772  46.5939140  50.9586830  22.5781651  46.1608353  51.7997437
  21.8849449  46.5224686  50.5037308  49.2567368  27.3702183  73.2726669
  49.1567955  27.6749592  72.3707886  48.4203949  26.9525719  73.4784241
  57.5099449  44.5290146  42.5993080  56.7730713  45.1052551  42.3963394
  57.7870750  44.7944183  43.4762268  77.4193192  51.2880402  88.9784546
  76.9258423  50.7001343  88.4065475  77.2107239  50.9913559  89.8642883
  41.9340210  29.1638470   7.2739053  42.0060730  29.3777924   8.2041035
  42.8141479  29.3077145   6.9261780  40.1663361   1.7756224  63.4616432
  40.4319534   1.1800390  62.7609596  39.4972305   1.2921244  63.9461670
  84.6979523  66.8232040  77.9950638  85.4739380  66.9822311  77.4576645
  84.0379028  67.4220047  77.6457672  69.8564911  43.9020424  20.0239506
  70.1922073  43.2293396  19.4314976  69.7264862  43.4457817  20.8553085
  27.0374393  28.4826889  82.2949982  27.3997192  29.0204849  81.5908966
  26.6378880  27.7377071  81.8460083  76.3356247   6.0263214  58.8529167
  76.2466888   5.2591634  58.2874184  77.0224838   6.5498247  58.4401207
  55.1065216  39.9228477  78.3353271  54.2894745  39.7362480  78.7977600
  55.4740677  40.6784325  78.7938385  25.7614975  18.9434147  71.9461899
  24.9419212  18.9730759  72.4397964  26.4110279  18.6362801  72.5786514
  11.9112101  60.3581276   9.2755909  12.4970675  60.8660812   8.7143555
  12.4363613  60.1569138  10.0501623   8.7429094  14.1660328   1.0646167
   8.4370432  13.5940475   1.7685421   9.6970854  14.1472988   1.1383089
  29.2651825   5.0994506  62.3621216  29.0598049   4.6700401  63.1925774
  28.9419918   4.4952765  61.6937256   2.9653955  25.3430099  86.4754868
   3.8666677  25.1022377  86.6898880   2.6025243  25.6699333  87.2986984
  18.2595215  46.6079674  74.2599564  17.6362610  47.3078842  74.0652847
  18.6804047  46.8818550  75.0748596   5.8435102  62.3162155  45.7022324
   6.5645971  61.6948624  45.8031616   6.1294475  62.9033470  45.0024109
   7.5453205  16.7352200  25.5192928   7.9218049  17.5651340  25.2264900
   7.8869433  16.0867825  24.9036179  84.2615814  52.6325302  63.9205284
  83.9846420  51.7725449  63.6043625  84.5930328  52.4678421  64.8032761
   4.6061249  30.2720299  42.0342941   4.0037818  30.7324734  41.4499931
   5.4149060  30.7824936  41.9951630  17.9748535  25.6232452  81.7279663
  18.2231026  26.0539436  80.9099808  17.4641171  26.2811813  82.1996613
  84.8063126   2.0722480  80.3313675  84.6844254   1.8937216  81.2638397
  85.5483246   1.5234640  80.0774231  75.5145187  37.1207008  18.7329597
  76.1593857  36.8443069  19.3841038  74.7774887  37.4469337  19.2492771
  25.3706207  69.4613342  48.9328308  24.4819374  69.2592010  48.6402359
  25.2682858  69.7194366  49.8488770   5.7992086   9.0025826  46.1133194
   6.6152959   8.8391972  46.5861168   5.1771755   9.2637691  46.7923508
  77.3440552  51.9430389  55.4019547  76.6402283  51.4657021  55.8412895
  78.1423874  51.6514816  55.8422890  68.1305466  56.0893784  70.7963333
  67.4201355  55.7150192  71.3172913  68.9236374  55.6829491  71.1456985
  12.8531876  49.9021683  51.7335358  13.2610779  50.7213440  52.0142708
  12.7218370  50.0105095  50.7915993  81.7096634  53.2731094  29.4986572
  81.3379135  52.7430305  28.7936382  82.5681229  53.5403671  29.1702480
   1.4650809   7.3999786  65.9684525   0.7964352   8.0488949  65.7492447
   2.2941222   7.8690205  65.8740005  34.5454788  34.7759285   5.9687619
  35.1705437  34.1478729   6.3308024  34.1114082  34.3005867   5.2603374
  16.8816643  67.9795990  61.2870979  16.2001572  68.6361923  61.4308472
  17.6737442  68.4896469  61.1177139  34.4064636  47.9460526  73.3610153
  34.9354782  48.6600838  73.0053024  35.0066528  47.2016258  73.4038239
  83.7182922  61.3456078  66.4920349  84.6418457  61.1120377  66.5854340
  83.3408356  60.6300774  65.9804001  81.2774887  15.5861788  -0.1021067
  80.6446686  16.2984486  -0.0102012  81.4566193  15.3075762   0.7959602
  63.6582031   4.4599910  74.0146713  62.9797173   4.2318468  73.3791885
  64.4768219   4.1904674  73.5981903  65.5711060  26.6886578  65.0311127
  64.7578354  26.2961998  64.7136078  66.2369995  26.0189095  64.8753967
  46.5633240   7.6028070  78.4698868  46.2471466   8.4277306  78.8383484
  45.9522591   7.4080658  77.7593155  85.6938705   6.3539019  73.0724258
  86.2325058   5.6522632  73.4382324  86.1470413   6.6096849  72.2690277
  61.0175018  16.3158283  67.0145874  61.1519737  16.6953945  67.8829651
  60.8489151  17.0684643  66.4477158  37.6437988  62.7227783  28.8086071
  38.4197159  62.1649094  28.7541409  37.1106796  62.3250313  29.4969482
  52.6821289  57.7424583  50.1304932  52.5697174  57.4139328  49.2384911
  53.5680695  57.4745331  50.3745384  79.3304596  63.4857445  74.6247101
  78.8250809  63.0806084  73.9199524  79.6463318  62.7485924  75.1472626
  42.0068016  44.0490570  42.9983940  42.6651039  44.2439461  43.6653900
  42.0721130  43.1032295  42.8665733  23.2414150   8.4915543  56.1317635
  23.0581017   7.7223496  56.6711655  22.5561047   8.4843302  55.4635353
  30.9898033   0.5011176   1.8937904  31.9059830   0.7376791   1.7492673
  30.8165607   0.7564932   2.7998819  17.2696228  15.9887323  21.9821796
  17.4434319  15.0480022  22.0145702  17.9315414  16.3744926  22.5560131
  39.8320274  57.2662239  55.5265121  39.9761467  57.2769165  56.4727402
  40.5254021  56.7015762  55.1849976  83.4401779  18.3237629  43.2559052
  83.2583313  18.6730690  42.3834648  82.6635513  17.8086014  43.4743004
  34.9438591  28.1643105  75.6116714  34.3809814  28.5153923  74.9216461
  34.3724518  27.5842190  76.1148834  47.2192802   3.4387197  52.9856415
  46.4033775   3.6486428  52.5312500  47.4958420   2.6038299  52.6078796
  52.8171272  27.7689838  26.5511742  53.4412842  28.4289799  26.2494068
  53.2213135  27.3980122  27.3355484   6.6446362  55.9501381  48.6434021
   6.0442739  56.2879028  49.3080177   7.2615891  56.6661263  48.4918823
   3.9728558  17.6516857  61.1007118   4.4457679  17.9191742  60.3126526
   4.6429329  17.6218071  61.7835999  11.0705652  50.6858177  23.0568256
  12.0144291  50.7743835  22.9245033  10.9241800  50.9936523  23.9512768
  17.4543056  46.1072693  53.9601135  17.5146465  46.0220451  54.9116020
  18.3246326  46.4003983  53.6902275  11.0870686   1.6759044  31.6364422
  11.4230280   1.0787357  30.9680481  11.7252493   2.3888111  31.6632805
  68.3430939  61.7883034  15.9076748  67.8667603  61.0311508  16.2483501
  67.9180984  61.9825897  15.0722923  39.7508545  39.0296898  58.1620216
  39.4485435  38.8801422  59.0578308  40.1776237  39.8859253  58.1930580
  27.8373909   1.5327953  32.4645958  27.3351593   1.2295632  33.2209320
  28.7504215   1.3737419  32.7039909  34.5476341  58.8247528  75.6486511
  35.5002823  58.8665504  75.5653305  34.3988228  58.3017426  76.4364014
  59.8923073  18.3175602  59.0888214  59.1037445  18.2643909  58.5488434
  60.1494904  19.2386189  59.0471191  11.6753368  21.3636379  74.9776306
  12.1863804  21.6356087  75.7399292  11.8862114  22.0107975  74.3046188
  44.8395271  61.0804558   2.4805408  45.2788429  60.4273491   3.0252256
  43.9145355  61.0046501   2.7147887  86.3317719  68.5232849  60.7103233
  86.1735458  69.2210464  61.3461876  86.6216736  68.9800568  59.9206734
  43.3011513  59.1028976  66.8790970  43.9242821  59.8289413  66.8507843
  42.4546738  59.5061111  66.6864090  56.5423355  25.8749485  35.6170349
  56.0901222  25.4414444  36.3407822  55.9698944  26.6044216  35.3795280
  82.5415573  18.2009735   6.5759716  81.9982147  17.5032139   6.2097092
  82.5209656  18.8927002   5.9146686  10.2269907  27.1436825  74.4138260
  10.6628952  26.5211220  73.8319016  10.0772963  27.9163570  73.8690414
  34.0528946  65.4773407  59.9866180  34.1666107  65.4560471  60.9368019
  33.1595993  65.1638718  59.8452187  22.1433868  48.5762024  69.3276062
  22.7810726  47.9316063  69.6343460  22.1886101  48.5223427  68.3729935
  28.0186405  49.6625824  84.0670242  28.5508118  49.3792992  84.8105164
  28.3125362  49.1144218  83.3394470  62.4135170  34.5502663  46.5626907
  63.2121964  35.0326729  46.3490944  62.5033875  34.3375282  47.4916115
  65.4246674  68.7040710  40.5778885  65.2955704  69.5009232  40.0635033
  64.9579773  68.8695526  41.3970642  80.6972046  49.6120453   1.5075941
  81.6017380  49.4401741   1.7693603  80.2165604  48.8301048   1.7792265
  21.4712963  60.7170830  47.4443893  22.4238720  60.7864113  47.5078354
  21.2683582  59.8585854  47.8159180  84.2451324  26.8179970  27.5017338
  84.3942261  26.2513008  28.2586060  84.2488403  26.2225666  26.7522793
  63.8993301  70.8254623   9.1343575  64.5744553  70.2211685   9.4430008
  64.0432129  70.8831635   8.1897936  73.8137894  57.5612068   8.7920208
  74.4449234  58.2808609   8.7948027  73.2297058  57.7577057   8.0595837
  17.7297459  57.7007141  22.9534092  17.4581776  57.9556198  22.0716476
  18.5463829  58.1780777  23.0999031   4.3297729  14.6748867  81.8752441
   4.2954216  14.9859762  82.7798309   3.4610565  14.3059635  81.7156830
   2.3669524  35.0811157  24.5087280   2.3196454  34.1561050  24.2671642
   3.1665127  35.1518898  25.0301933   7.0673184  57.0212402  74.7867661
   6.8213944  57.6073761  75.5024490   6.8175740  56.1498566  75.0942612
  64.0529099  21.4971066  60.2404099  63.4764977  21.1316719  60.9115601
  63.6778412  22.3556156  60.0441475  77.5621033  56.3631630  24.4551849
  77.0816040  56.7549858  23.7259254  78.1422119  57.0600891  24.7617798
  55.3069687  47.2866516   2.4037273  55.5705070  47.1360855   1.4959221
  54.3746452  47.4968719   2.3507495   1.1282848  59.1659660  88.2682419
   1.0211159  60.1171112  88.2766190   1.4712909  58.9559250  89.1368332
   2.2959146  13.4382229  26.4340401   3.2484694  13.3760443  26.5047894
   1.9682608  12.7166700  26.9709167  69.6744461  14.6342878  52.8510818
  69.4611359  15.5564032  52.9940376  69.5235138  14.2191057  53.7002449
  24.5306091  37.7046318  17.2471752  24.4941635  38.3324661  16.5255623
  25.4464226  37.4279099  17.2778683  27.0399857  35.9439468  67.0921936
  27.9703541  35.7971840  66.9215775  26.5902596  35.3298264  66.5118179
  18.7621651  13.9378395  18.3073559  18.1810951  14.2614031  17.6189556
  18.2828159  14.0979633  19.1202641  39.1120605  41.1611404  69.3546524
  39.2960701  41.9262810  69.8995667  38.1580734  41.1455956  69.2778931
  69.6128845  17.5530663  56.0692787  68.9216080  17.6349564  56.7262955
  70.1369629  16.8084888  56.3645439  58.6600800  59.5181770  31.3329201
  59.2556686  59.6162376  32.0758133  58.2927132  58.6401634  31.4347382
  12.5891619  39.6309090  17.1562138  12.9163256  38.7329025  17.2089748
  11.6747665  39.5693054  17.4324703  82.2336960  62.4278526  10.9244013
  82.9582748  63.0253181  10.7393351  82.2615509  62.3042336  11.8731775
  34.9157562  52.2949066  78.4967499  34.4856453  52.2697449  77.6419983
  35.4183159  51.4811974  78.5360336  42.2519073  61.4134979  49.8580360
  42.2343750  61.3744431  50.8142776  42.5807838  60.5556870  49.5892792
  42.9538612  70.9699173  63.8381615  43.6724815  70.4407043  63.4921112
  42.7192383  71.5553589  63.1181335  68.6691132  23.3335838  76.6835556
  69.5096970  23.6630821  77.0014801  68.8817139  22.8852310  75.8650055
  22.3855305  67.2155533  50.0966225  22.3999214  66.8691177  50.9888115
  22.2759876  68.1599045  50.2081184  23.3849335  36.0007019  32.3261757
  22.7931309  36.0714149  31.5771751  24.2614098  36.0344429  31.9429226
  35.7084656  12.3306265  88.6328125  36.6362877  12.2688961  88.4057236
  35.6982994  12.3743639  89.5889587  55.8628693  66.3294983  36.7802849
  54.9401703  66.5777130  36.8372726  56.1409569  66.2305374  37.6908379
   1.7594892   7.0758162  56.0322342   2.2417719   7.2642913  56.8372879
   1.2173500   6.3175297  56.2497635  61.2366943  67.3030090  60.9163513
  60.3219185  67.5707397  61.0042915  61.2071953  66.5319595  60.3499260
   7.7512417  26.8500748  61.0857658   8.4227953  26.2474117  60.7663193
   7.0306358  26.2825108  61.3593178  23.9019661   8.6444798  53.1244164
  24.2548847   8.6531906  54.0141373  23.5942097   9.5392847  52.9800529
  64.6717072  49.1285744  15.3712282  64.5245132  48.2948494  15.8178463
  63.8455086  49.3092690  14.9229231  39.1981430  27.8853626  58.8896790
  39.6652336  27.2047405  58.4051056  39.3549881  27.6745396  59.8101044
  79.2399445  16.4334183  18.8744183  79.9761887  16.2274551  19.4504070
  78.4657745  16.1691303  19.3714485  58.8866653  66.0237656  23.3936520
  58.3258820  66.7480087  23.1157627  58.7704201  65.3573608  22.7164326
  16.2513638  31.6122704   7.0479970  15.3499603  31.3846455   7.2757969
  16.7590866  30.8320827   7.2710552  86.0167465  56.2286110  50.4448853
  86.2210312  56.7439003  51.2252541  85.6525040  55.4117279  50.7858543
   1.1348008  70.3587646  76.9742584   2.0263550  70.0941925  76.7476196
   0.7784482  70.7198181  76.1625443  27.7140102  19.3322067  74.0083466
  28.4294243  19.8639355  74.3571701  27.7622967  18.5129166  74.5009537
  15.7990761  13.5992384  75.5592041  16.3062763  13.5487461  74.7490005
  15.1298866  14.2603226  75.3820496  51.7600632  69.4678040  27.0551891
  52.3759384  70.1998596  27.0872002  51.6237221  69.3101883  26.1209526
  52.3232384   0.5721688  59.0957413  52.0688667   1.2822652  59.6850548
  52.6898727  -0.0980184  59.6725082  66.8648300  22.6829739  67.5945206
  66.2943115  23.1063480  68.2359924  67.4887924  22.1838074  68.1215210
   3.9965315  69.1791229  12.3475676   4.1409802  68.9348984  11.4333897
   3.9650686  68.3450775  12.8161964  71.3582458   8.3291903  12.8710546
  72.0350876   8.9983940  12.7696171  71.5066299   7.9690676  13.7454271
  50.4395752  32.2713814   3.6744497  51.2932472  32.2478676   4.1067958
  50.6383629  32.4876213   2.7634304  34.2223434  22.1828156  89.0626068
  34.5574226  23.0413742  88.8040924  34.7955742  21.5582371  88.6181564
  19.0711517  66.2926407   2.8333514  19.2422256  66.5079041   1.9164957
  19.4649315  65.4285736   2.9540024  12.3139992  59.8853493  27.3430824
  11.7705412  59.1808891  27.6960964  13.2118826  59.6130562  27.5325432
  17.4179974  50.7833252  26.1943951  17.9775429  51.5337830  25.9945107
  17.9464226  50.2394066  26.7784767  15.2167559  63.6468544  28.2920971
  14.8031216  62.8164482  28.5278072  15.8912373  63.4066429  27.6567993
  33.8210526  25.1169472  73.1622086  34.5371094  24.8060017  73.7161102
  33.6944504  24.4185963  72.5199432  42.9373093   7.4579964  14.3811073
  42.8506355   6.6021056  13.9613810  42.1100540   7.9015570  14.1936607
  39.0862999   0.4875664  78.6571579  38.7097282   0.7441517  79.4989395
  39.4392433  -0.3889830  78.8098831  31.7937126  20.7327747  77.0068893
  31.9237270  21.2136536  77.8242569  32.4113464  21.1312561  76.3937225
  79.0831909  28.5254993  27.4346066  79.4414215  27.8752041  28.0387764
  79.2493057  29.3660431  27.8613644   0.8117884  46.3609085  72.4163132
   0.0923607  46.8026543  72.8674393   0.7917132  45.4651794  72.7532043
   9.1909399  16.3041325  56.3226433   8.9635744  16.7128963  55.4875069
   9.4058847  15.3993816  56.0958061  83.3055038  38.2740631  29.7968788
  83.4407349  37.4671974  29.2999744  82.6823807  38.0318794  30.4819298
  52.8512955  32.6068611  20.5191193  51.9842148  32.4351044  20.8864059
  53.2839050  31.7530003  20.5169201  12.9827271  54.7839432  24.3605385
  12.7596378  55.7088394  24.4655571  12.9768610  54.6421356  23.4139194
  33.4043121  35.0277481  61.4320602  32.8657227  34.4459763  60.8956833
  34.1582832  35.2333794  60.8793640  77.2883377  19.2639046  32.2918968
  77.4450760  18.4231663  32.7218094  78.1531525  19.6707535  32.2389679
   8.2621632  54.2226028  71.3733215   7.4472260  53.8567581  71.7172165
   8.5996227  54.7665405  72.0849991  72.1286621  28.0113792  14.5813408
  72.0148849  27.7141075  13.6786137  71.7131958  27.3313484  15.1116047
  31.3765774  65.9125214  22.8138809  31.5489292  65.7514801  23.7415619
  32.2438354  65.9340820  22.4093647  21.6254368  60.8207092  44.7693787
  21.8816833  60.7007484  45.6838074  20.7255974  61.1441193  44.8132515
  47.3772659  45.1619835  35.9003334  46.7127762  44.4784126  35.9864655
  47.9028625  44.8915787  35.1474304   3.2584069  38.6210365  67.9411545
   3.3407834  38.1039886  67.1398392   3.1777110  37.9705391  68.6387024
   2.5732358  26.1472626  42.9760017   2.9059675  25.2571182  42.8612633
   3.3565328  26.6974220  42.9774590  72.9212036  44.4935608  57.6181526
  72.1660385  45.0158348  57.3476334  72.8661804  44.4698601  58.5734749
  73.9916840  45.5791016  15.5326815  74.3671646  46.0378914  14.7811785
  73.3926773  44.9393044  15.1478682   8.7476816  47.1857147  55.0358124
   7.8622847  47.2094231  54.6728477   9.2238989  47.8589172  54.5497627
  66.9985428  24.4296494  65.0729294  67.6643600  24.0810127  64.4801636
  66.9393311  23.7812214  65.7745438  83.5776596  19.3597126  74.0616226
  83.1466064  18.6129990  73.6458740  83.9482956  19.0032730  74.8689728
   6.6458020   8.8946800   0.0961053   6.2800422   9.4824505   0.7571480
   6.5599260   9.3764162  -0.7265657  75.5408936   7.9185243  37.0118904
  75.9333801   7.3719029  37.6926155  75.4674683   8.7845793  37.4128761
  84.2920151  48.7530861  54.2506332  84.1921921  49.3633575  54.9812737
  83.4206619  48.3744125  54.1340981  76.6873245  15.4848099  34.8839951
  77.4218979  14.9332209  35.1530418  76.8879242  15.7265577  33.9798126
   2.0878928  49.9356842  49.0441284   1.3360991  49.5825882  48.5683517
   1.7315291  50.2015228  49.8918114  23.0626736  24.2499123   4.0419941
  23.2816849  24.8574963   3.3355191  22.9112968  24.8112850   4.8023739
  42.9979057  -0.0471596   6.1248031  43.1493759   0.8552132   5.8437123
  43.8649025  -0.3704174   6.3698654  76.2840576  51.4559669  70.2901764
  76.9600220  51.5422249  70.9623795  76.4728394  52.1593590  69.6690140
  63.9033852  16.8169365  53.4262772  64.3433838  16.3128986  54.1108055
  63.0221977  16.4454842  53.3842621  61.4813232  18.5466576  10.4972649
  61.3031960  19.1697235   9.7927866  62.1958847  18.9449310  10.9942694
  53.6973038  63.0175095  85.6071472  53.2170105  63.1453857  84.7891006
  53.0217361  62.8034096  86.2505798  10.8460999  48.6853294  45.2040482
  10.6775255  49.4305954  45.7805862  10.0191088  48.2036285  45.1872673
  51.1099777   7.6027856  70.5403748  51.0868378   8.4966269  70.8820496
  50.5333176   7.1086359  71.1230469  75.9434204  40.1826897  58.4885902
  74.9899597  40.1249809  58.4268684  76.1087112  40.4611435  59.3893547
  54.2640381  30.1647949  25.9798126  54.6854706  30.2747002  25.1274338
  54.9901657  30.1175919  26.6016998  39.2367516  60.0261688  63.0430183
  39.9303398  60.5655327  62.6632080  38.6384048  59.8579445  62.3150673
  62.4346161  27.7602692  22.3161564  63.2085037  27.8423405  22.8734627
  62.7743874  27.4418526  21.4798565  19.3466549  64.6504211  30.0411053
  18.7055302  64.4899902  30.7335281  19.9828148  65.2460480  30.4370403
  58.1575584  26.3952980  73.3099976  58.3231468  27.0886574  73.9487915
  57.5659676  26.7939434  72.6717606  80.2856674  28.8562889  51.6562576
  79.7188950  28.8785896  50.8852196  81.1112671  28.4927101  51.3362045
  38.8550987  67.4865341  61.8607597  39.7766190  67.2838974  62.0219040
  38.3960075  66.6635361  62.0284920  18.6707554  42.0593452  19.3069782
  18.8034019  42.1076126  18.3602428  18.3376713  41.1746597  19.4573650
  68.8825989  13.5924301  48.9296494  69.0284576  14.5119429  48.7072639
  68.1524887  13.3240166  48.3718567  22.9446316  22.4725685   7.3029151
  22.2496414  22.0356941   7.7952156  23.0924435  21.9075813   6.5445132
  51.7757034  27.8422146  73.1442261  52.2519684  27.4253635  73.8623047
  50.8596039  27.6117554  73.2987747   9.1256552  35.8748894   1.9490914
   8.9541130  35.1551170   1.3418580  10.0544147  35.7901993   2.1646500
  58.1256752  68.0140915  29.4552021  59.0594521  67.8075027  29.4953556
  57.7033539  67.1772766  29.2612591  84.2466583  41.3249016  20.2286491
  85.0450592  41.8475914  20.3034172  84.4568863  40.6587944  19.5741730
  20.4872417  23.5750675   4.6696272  20.8427830  23.8777714   5.5052052
  21.0598545  23.9663029   4.0098701  33.6801682   9.3428345  83.1111450
  33.7241364   9.7012119  82.2246552  32.7986755   9.5606146  83.4140778
  48.9754944  15.2817326  61.2541428  49.0854607  15.8825550  61.9911346
  48.2607803  15.6595907  60.7416649  32.6330948  12.4922314  27.7353039
  33.1138649  12.0987616  27.0071049  31.8241596  12.8175364  27.3402920
  58.8336792  11.6982098  87.4220734  58.9637451  12.4101572  86.7956161
  58.7646675  10.9120989  86.8803177  17.6512642  53.7649117  65.9377136
  17.1658840  53.5651665  66.7381744  18.3214550  54.3901367  66.2137070
   5.9311314  60.1349411  18.5314083   5.6073432  60.4394302  17.6836586
   6.2933912  59.2673225  18.3518543  79.7023087  24.0907898  53.6643257
  79.7029266  23.2116375  54.0429039  78.7945633  24.3843784  53.7420082
   8.7079954  28.9324284  21.0672474   8.0461559  28.8037586  21.7466927
   8.6863413  28.1237488  20.5555859  55.2981796  24.3427830   0.9588500
  54.4752693  24.1058826   1.3865548  55.3785019  23.7228260   0.2339817
  67.7649078  56.0771484  81.8486557  67.0643616  55.9212990  82.4820404
  67.3107834  56.3511925  81.0518494  34.3125916  49.3514328  28.8857975
  34.7519341  48.6417770  29.3544064  34.7706146  49.4041290  28.0469475
  64.5308838  12.1206923  22.7035255  65.0770569  11.8071184  23.4243603
  63.7278481  11.6039171  22.7691288  69.1458359  57.5296211  15.4124241
  68.8745880  57.5287399  14.4944611  69.6148987  56.7027702  15.5243654
  48.7149200  46.1677742  60.0178909  48.4765892  46.6267853  59.2124443
  49.6589394  46.0280304  59.9435539  69.6482391   6.8121657  40.3216782
  70.0249100   6.1545000  40.9063377  70.2696152   7.5397973  40.3477211
  13.7973833   2.1114812  62.3086815  13.3727894   1.9737114  63.1554260
  13.7945137   3.0614212  62.1910477   2.6248331  46.0705490  10.5540886
   3.1641035  45.8065948   9.8086033   2.5829701  47.0249100  10.4934282
  20.9181995  58.9898872  87.5878220  20.4545689  58.3668213  87.0282974
  21.3440971  59.5903358  86.9760208   0.9356135  29.2087402  26.5867100
   0.2562921  28.9762421  27.2197189   1.6122589  29.6396179  27.1089439
  21.2274952  70.3887634  33.4722023  21.4469051  70.8429718  34.2857018
  20.3061333  70.1494598  33.5724983  77.4922333  12.9104252  66.9181137
  76.6916428  13.4130936  66.7677231  77.2379303  12.0015430  66.7584457
  71.9154739  34.4381523  14.5852528  71.0026932  34.3259544  14.3197937
  71.8688736  34.9498672  15.3928490  67.2057495  45.4395103  60.5469398
  67.0274582  46.2598114  60.0869865  67.6945114  44.9120293  59.9151917
  85.0801620   2.9047101  87.9150391  85.0539703   3.0056379  88.8665390
  84.5486603   3.6281118  87.5827255  61.5470161  69.2171021  75.0151138
  61.3584480  68.6174469  75.7369766  61.2304077  68.7606201  74.2356110
  24.4051132  41.0052528  85.9671707  23.8300457  41.7698746  85.9969254
  25.2422314  41.3472252  85.6532898   2.8816249  21.7751198  64.6511917
   3.0415945  22.3841934  65.3720779   3.3088191  20.9632454  64.9243240
   2.4852908  14.9112654  59.2709122   2.5262117  15.5241890  60.0049973
   2.0328293  15.3950272  58.5799103  28.6182957   3.2245052  57.7113724
  27.9697838   3.7869685  57.2879333  28.4238281   3.2961948  58.6458626
  31.5371380  64.4386063  46.8007545  30.7995377  63.9129944  46.4910583
  31.1993141  64.8947220  47.5715103  47.1753769  40.7683716  55.8269844
  46.5740356  41.1220665  56.4823647  47.0391426  39.8216057  55.8631172
  17.1046925  25.2543888  15.5110521  17.3468571  24.7959499  14.7064276
  16.1495113  25.3072338  15.4783955  17.0266113  45.4472847  46.4885483
  17.7877083  44.8715820  46.4141655  17.3370571  46.1887932  47.0081825
  75.4508896  43.8156624  38.0033226  76.3826523  43.8721008  38.2151527
  75.0588150  43.3819122  38.7611923  81.4238663  48.7720184  34.6902122
  80.7450256  49.1927109  35.2178764  81.8178940  49.4879723  34.1918373
  14.2647610   3.5221987  85.1416779  13.4211426   3.9594684  85.2571564
  14.1694431   3.0292156  84.3267441  22.0526123  31.0975819  28.2907753
  22.5169144  31.8617668  27.9491959  21.1613102  31.4092903  28.4477825
  29.9819431  69.7419662  40.9891129  29.7535610  70.2956848  41.7357521
  29.8392467  70.2999649  40.2245865  41.8820572  71.3607788   3.2575810
  42.6504822  71.3174362   2.6884763  42.2423515  71.4189453   4.1424747
  80.0424728  71.0243454  51.1646805  79.6981201  71.4699554  50.3906746
  79.2808685  70.5915604  51.5505486  35.2884102   0.7288920  25.5763397
  36.0709381   1.2459755  25.7674122  34.7196312   1.3259040  25.0902328
  60.8918114  52.1499481  22.8094940  60.4697304  52.9375343  23.1527004
  60.6464462  52.1304550  21.8844814  55.3555641  63.1017189  25.8225861
  56.1335869  63.0778770  26.3796692  55.3149261  64.0042877  25.5064354
  43.5788727  43.6899109  29.0308609  43.4896660  43.2550392  29.8788948
  43.2243767  43.0620728  28.4012718  76.8644485  46.9686623  73.9783173
  77.3995209  46.3860092  74.5172424  77.4429855  47.7028923  73.7723160
  12.3871403  26.8916092  20.0640564  12.5746641  26.6302376  20.9655838
  12.2130051  27.8312664  20.1184006  13.0585642  37.5297470   3.8780918
  12.8162622  38.3435326   3.4361937  14.0127573  37.4954262   3.8104961
   2.4477088  51.3669014   0.5868182   1.7581801  51.0738106   1.1825353
   2.4132204  52.3224068   0.6321576  72.7346039  71.3800430  41.1973343
  73.2689819  71.8696213  40.5720482  73.3433533  70.7598877  41.5986671
  44.4474602  13.0107279  78.7128983  44.2339592  12.8323078  79.6287613
  45.1482124  12.3925352  78.5055008  30.4380608  55.9794502  65.3275299
  29.9967613  55.9422951  66.1761246  31.0890160  56.6742401  65.4263077
  79.6082840  42.6151657  46.0566216  79.1473541  41.8408394  45.7338257
  80.0281830  42.3238907  46.8659859   8.0479879  41.4883308  59.2941818
   8.2497787  40.6362267  59.6807404   8.8169346  41.6992302  58.7645836
  83.2506790  33.3245735  68.7454529  83.0462112  32.3927650  68.6669922
  82.7620544  33.6129189  69.5163803  35.8329849  40.9711609  20.4183846
  36.5944328  40.5809975  20.8475723  35.8076973  40.5593262  19.5546818
  58.0639038  41.7252388  40.2673874  57.3483238  41.3445663  40.7765694
  58.5402527  42.2700500  40.8938904  30.8929691  56.7324562  48.5488472
  30.7603703  56.5499382  49.4790802  31.5503902  56.0946388  48.2709579
   4.6137156  62.8818626  56.6286621   4.3709540  63.7541389  56.9391975
   5.2415886  62.5629692  57.2769775  15.8687305  64.6003418  18.5461578
  16.0022354  64.7219009  19.4861736  15.0319729  65.0287170  18.3657093
  77.3629913   3.3262184  87.5247116  77.3239441   3.0563982  88.4422607
  78.2834091   3.2221253  87.2834091  44.5928535  55.9579735  29.6261425
  45.4006271  55.5237198  29.9002934  44.7772827  56.2695885  28.7400742
  67.3377762  35.6659622  30.2852592  66.3992157  35.4876862  30.3448811
  67.5175095  35.6914024  29.3454304  70.3169479  20.1363850  83.1560669
  69.3918076  19.9628315  83.3299103  70.7205124  20.1746902  84.0231934
  33.8809776  31.5987740  88.5522537  32.9675331  31.7292480  88.2976379
  34.3640938  31.6115208  87.7260132  45.7836800  56.9680824  27.3127499
  45.6937485  57.0590897  26.3641396  45.3891373  57.7644501  27.6682358
  30.2692127  23.8245220  66.9197922  31.2117748  23.8230381  66.7530518
  30.0127583  24.7429924  66.8368835  46.6209755  66.1120071  46.8660927
  45.7578011  66.5002594  46.7231941  46.7259064  65.4898605  46.1462631
  53.0802002  45.1599579  83.4324722  53.8865318  45.5933495  83.7121658
  53.3716431  44.4825974  82.8221588  77.7677460  53.6717148  36.2259102
  78.4459152  53.9582481  35.6141739  78.2492599  53.4006729  37.0075226
  51.2498550  63.6746521  23.2386093  51.8309708  62.9282112  23.0924435
  51.6412086  64.1419449  23.9766579   4.4965506  47.9644165  72.8443298
   3.7721424  48.1652565  72.2517624   4.6413207  47.0244865  72.7356644
  46.1093292  16.7605801  67.5795746  45.4770660  16.2982712  68.1297989
  46.7684975  16.1003227  67.3655930  85.2673721  34.7792969   9.6346178
  84.6911850  34.2371635  10.1734381  86.1500473  34.4779854   9.8498611
  59.0506935  35.3738060  72.2703247  58.1935463  35.0100784  72.4922104
  59.4596100  34.7052269  71.7207565  62.5381126  11.9305992  20.1918087
  63.4837570  11.9871979  20.3288708  62.2856865  11.1035252  20.6022491
  75.3660583  49.7068024  15.9415979  75.3346939  48.9093132  16.4700451
  75.3815002  49.3942528  15.0369959  80.4348450  13.4778109   1.6900586
  80.2482605  14.3266172   2.0912387  81.3819504  13.3729992   1.7808446
   0.6650524  35.5545807  41.8583908   1.5646495  35.8743248  41.9270973
   0.5825661  34.9172211  42.5677567  76.4382553  40.9748878  41.1306572
  76.8395691  40.7558289  40.2897072  75.5776978  41.3256569  40.9012375
  43.6867065  22.3814888   8.7313232  44.3082542  21.7235126   8.4199028
  43.7812271  22.3684216   9.6837549  13.5756149  54.3532219   7.3594151
  14.4816198  54.3811378   7.6669984  13.3260231  53.4320564   7.4328518
  84.5570450  63.5624008  29.2306652  84.3602676  64.3166885  29.7861462
  83.7086105  63.3002739  28.8733368  80.4651337  20.5982800  44.3741646
  81.2969284  21.0463142  44.2204933  80.1124420  20.4409599  43.4983253
  80.9302597   7.5312905  58.4683380  81.4907990   6.7627726  58.5751572
  81.0478592   8.0279350  59.2781181  72.7434921  70.3652191  35.5898743
  73.2779922  69.6802216  35.9915123  72.6044083  71.0022583  36.2906380
  85.2199173  13.2549515  14.2620325  85.3824921  14.1942778  14.3484402
  85.9728012  12.8416958  14.6846628  55.9440689  41.6702957  61.1823959
  55.6875534  41.3006477  60.3375320  56.6107140  41.0689888  61.5144310
  84.6453247  58.7892990  85.5136948  85.1009979  59.6306229  85.4860535
  83.7174225  59.0207176  85.5546570   9.9504375  55.3744850  84.0696716
  10.5757904  56.0161057  84.4065552  10.3539076  54.5265274  84.2551727
   5.1923633  24.1427689  43.2104378   5.2397161  24.7279549  43.9664459
   5.2930670  24.7203484  42.4538040  29.5837688  34.3177986  60.9764557
  30.3870049  33.8903542  60.6792412  28.8917866  33.9224625  60.4462624
  74.8243103  23.6277275  20.4801140  73.9184647  23.8868637  20.6489849
  74.7603378  22.7278328  20.1602230  37.1281166  63.9996529  24.3853016
  37.2897453  64.4961243  23.5830383  37.3705101  63.1006012  24.1635342
  37.3469009  12.7316551  85.2620087  37.4810295  13.6678371  85.4096680
  38.1652527  12.4319544  84.8661423  86.2361755  28.1858883  64.8267212
  86.4776230  27.5046558  65.4543076  86.1604385  28.9812393  65.3538971
  17.3289661  22.4492512  74.1481628  16.8280258  21.8809109  73.5631180
  17.7313957  23.0953598  73.5678024  62.0968666  53.7846184  39.3079758
  62.3095207  54.3239059  38.5462837  62.9303246  53.3872337  39.5603027
  81.7138367  43.0541458  50.9010315  81.8905945  43.6987000  51.5862541
  81.8888779  42.2094498  51.3158607  69.0584793  66.3613739  71.9245300
  68.5081024  65.5852509  72.0291901  69.8118439  66.0544968  71.4200439
  40.3712578  68.8572845  45.4129486  40.1886368  68.0052795  45.8091431
  40.6513557  68.6515884  44.5210571   3.2385712  15.4165993  12.3763132
   2.5824072  15.6818762  13.0207577   2.7310967  15.0277405  11.6639299
   5.0414371  66.4930801  24.5201893   5.0492091  67.0011215  25.3313980
   5.9012632  66.0733795  24.4921837  81.6699982   9.7703304   8.4395065
  80.8568192   9.3250275   8.2014465  81.5171814  10.6869478   8.2099581
  76.4603424  52.0801125  16.4080982  75.9294968  52.5754967  17.0318203
  76.0310440  51.2263412  16.3532543   0.5046328  59.5699005  48.4003105
   0.6096259  59.7367859  47.4636383  -0.3970388  59.2611008  48.4889832
  54.1353493  36.4667435  75.3242722  55.0098457  36.1363564  75.5300217
  54.1206360  37.3505020  75.6916809  53.3162689  32.8246498  17.7558041
  53.0388298  32.6565628  18.6563625  54.2707481  32.8772736  17.8050995
  28.6138287  63.8527374  74.8796234  27.8636112  63.6087265  75.4217148
  28.7928219  64.7632980  75.1142883  69.5376053  30.0472622  11.5548306
  69.7514648  29.1164131  11.6182108  70.0059586  30.4509106  12.2855444
  79.2161026  14.0237322  36.0387421  80.1697388  14.1057091  36.0481339
  78.9326248  14.4310083  36.8572769  65.8189087   7.0638852  64.4717026
  66.3193130   7.0227690  65.2866516  66.3412933   6.5640507  63.8444023
  13.0021925  42.5059280  58.3434219  13.8977289  42.5068550  58.0054207
  12.9240456  41.6751442  58.8123779  40.5654106  52.3310852  66.3218002
  40.9089241  52.9095306  67.0027084  40.9557037  52.6574020  65.5109863
  57.8983879  14.8772593  23.8918705  57.8349190  13.9287825  23.7796421
  58.7650108  15.1011209  23.5526409  31.2939415  49.4801407  19.2666245
  30.6531658  49.2150764  18.6067924  32.1381950  49.4153633  18.8202267
  83.7067719  42.7795792  28.4724083  83.0565491  43.0624924  27.8294468
  83.7568207  41.8302460  28.3606415  77.7337036  15.7611599  58.3510056
  77.2773972  16.1847572  57.6239700  78.6281967  15.6381187  58.0332489
  55.2023849   0.8681412  10.3158102  55.8570976   0.1753832  10.2282467
  54.3725319   0.4019867  10.4171791  83.2845383   5.2734294  23.0889263
  83.5179825   5.8449216  23.8204517  82.3646164   5.0557075  23.2391891
  23.6819000  38.0912514  67.2706757  22.9692554  38.0856209  66.6316605
  23.4392986  38.7760010  67.8939667  72.6891022  70.6199570  77.8347092
  72.6318054  71.2214966  77.0923386  72.0343857  70.9414520  78.4545593
  84.7078018  33.2896042  76.7344055  85.3118362  33.6384621  77.3898926
  83.9029617  33.7926483  76.8585815  36.2205467   9.2666597  67.7698593
  35.4382591   9.1729393  68.3134384  36.1434898  10.1409826  67.3879547
  67.6652603  48.5870857  52.0193443  67.8194046  48.0180473  52.7734451
  68.5097046  49.0091591  51.8612099  28.7678509  55.3162231  56.3754921
  29.6176395  55.5113907  56.7704620  28.9784393  55.0092125  55.4936600
  -0.0667299  58.5687561  21.1480541   0.3898409  58.1375198  20.4256916
   0.3091744  58.1774712  21.9366131  54.4516640   2.9087493  15.4312334
  55.1580849   2.3464103  15.1134644  54.0135231   3.2147775  14.6371241
   0.1960889   5.6504626  29.8453255   0.8754663   5.9950500  29.2657242
   0.1681264   4.7135911  29.6511059  19.5600510  52.7740707  25.8272591
  19.9954014  52.9655228  24.9965687  19.2401352  53.6234360  26.1313419
  47.8873405   3.9385042  71.8245163  48.2529793   3.0660317  71.9705658
  47.2372093   4.0450573  72.5189285  52.8070030  10.7898674  38.0835800
  52.5944099   9.8677874  38.2278252  53.2197113  10.8082762  37.2201195
  50.3686256  52.8844986  86.2481308  50.1223755  53.2112617  87.1134720
  51.3226128  52.9597778  86.2262421  68.1479797  53.0030670  40.1196060
  68.8158569  52.7085724  40.7388306  67.8810959  52.2075996  39.6589127
  37.3510284  43.2081718  24.7561741  36.5566216  42.7117043  24.9528084
  37.3379631  43.3141136  23.8049450  86.3977280  44.7765388  36.1568222
  86.2793808  44.2487869  35.3670731  87.3467026  44.8638191  36.2465858
  61.1272163  24.3052464  62.6265678  60.9524307  23.4779568  63.0752029
  60.3063812  24.5139351  62.1805763  65.6505051   4.3127675   9.2065392
  64.7031937   4.4229226   9.1246567  65.9537659   5.1313710   9.5991592
  34.6619377   8.0770388  10.6615543  34.5080566   7.5310040   9.8905821
  35.6083679   8.0363712  10.7988214  64.4369812  19.6127300  80.9238892
  64.4318924  19.8421593  79.9946060  63.9625969  18.7825356  80.9682312
  78.7186508  68.1085281  85.1821518  78.0498810  68.1635208  84.4995499
  79.0238876  67.2020187  85.1459274  44.1570091  31.5761242  63.1145897
  44.9362297  31.4495182  62.5732765  44.4073448  32.2568169  63.7392654
  20.0296593  61.0762062  15.7106657  20.7601223  60.5824661  15.3380032
  20.3983974  61.9372444  15.9078436  85.2532043  37.8999901  72.3282852
  84.7684860  37.2031441  72.7706528  84.5775681  38.5064316  72.0250092
  66.1430740  15.7200212  43.5752602  66.0433731  16.0395241  44.4720383
  65.7855682  14.8323355  43.5961304  47.9581909  13.6237354  75.4909439
  47.1230736  14.0904369  75.4592438  48.5125542  14.0815620  74.8590393
  55.7900734  59.2921715  67.8868637  56.5604057  59.8578453  67.8336411
  55.8099632  58.9436569  68.7781372  53.2950478   1.7803557  80.0816193
  53.2538643   0.9858357  79.5493851  54.1247673   1.7097028  80.5536346
  27.1914368  10.0472822  57.9271164  27.2477207  10.7724724  58.5493431
  26.3656693  10.1916819  57.4650688  73.5602875  20.2556152  59.1434021
  74.2991638  19.9852734  58.5982285  72.7875977  19.9499588  58.6682663
  67.9987335   7.4434209  85.3774643  68.7953110   7.0443015  85.7273178
  68.0204620   8.3442488  85.7003708  40.0728569  39.2209435  67.5612946
  39.6972923  39.9503860  68.0543442  39.6832771  39.2949333  66.6901016
  52.3212929  17.9239883  67.9458389  51.5170937  18.2874832  68.3164825
  52.3541527  18.2738438  67.0554733  13.7412615  60.9366417  41.3286591
  14.2810831  61.6097679  41.7430573  14.1917601  60.1148491  41.5234451
  28.2644005   7.2839975  66.3712616  28.8010044   8.0229149  66.6581268
  28.0092373   6.8441930  67.1822510  84.4151993   4.4095769  17.3434086
  85.2532730   4.7632818  17.0454807  84.4830246   3.4678936  17.1857243
  70.2660675   9.8241491  18.6194992  69.7254715  10.4347668  19.1206284
  69.7621155   9.0104103  18.6098938  71.2109756  30.3513756  83.2970657
  71.4376678  30.3938618  82.3680649  70.8878479  29.4593811  83.4242020
  79.5828857  54.4151726  34.3919411  79.9560013  53.9269676  33.6580009
  78.9506760  55.0093918  33.9876518  39.8151474  64.5881119  54.9452896
  39.2399979  65.3420258  54.8147011  39.3168030  64.0025940  55.5154266
  51.9764900  14.9985981  27.2420044  51.0712242  14.8466578  26.9706268
  51.9357758  15.7893162  27.7799072  78.4802780  16.5331345  24.0447426
  78.6090469  15.6597595  23.6747875  77.8142090  16.9339943  23.4862728
  65.5538254  57.0344391  46.2933998  64.7244110  57.5040131  46.3817291
  66.1488419  57.4843674  46.8931923  32.2588081  10.0233459   4.0780940
  32.5187531  10.9118872   4.3213139  33.0141602   9.4817305   4.3068490
  45.4708939  57.9453506  74.1342697  46.1142006  57.5676155  74.7340240
  45.0728836  58.6611252  74.6297302  37.9730110  59.9775314  78.1780777
  37.0206985  60.0570335  78.2329636  38.2749748  60.8598480  77.9622803
  81.6643982   1.0288684  67.7881088  82.0237045   1.8319263  68.1652374
  81.7570038   0.3760753  68.4820175  33.5250435  18.8796024  12.0880289
  33.9030685  18.5690498  11.2652969  34.2469521  19.3270340  12.5294914
  78.0917969  48.8576736  61.7623596  78.1118622  48.0663376  61.2241974
  77.4186478  49.4051743  61.3581963  49.8494644  12.0796432   4.9728713
  49.6139641  11.7402763   5.8363523  49.3167381  12.8684883   4.8721023
   2.9442999  37.1267891  85.7490997   2.6661665  37.8292542  85.1613770
   2.3095996  36.4256439  85.6015167  57.3912010  15.2846870  15.8691435
  57.7652473  15.4200087  14.9985056  57.8183403  14.4915295  16.1926975
   5.6515775  65.9629440  61.1556435   4.8712668  65.5318832  61.5042534
   6.2325807  65.2434158  60.9087715  83.3602676  18.0096779  39.0405502
  83.9692688  17.7382050  38.3537750  83.2849121  18.9577999  38.9327660
  19.8603916   3.4366198  34.1104546  19.2747002   2.8716657  33.6064491
  19.9314651   3.0078874  34.9633141  63.7936897  10.3913088  74.0142822
  63.1433411  11.0035982  73.6702194  63.7216873  10.4747019  74.9651184
  14.0638237  50.9344368  75.2521210  14.7855988  51.3414345  75.7313156
  13.6905966  50.3056946  75.8698730  11.4038773   6.0761867  31.1049652
  11.3809509   6.6312809  31.8844376  12.0827160   6.4653730  30.5536537
  27.6840572  14.6686697  16.0997066  27.2353668  14.7827921  16.9374924
  28.5499363  15.0527334  16.2374744  72.7907028   8.7161932  63.8396416
  73.5654678   8.2180605  63.5791779  72.3580627   8.1633062  64.4903107
  56.9542847  61.8596039  19.1212101  56.1535187  62.3173065  19.3771687
  56.6497269  61.1196213  18.5959396  19.7326660   2.5562348  36.8019218
  20.2944660   1.9261523  37.2531509  19.0277538   2.7369022  37.4237671
  29.8069744  67.0846176  34.5242004  29.1325436  66.7361984  35.1072807
  29.7630234  66.5273514  33.7471809  54.4118996  22.5165939  66.5099106
  54.5664940  22.8150978  67.4061432  55.0626259  22.9840183  65.9861755
  55.3445702  25.6398754  47.3929634  54.8647270  25.3955765  48.1843567
  55.8813019  26.3863983  47.6591492  41.1631660  61.2326050  61.4518929
  41.7232666  61.4774170  62.1884995  41.7581253  60.8211937  60.8249969
  66.9113770  71.0024796  84.8616638  66.6009903  70.2693710  85.3931274
  66.7827988  70.7144699  83.9579163  12.2532549  38.1034966  72.7885742
  11.8591299  37.5802765  73.4865265  11.5180111  38.3428307  72.2243347
  52.0563660  49.5499268  59.0164070  52.4819679  50.1957397  58.4524765
  51.7298813  48.8828239  58.4125786   3.4367139  59.1718903  66.6766586
   3.2747247  58.3691483  66.1810760   3.2156687  59.8774147  66.0687027
  33.5098763  55.9786720  31.8782349  33.5435181  55.2310562  31.2814350
  34.0018578  56.6660156  31.4290771  20.1085205  46.4309006  16.2261276
  19.8845406  46.8737221  15.4076099  19.2635651  46.2224503  16.6246643
  28.2701092  70.3702393  43.2378082  28.2655258  70.5345154  44.1807938
  28.4244251  69.4288177  43.1594429   5.9521165  44.0130234  66.1466599
   5.8475466  43.0884094  65.9221878   6.4182124  44.3894882  65.4001541
  63.0998497   6.8534493  32.8516884  62.9017181   7.7452917  33.1373329
  62.2812958   6.5369215  32.4695740  79.1772614  34.0927238  21.2065182
  78.5486374  33.5953598  20.6833591  79.6191101  33.4329643  21.7410431
  64.0955276  65.4450912   8.4542007  63.1728172  65.4857712   8.7055721
  64.2536163  66.2668304   7.9894695  72.5302811  66.8092880  17.3811340
  72.3636475  67.7390671  17.5359898  72.6058960  66.7347031  16.4298458
  35.2093277  53.2974548  21.5719490  35.0840187  53.0356369  20.6598186
  36.1153908  53.0585403  21.7673969  18.7278061  69.2911453  51.1342010
  18.3124352  69.9227142  51.7214127  18.0132580  68.9691086  50.5847054
  82.0261536  16.7411156  81.2976761  81.9052429  16.3216763  82.1495438
  82.9748459  16.7578125  81.1714249  33.7344513   2.4816277  24.4616070
  33.3972054   2.0960691  23.6530037  33.7867928   3.4192457  24.2762299
  68.8821640  35.2540474  11.0819292  69.7934723  35.5122833  11.2200098
  68.8925247  34.2986641  11.1399794  33.1548958  24.6189823  66.1070480
  34.0128174  25.0193596  66.2481232  33.3132973  23.9369144  65.4544144
  43.2000198  57.0231209   1.8593054  43.8849792  56.7066727   1.2703007
  43.1380157  57.9599838   1.6730986  79.1072998  38.0536880  86.7774353
  78.8951416  37.4669571  86.0515060  78.6870499  38.8821182  86.5464935
   4.2613168  16.2176056   7.6488070   3.6004629  15.7596483   8.1682091
   3.8200235  17.0110092   7.3454871  77.1417465  20.7166576  22.2175465
  77.4078751  21.6319942  22.1305828  77.9275055  20.2673054  22.5288219
  46.9117126   3.5290785   0.5474990  46.4641113   2.7150819   0.3166441
  46.4078903   4.2129259   0.1061995   0.4142016  51.4893723   8.6338243
   0.1862787  50.9776535   9.4099865  -0.3983712  51.5350876   8.1299715
  51.8908005  37.9712753   3.2888348  51.5702705  37.6413879   2.4493911
  51.1300888  37.9305954   3.8683987  37.7355309  57.3723297  15.1082287
  38.6216774  57.4686813  15.4570713  37.1718254  57.7657814  15.7743101
  45.5464973  66.4715118  18.6940060  46.1880836  66.1498260  18.0606728
  45.8413811  66.1191330  19.5337105  24.5464687  34.6231728  62.8722916
  23.8983498  34.2694016  63.4814072  24.0923538  34.6532936  62.0302086
  26.4036732  58.7909927  62.9377060  27.3288822  58.9492798  62.7501793
  26.1969471  59.3954430  63.6505394  53.3727760  15.9843969  21.5231819
  52.4520073  15.9748545  21.7845726  53.7446213  16.7368259  21.9834137
   4.1197186  16.0493755  84.3036804   3.6520946  15.9961357  85.1371841
   4.6486506  16.8438663  84.3761215  48.3069649  34.5772171  13.3151598
  48.7129898  35.2145195  13.9027176  48.8578949  34.5880737  12.5324793
  75.4952469  50.0168037  38.7548447  75.9762573  50.8392372  38.6627922
  75.1841202  50.0213318  39.6600571  60.5079422  39.6407585  12.1578884
  60.8481483  38.7615700  11.9919920  60.0598946  39.5691109  13.0007124
  17.3695221  17.5330715  87.3533478  18.0967464  17.0943031  87.7947769
  17.1721249  16.9730759  86.6025696  27.5765228  55.5523567  71.9226990
  28.1520844  54.8420410  72.2062683  27.2452679  55.9316673  72.7367172
  15.0402641  51.1767311   8.3197575  15.2493505  50.2692642   8.0983667
  15.2670631  51.6734276   7.5335722  78.2771988  34.9509315  63.4444733
  78.0176773  35.0243721  64.3628845  78.1762543  35.8365135  63.0955048
  15.7773113  26.7850037   6.6689415  16.1989479  25.9265232   6.7072368
  15.7931633  27.0184402   5.7407775  62.2758293  59.5252953  52.5814476
  61.5811920  59.1697273  53.1357803  62.3102760  60.4548340  52.8072739
  57.8894005  11.7027531  34.8624992  58.4706497  12.1421452  35.4832382
  57.0564041  12.1671124  34.9444733  34.5580635   4.9078693  24.0946636
  34.9221916   5.4091806  23.3650551  35.3233032   4.5516238  24.5460262
  75.4389801  52.1777077  33.3121529  75.8510208  53.0167961  33.1062889
  74.5822220  52.4126320  33.6685333   0.4515330  23.5445328   6.9726567
   1.3717211  23.7850704   7.0804853   0.0798388  23.6193504   7.8515639
  29.8584480  40.7825165  28.7479897  29.4648991  41.2402878  29.4908199
  29.2796822  40.9793472  28.0114307   8.0236626   8.7988777  16.8274040
   8.0557718   8.6004648  15.8915443   7.3831120   9.5064087  16.9003944
  77.4105148  18.9016609  47.4804840  76.5208435  18.8145084  47.8227158
  77.3160324  19.4565544  46.7062759  77.3639297  23.8262978   2.8462288
  77.1842880  23.1319885   3.4801800  76.5002670  24.0905037   2.5292063
  18.2847843  44.1512337   8.4878864  19.2179699  44.3050041   8.6353645
  17.8589230  44.9525108   8.7925644  33.1214981   7.8235326  20.5163612
  34.0687866   7.7533345  20.6344624  32.7822838   7.9911766  21.3956013
  65.6515503  11.0919209  25.4671516  65.0497742  10.8230762  26.1612873
  66.3475189  10.4350271  25.4858131  49.1186142  52.4446754   4.6651096
  49.3178558  52.1878281   5.5654230  49.5037956  51.7524948   4.1277528
  82.4595337  14.8243027  86.6620026  82.7133560  13.9018574  86.6319427
  81.9623184  14.9095173  87.4754791  20.0566387  21.4854679  87.7004089
  19.1786022  21.1898022  87.4598618  20.6452656  20.9146614  87.2065125
  70.3054733  19.2077465   6.4662161  69.8647842  18.3878231   6.6892724
  69.7317810  19.6199970   5.8203411  27.2899189  63.0247917  12.0999947
  27.0091400  62.3513260  12.7195415  27.6250515  62.5347519  11.3491421
  70.0133209  27.2430115  86.5729218  69.8165817  27.2901382  85.6373444
  70.5847168  26.4799442  86.6593781  45.8607521  66.6796494  33.3248749
  46.1350021  65.7844391  33.1258430  46.5393028  67.2304306  32.9344292
  28.2934723  38.0545464  71.2093048  27.7986126  37.2897301  71.5032501
  27.8224983  38.3612556  70.4344864  45.8930588  18.7111416  88.1084213
  46.4541435  18.3470039  88.7931213  45.0844040  18.2021770  88.1655655
  16.8506908  23.6857891  87.5077438  17.1613827  23.5737114  86.6093292
  16.9590302  24.6204014  87.6837997  70.1077347  51.8561554  48.6522369
  70.3886490  51.0496292  49.0844879  69.7104416  51.5626183  47.8323441
  20.2661648   8.3182917  22.7804222  21.0209675   8.4361591  22.2036972
  20.6356888   8.3271341  23.6633739  64.8166275  60.7442818  37.4186172
  65.7386017  60.8440170  37.1814461  64.8196564  60.6901855  38.3742828
   8.3850107  68.3997803  69.0409088   7.6226358  68.0006943  69.4601288
   8.9882307  68.5794601  69.7620697  28.3310165   7.8867598  31.0351219
  29.2563610   8.1046762  31.1468315  27.8626060   8.6470423  31.3797855
   1.5649744  54.2236786  22.1248837   2.1959562  53.5048790  22.1626301
   2.0763831  55.0029869  22.3425274  21.0797482  31.9196320   7.6656709
  21.7819309  31.5972824   7.1006379  20.3236217  31.3773327   7.4411359
  74.6555786   5.8566790  35.3215523  74.3716507   6.2832375  34.5130577
  74.8142090   6.5782814  35.9301262  74.6084290  24.1250763  65.7082062
  75.4031296  23.6048279  65.8266602  74.7349777  24.8876076  66.2727966
  74.0406952  29.9779892  36.0604515  73.7942657  29.1679707  36.5069656
  74.0273056  30.6439991  36.7478256   3.4771760  51.1221581  27.1157494
   2.5956712  51.0878372  26.7442627   3.9038882  51.8437157  26.6536846
  55.9576530  38.4849129  63.4111481  56.7563782  38.5064011  63.9382248
  55.5563316  39.3428574  63.5493622  71.9480743  20.4666328  23.0434875
  72.8531876  20.7778912  23.0542641  72.0223465  19.5175552  22.9436550
  54.0370865   8.8224888  89.3822861  54.8209534   9.1876411  88.9718704
  53.3148499   9.1283522  88.8336029  70.5232468  47.5894737  14.2068281
  70.9613571  47.4450302  13.3681240  69.9618225  46.8223686  14.3190241
  24.8758068  59.6248589  52.9965172  24.8057346  58.8003654  53.4777031
  24.0101166  59.7495041  52.6075783  36.6707802  10.8670473  73.7491684
  36.8837280   9.9380703  73.8379745  37.4859734  11.2724514  73.4536362
  84.8423920  48.3525467   6.3160005  84.4089508  48.5965271   7.1338239
  84.5017090  47.4808655   6.1151562  14.4810085  10.6473150  15.9471035
  14.6660271  11.4662809  15.4874353  13.9350176  10.1492739  15.3387604
  28.0692139  18.2832928  56.2987404  27.5447140  18.5380898  55.5396538
  28.9638309  18.2255669  55.9632378  57.0946693  70.3169556  73.7115402
  57.6681633  70.9845734  74.0878754  56.8030472  70.6923904  72.8807373
  71.6755981  62.8475227  64.8793869  70.9384766  62.4074898  65.3027725
  71.3870163  63.7545586  64.7781677   9.0182257   6.5097599  25.7706032
   9.0628176   7.3814645  25.3776970   8.7904329   5.9306059  25.0433331
  31.8431988  54.1162186  71.8786469  32.3964691  53.9191513  71.1228104
  31.8948650  55.0674744  71.9717712  47.6480293  64.5056076  71.9563065
  47.1697845  64.3040466  71.1520157  48.5054512  64.8070297  71.6559753
  55.9634438  30.5485630  81.6424255  55.0758553  30.5983315  81.2875519
  56.5298424  30.7676964  80.9025574  80.3735046  44.1473999  58.7596397
  80.2671051  43.2551079  58.4298973  79.5440445  44.3420029  59.1959381
  76.2355194  10.8687649  69.1175232  75.4549866  10.6822853  68.5957642
  76.0500946  10.4811182  69.9728470  38.5972099  59.4743881   9.8241758
  38.0291939  59.3551025  10.5853310  39.0866661  58.6543198   9.7597170
  45.7575798  34.1038666  64.9000778  46.6149216  34.3781586  65.2256012
  45.2650299  33.8729057  65.6876602  72.4889603   0.8507634  75.8068466
  73.3725433   0.8993058  75.4419403  72.2177124   1.7640073  75.8997955
  22.5482483  11.8895559   1.8515745  21.9647522  12.5445242   2.2346952
  22.0500355  11.0731421   1.8900976   3.1100082  11.6329546  72.7053986
   3.7111082  10.9826231  72.3421097   2.6339462  11.9695396  71.9462509
  74.8886642  69.1985168  27.4898701  75.3994904  68.9812775  26.7100658
  74.3258820  69.9218674  27.2136917  32.0270844   3.4204929  71.9705200
  31.1413784   3.3539169  72.3273392  31.9567108   4.0747786  71.2753983
  10.5538454  30.1082020  73.3032455  10.1014776  30.0529518  72.4615021
  11.2867441  30.7026119  73.1427231  53.2018700  30.3829098  16.4018993
  53.4551353  30.5007534  15.4863663  53.3547630  31.2376957  16.8046322
  58.8469238  21.3616085  84.9594879  57.9136772  21.5657539  84.8993912
  59.1504822  21.3590527  84.0517044  54.5953751  10.7302208   7.6083946
  54.1522141  11.4976301   7.9702253  55.2051964  11.0878935   6.9630885
  66.7718811  51.5944557   8.9724760  66.8859863  52.4425926   8.5436678
  65.8621216  51.5969925   9.2700567   7.9785089  35.1675301  42.7597198
   7.1240201  34.8951225  42.4252434   7.9929051  34.8537521  43.6639175
  30.3355007  40.6314468  17.8522739  30.9047928  40.4902878  18.6087189
  29.9746304  39.7661324  17.6593056  32.0356560  64.5573730  34.5533485
  32.3286171  64.8468399  33.6892776  32.1866951  65.3118973  35.1226501
  69.5514908  14.5445805  41.3607330  69.8357620  13.9613800  42.0645103
  69.3111038  15.3573284  41.8055763  10.4672174  22.6559639  84.1331482
   9.7782402  23.3165836  84.2047272  10.1811829  21.9480591  84.7104568
  38.2419739  52.1626663  17.1207485  37.7318268  52.6832008  16.5002441
  38.2344360  52.6770668  17.9279461  34.1900368   8.2083435  85.3790207
  33.3069191   7.9955087  85.6807404  34.0626793   8.5715208  84.5025940
  79.6452408  55.9452705  30.9676361  79.4699707  56.6207466  31.6228027
  80.5983200  55.8566284  30.9640636  63.2288895  19.7035923  23.1446209
  62.7583466  19.5850163  22.3195400  63.7966118  18.9356308  23.2090816
  70.8787842  39.1502876  57.0519829  70.4639053  38.8237762  57.8504181
  71.3297806  39.9489479  57.3257942  29.8529320  39.8208199   8.6778402
  30.3986607  39.0367432   8.7381334  30.0533695  40.3139000   9.4734087
  50.1580315  23.1451263  81.0341721  49.7105904  23.7055092  80.4001389
  50.3876686  23.7333164  81.7535706  10.2977180  34.0506287  77.0854950
  10.1076412  34.9547043  77.3359909  11.1960583  34.0771828  76.7560883
  23.5945282  11.6047220  73.3457336  23.1275043  10.7974434  73.1302795
  24.2913685  11.6601019  72.6918411  59.0618515  49.5543823   7.2855492
  58.3629913  50.2011642   7.1881151  59.3710289  49.3995323   6.3929892
  78.8351440  32.4169312  64.9089432  78.5161896  33.2545624  64.5729828
  78.2669754  32.2262268  65.6552963  35.2911911   7.5753369   2.1235526
  34.4176788   7.7316160   1.7646841  35.2285614   7.8552918   3.0367527
  69.6853333  17.3264751   2.2135253  70.5540390  17.1132336   2.5542898
  69.3881760  16.5194378   1.7932656  60.3202515  62.0031738  51.5769157
  60.8976746  61.9470901  52.3382759  60.8604736  62.4033737  50.8955688
  28.2504520  32.4842110   8.5581398  28.0500641  33.0327568   7.7997379
  27.5812473  32.7133942   9.2030201  62.8431892  46.4147797  65.7842789
  63.3325081  46.9274940  66.4276505  63.4295197  45.6930733  65.5571442
  26.7264805  46.3128700  83.3385468  26.2890091  45.5962410  82.8788757
  26.0382919  46.9633713  83.4781189  48.4254723  64.7297974  18.1252918
  47.8425865  64.4583969  18.8343868  49.0626144  64.0190582  18.0536880
   4.3169498  34.4295540  38.3207092   3.7630267  35.2095032  38.3535728
   4.9283810  34.6000404  37.6042442  52.6694641  53.3730049  35.1683083
  52.0585861  52.6438370  35.0616570  52.6437645  53.8317642  34.3285980
   3.0741105  31.5341835  36.4578400   3.8548505  31.8708267  36.0181274
   3.3415048  30.6816902  36.8013344  46.8025169  29.9199333  57.8689194
  45.9102707  29.5766010  57.8214874  47.1238136  29.6345348  58.7242241
   8.8592463  50.6344376  43.4529877   7.9317303  50.8468399  43.3489189
   8.8632078  49.8137054  43.9455452  36.5918465  59.2710190  32.2789230
  37.2285309  59.5968056  32.9151039  37.0875282  58.6573868  31.7367210
  44.0294533  39.9007950  28.3592453  44.8248367  39.4096985  28.5652142
  43.5552216  39.9477234  29.1893845   9.0928593   2.6717973  28.4981289
   8.7108517   2.4054527  27.6618500   8.6755018   2.1021812  29.1443348
  20.6619339  45.9945145  49.1320381  20.4192123  45.7206802  50.0165329
  19.8324776  46.2365685  48.7201614  40.8302841  63.9541168  18.9213352
  41.5902710  63.6326180  18.4362698  40.7187729  63.3263931  19.6353111
  20.4790516  14.8060102  58.5404968  19.6687107  14.9403400  58.0490341
  20.7624931  15.6881504  58.7807465  66.4587631  41.9702644  48.5393639
  66.3292618  42.8655701  48.8522377  66.6934128  41.4740868  49.3235703
  52.5634193  67.5096207  47.6407738  53.0825043  67.0397720  46.9880714
  52.6248436  66.9702530  48.4291458  68.4995270  20.8105373  68.6047211
  69.1099701  20.9757271  67.8861771  68.0010376  20.0431633  68.3238678
  85.2897186  56.5709648  18.8535995  85.8821411  57.3186035  18.7742367
  84.7861252  56.7477112  19.6481991  61.5293579  30.1630955  82.3419800
  61.6635551  30.8645515  82.9793091  61.5891914  29.3578205  82.8559723
   5.5671306  18.6495552  83.9603500   5.4140730  18.8109818  83.0293579
   6.5180259  18.5707130  84.0365982  36.3043404  11.7095757  66.7641296
  36.3414879  12.4665432  66.1794434  35.6822701  11.9637461  67.4457855
   0.7948338  42.8920403  12.2137156   1.1172154  42.5232124  11.3913603
  -0.1112086  43.1379395  12.0270271  20.5431366  11.9862719  85.8265915
  20.6913376  11.8879366  84.8860550  20.7352962  11.1222458  86.1909561
  24.8771801  32.5560913   3.4495049  24.3131332  32.9255638   2.7701116
  25.5154934  32.0281181   2.9698882  78.3282547  56.6213112  42.0163498
  78.0842667  57.1577568  41.2620773  78.7732773  55.8633575  41.6372833
  79.3290710  25.0556087  87.3983002  80.1769562  25.3307457  87.7470474
  79.5305862  24.2986259  86.8482056  68.7529526  40.1800728  74.6030121
  68.2124023  40.7951355  75.0987244  68.1669235  39.4484673  74.4092255
  23.6974277   8.8636971  33.4151268  24.4399681   9.4432640  33.5853233
  22.9512939   9.3048096  33.8212547  52.4332199   3.6778800  53.2515526
  52.7703857   2.8219659  53.5160561  52.3537254   4.1674209  54.0702477
   3.1590068  30.4380455  47.5475502   3.7564180  31.1213722  47.8515167
   3.7058673  29.6555614  47.4775810  18.2855396  35.8991699  49.6861191
  19.0837173  36.1728096  50.1380768  17.8675194  35.2845535  50.2892265
  17.2981625  48.4170799  59.1976509  16.5191936  48.6705589  59.6928177
  17.9848309  48.3310089  59.8589439   9.4042406  35.4818954  85.6152344
   8.7881613  34.7498589  85.6434937  10.0990591  35.1875916  85.0263062
   0.4965910   5.5589657  46.4420280   1.3877915   5.2897673  46.2194862
   0.3122179   5.1156611  47.2701111  83.5266266  50.2191505  79.5531998
  83.2177429  49.7002373  80.2958679  83.1461411  51.0864067  79.6922226
  76.0250473  39.0883446  43.1642494  76.6942749  38.5402298  42.7544479
  76.0742340  39.9196014  42.6922112  68.7300415  38.8861008  83.2095108
  68.3506851  38.0171852  83.3410797  69.1310425  38.8434334  82.3414078
  18.6168118  64.2543869   5.8594766  18.3475056  65.0627518   6.2956629
  19.1849213  64.5450211   5.1460228  56.4555855  31.4295959  21.5270481
  56.1009026  30.8809586  20.8274574  55.8233528  32.1427574  21.6160088
  66.7625198  47.3951454  20.3577690  67.0865479  47.0386887  19.5306206
  67.5440216  47.4821815  20.9035778  53.6652374  26.2275829  51.5282593
  53.6922226  27.1813889  51.4523888  54.5847359  25.9641132  51.5648193
  32.7614937   1.4184830  47.5607758  32.4798965   0.5616923  47.2400818
  33.3394470   1.7528292  46.8749046  71.3573227  52.4421387  44.5534439
  71.2282181  53.2958336  44.9666901  71.0484467  51.8118439  45.2042542
  33.4986229  24.1872940  85.8584900  32.9416618  24.4532318  86.5901337
  34.2125626  24.8248806  85.8568726  72.7146912  24.8109684  61.1611290
  73.0648804  24.4599438  61.9798965  73.3303070  25.5008755  60.9135971
  68.9809952  24.5746994  21.0578175  68.7018051  24.4171925  21.9597454
  69.2689285  23.7177944  20.7431126  12.6874380  12.8110704  65.9726486
  13.4774113  12.6872616  65.4464874  12.7013073  13.7379942  66.2110825
  31.7166653  42.9619026  75.1690674  32.6195259  42.6992416  75.3481903
  31.3337879  43.1085129  76.0340195  11.5006199  21.3878384   6.6120925
  10.7013741  21.8528595   6.8594618  11.6132898  21.5833130   5.6818633
  61.2776375   5.9610639  17.2227840  61.2703896   5.5434251  16.3615303
  61.4725838   6.8804984  17.0414848  80.9454498  69.7926941  47.0125313
  81.2614365  69.3917770  46.2028084  81.6665497  69.6815109  47.6321182
  39.7608070  49.1682816  45.9568443  38.8560600  48.8641663  45.8848495
  39.9814110  49.0472183  46.8803749  29.8677540  56.6320610  85.2359390
  30.0836372  55.9021683  84.6555252  30.0812893  57.4140816  84.7269440
   8.0996170  44.2666702  59.5888710   8.3326569  44.4268570  58.6743965
   7.9872913  43.3177223  59.6447182  51.7130089   2.7812219  60.6838303
  50.8931732   2.9948888  60.2383575  51.9545555   3.5870638  61.1404533
  80.6597214   7.5887394  23.4269390  80.6550140   8.3977003  22.9152813
  80.0680161   7.7645974  24.1585045  16.4824505  54.9749794  42.9802475
  15.8379650  55.0615005  42.2778358  17.3008003  55.2872887  42.5942459
  55.2274246  28.2015133  35.2703552  54.5144806  27.7410145  35.7129440
  54.7926445  28.8934059  34.7718773  12.5120955  69.1100769  78.2073822
  12.2491779  68.3252106  78.6881027  13.2952137  69.4189072  78.6629944
  56.8095856  32.6502457   4.4619603  56.1728477  33.0509872   3.8701825
  57.6579056  32.8231468   4.0536828  59.9608879  20.1303635  75.8939056
  59.6548462  19.6787682  75.1073685  59.1594925  20.3768826  76.3556671
  29.2088547  66.4750290  85.0850754  28.3865185  66.1998062  85.4903488
  29.1090221  66.2457581  84.1611176  12.9303255  45.2973518   9.7563944
  12.7464771  44.5295143   9.2152348  13.6290102  45.7568817   9.2906637
  76.8564529  20.6666107  10.8235226  76.8601761  21.2878799  11.5517006
  75.9855881  20.7563934  10.4365292  74.4827499   4.2605972  71.4637299
  75.1747665   3.6010032  71.5114212  74.2463150   4.4261003  72.3763885
  50.3452415   8.3219719  60.3077393  49.6952744   8.5344105  60.9775467
  50.8643799   9.1208973  60.2158318  73.1449814   9.8892746  18.8227577
  73.5357971  10.7585239  18.9116592  72.2068710  10.0565586  18.7322712
  43.8063736  70.7330475  69.5182800  43.6960754  69.7867508  69.4256287
  43.7929192  71.0647888  68.6205063  21.3865013   5.6522665  13.2604551
  21.4332771   5.1429563  12.4513531  20.4691715   5.5938725  13.5275307
  63.7273407  53.3139992  26.3386097  63.9106941  53.9411163  27.0381355
  63.5120964  53.8571281  25.5803795  42.4364395  43.8054237  56.5523262
  42.6646080  43.7639771  57.4810104  42.7082481  42.9575958  56.2008400
  50.0083694  68.4664383  55.3912010  50.4686012  67.6800232  55.6843910
  49.2503967  68.1348877  54.9097557  69.3170013  56.9904747  64.2487640
  69.7524033  57.2185936  65.0701141  68.6081238  56.4021721  64.5088120
   3.1892214   5.5438619  85.0032272   3.8322616   4.8522062  85.1592560
   3.5021293   6.2836742  85.5238037  14.4124174  64.0930176  50.6158485
  15.0812883  63.9296761  51.2807999  14.4396830  63.3189049  50.0534935
  73.3876648  18.4124355  10.8769665  72.4329758  18.4085693  10.8077965
  73.6544037  19.2337360  10.4639931  83.6454468  25.3210011   3.5890374
  83.1935654  24.7387581   4.1997933  84.4863968  25.5023403   4.0087395
  52.3804741  10.9503040  14.5453110  51.5632477  10.9704542  14.0473518
  52.2661209  11.6191444  15.2204475  86.9958191  71.4571457  73.0077591
  86.7636871  70.5286102  73.0210953  86.1555557  71.9134750  72.9634933
  66.1895981   3.1320782  56.9832878  67.1030884   2.8588450  56.8989868
  65.8001938   2.9318686  56.1321030  86.1100464  49.9504890  17.4353466
  85.8547058  50.4669533  18.1997414  86.3959885  49.1118736  17.7975502
  83.1042480  21.0348873  25.7666225  83.5338516  21.1932487  26.6072159
  82.8610001  20.1094761  25.7925472  79.9184570  32.9675598  82.6951675
  79.1930695  32.3990135  82.9536133  79.9798660  33.6126823  83.3996429
  70.6992569  67.5602112   8.2661953  70.5083694  66.6584625   8.0080395
  71.0832672  67.9570007   7.4843192  13.3454695  53.0034790  61.4505081
  13.2852573  53.8989487  61.7832870  12.6206818  52.5419655  61.8723145
  30.5914497  68.7271042  47.3522530  30.2216034  68.4020157  46.5314217
  29.8302097  68.9816971  47.8737183  16.4317970  70.2217789  40.7075920
  16.5278816  69.3938446  41.1782532  16.0088749  70.8068924  41.3360901
  76.3350754  58.1957970  15.3108063  75.4828568  57.8189545  15.5297909
  76.2176895  58.5597038  14.4332952  29.3371391  59.4424019  71.6291046
  28.4925060  59.7366562  71.2881546  29.1480656  59.1558533  72.5226212
   6.9815683  14.7877293  57.6957245   7.1703835  15.3491116  58.4476776
   6.1453238  14.3740244  57.9096794  71.8112183  16.7573967  37.3544388
  71.7402725  15.9991236  37.9342842  72.5581589  16.5581989  36.7899551
   5.3923893  65.4278030  64.6415863   4.6046987  65.4446564  64.0979919
   6.0253630  64.9234619  64.1304855  38.3017960  33.2637482  87.2917557
  38.2125549  34.1460648  87.6520081  38.8584061  32.8036690  87.9200439
  20.2903671  52.0863342  56.8276215  20.2877617  52.1917191  57.7789993
  20.7113857  51.2391815  56.6816368  70.7535172  44.8939400  70.2796021
  71.5820312  44.9905052  70.7491455  70.2046432  45.6032867  70.6139526
  71.7227249  18.3538265  81.3483582  71.0597763  18.5241394  80.6792374
  71.4911423  18.9391956  82.0694275  26.0240784  20.6732731  75.7795486
  25.5237331  21.4892807  75.7838669  26.5566883  20.7230968  74.9857712
  20.3193836  46.1953316   2.0052178  20.7578506  47.0455704   1.9724450
  19.6000900  46.3204880   2.6242378  66.5836563  13.3213224  88.6337357
  66.1548004  13.1089697  87.8047485  66.6986008  12.4757833  89.0674210
   3.8704712  60.8222618  20.2542667   4.5199304  60.5689545  19.5983181
   3.6596975  61.7319374  20.0437984  56.7164001  44.0955734  11.4650316
  57.0875130  44.9067802  11.8120890  56.2691002  43.6979828  12.2120762
  18.7898006  49.1384773  35.3713379  17.9456348  49.2112198  34.9260063
  18.9594536  48.1972580  35.4108086  51.5337944  17.2603512  63.1667709
  51.6372147  17.7099171  64.0054779  50.6011009  17.3388023  62.9663773
  37.1906281  29.5108147  76.3970566  36.5923500  30.2536869  76.4772873
  36.6529198  28.8087158  76.0307770  10.3816967   9.7570877  70.8317947
   9.5873585   9.6607895  70.3064499  10.0685406   9.7896271  71.7357330
  27.8279514   6.2906032  18.9628410  28.5262833   5.7992225  19.3954029
  27.3748436   6.7408037  19.6757545  10.5219316  68.0131912  66.9285583
   9.9282818  68.2660828  67.6355591  11.3012905  67.6841354  67.3763885
  62.7691116  70.8723831  22.4433460  63.1337585  70.2891388  21.7776890
  62.6152306  70.3061371  23.1995983  79.2447586  13.3809395  88.0713730
  78.8610611  14.2536020  88.1577911  79.6703873  13.2219419  88.9138641
  78.8425598   1.8263817   7.5809479  78.0002747   1.4493115   7.3267660
  79.4131546   1.6665605   6.8292098  53.5878677  57.9267502  28.7231350
  54.2280235  58.5140648  29.1249981  53.1427994  57.5147820  29.4636974
  72.3270187  31.0405865  41.1521606  71.7539825  30.2835274  41.0308533
  71.7627411  31.7079887  41.5425339  42.7077026  53.9706917  53.1030769
  42.4036827  53.1055984  53.3777008  43.4405365  53.7911797  52.5140457
  21.8080730  70.7891388  70.2711945  22.4160118  70.4349976  69.6221771
  21.0037231  70.2856369  70.1457443  44.8671074  39.5177803  61.5446701
  45.0045929  39.3894501  62.4832115  45.7119980  39.8282356  61.2190819
  58.7216454  11.4320927  14.9711800  58.4404869  10.5260305  14.8437748
  58.0935173  11.9507236  14.4684792  37.6056824  35.2537956  69.6283340
  37.2678337  36.1205750  69.8536911  37.6793633  34.7997704  70.4677734
  56.3380432   1.4008052  59.2711678  56.1506348   1.1239614  60.1680870
  56.2989082   2.3566940  59.3024254  24.5593472  27.3216248  69.1000214
  23.6025219  27.3425694  69.1166992  24.7774525  26.3919411  69.0340729
  17.5027180  47.6556206  29.1157188  17.4076176  46.8972092  28.5395241
  18.3969669  47.9612885  28.9636765  75.7863922  38.1551094  73.0967941
  76.6118927  37.7248917  72.8738937  75.2984772  37.4959984  73.5904922
   2.7082765  12.5535336  64.9738770   2.4967782  13.0493975  64.1829224
   2.1618598  12.9450874  65.6553116  25.5146275  66.2649689  75.5354233
  26.1408424  66.2213821  76.2580490  25.6626949  67.1247864  75.1417084
  37.3468819   5.7438293  10.7340698  37.0731277   5.9176168  11.6346750
  37.3902359   4.7893238  10.6768742  51.7540398  36.9100227  87.7889633
  51.7155266  37.7340355  88.2745056  52.6223488  36.5575104  87.9839172
  60.3555756  50.2768974  45.3871040  61.0575142  50.4965973  44.7745323
  59.7133636  50.9780846  45.2769432  50.4115524  70.7905960  43.2131767
  50.1072426  71.5237503  43.7480698  49.6102982  70.3401031  42.9461861
  78.3753510  33.6737061  31.9444313  77.7264786  33.3944817  32.5903664
  78.8477020  34.3876762  32.3726387  35.9546051  30.6773624  73.5204849
  35.1226158  30.2041016  73.5134354  36.1003227  30.8919029  74.4418793
   4.6352339  68.8453064  45.5794258   4.5111523  68.0890732  45.0058937
   3.7628191  69.0263290  45.9292221  26.7046261  43.6376419  55.8495636
  25.9700241  43.2963295  55.3395653  27.2893238  44.0245934  55.1979256
  21.7003727  66.2243652  69.5703964  22.3620491  66.5144653  68.9424973
  20.9160652  66.7218475  69.3388672  69.5621338  51.3816147  73.1288605
  70.4600906  51.5932274  72.8736725  69.4426117  51.8208389  73.9709015
  63.9952621  39.9842873  54.3493385  63.6725578  39.1231880  54.0836296
  64.1203995  40.4574623  53.5267334  15.2652607  64.9229965   5.2443914
  15.2846451  65.3205643   4.3738766  15.7067890  64.0810471   5.1330609
  28.0838966   2.3622320  29.4161587  28.0368462   2.0573030  30.3222694
  27.5857658   3.1795959  29.4123402  53.0613594  59.4447632  88.1463318
  53.6275520  60.0496788  88.6256332  53.5615273  58.6296349  88.1059189
  34.6583672  45.4923668  59.7665901  35.4382553  45.0536842  60.1065407
  33.9514389  44.8607140  59.8988762  47.2360611  59.9302788  46.3859444
  47.6671410  60.5160370  47.0082664  46.3297958  60.2369614  46.3566475
  41.0052032  46.1003418  36.7181282  41.3378639  46.3585892  35.8585510
  41.5186653  46.6173172  37.3388748   1.6908782  31.2516041  74.7927933
   2.0317764  31.2440052  73.8983841   2.0263293  32.0648499  75.1700592
  56.5779991  47.2290878  69.6819916  57.5312386  47.2836227  69.6142273
  56.3405647  47.9299164  70.2891922  56.8940659  37.6340599  79.0621033
  56.2777596  38.2970276  78.7508545  56.7054443  37.5517807  79.9969177
  57.7030983  39.6509285  54.6565170  58.5074196  39.1700211  54.4615135
  57.8402405  40.5147324  54.2675858  39.8401680  19.3484898  65.5986023
  39.1357536  19.9964447  65.6123199  40.4436760  19.6649933  64.9264145
  70.9413605  45.0666924  85.5123062  71.3956375  44.3895264  86.0136108
  70.0124283  44.9016151  85.6737747  15.9354258  57.5482903  49.9948196
  15.1973553  58.0769844  50.2980804  16.6958084  58.1219864  50.0892830
  60.9532700   1.5215493  72.0799484  61.3716240   1.0069535  72.7701721
  61.5295258   2.2766089  71.9614487  20.1261559  54.6359673   1.7021176
  20.2454929  55.3218880   2.3590083  21.0154400  54.3992271   1.4387559
  84.9758987  54.3076553  26.3783379  84.8618088  53.3635788  26.2690792
  85.7694092  54.5118752  25.8834991   3.4773936  43.1619759  33.4547615
   2.5518682  43.3154106  33.2647820   3.9290268  43.3838539  32.6404953
  61.2216759  69.1759567  63.7096405  61.1163826  69.8908539  63.0818939
  62.0189857  68.7265625  63.4293365   9.3392353  38.2822342  62.4836540
   9.7248135  38.0457726  61.6400604   9.6700153  37.6212692  63.0918808
  53.6400795   5.5774765  18.7940121  54.4380226   6.0683718  18.9903259
  53.7762909   4.7242832  19.2060070  32.4287338  14.3925419   7.1069741
  33.0536385  14.7677937   7.7273855  31.6194439  14.8811684   7.2570534
  52.9025230   9.9535799   5.3078260  53.3917999   9.2705307   4.8492579
  53.3895264  10.0927925   6.1200314  69.1750412  17.8905678  76.6566086
  68.7232895  18.6947308  76.4007263  68.5354843  17.4148312  77.1865845
   5.2572508  54.9090881  59.5105553   5.2386909  54.7699890  58.5636978
   5.5724940  55.8068771  59.6146126  85.9702072  48.7719345   3.5017421
  85.7814941  49.0607567   4.3946033  86.7067108  48.1678658   3.5960433
  15.2747364  60.2324562  47.7527885  14.7724390  59.9332161  46.9949074
  16.1069355  59.7638664  47.6887550  72.7293243  22.4235287  68.6450882
  73.3477020  23.0438862  69.0310898  72.2583313  22.9335213  67.9860687
  36.0504074  36.8472977   2.4588673  35.2343292  37.3252792   2.6064579
  36.2220230  36.4041023   3.2897444  27.5437450   4.4904408  75.9728546
  27.2547588   4.0313253  76.7614822  27.6961994   3.7949421  75.3331146
  51.8575249  63.8500824  56.4188881  52.1014977  63.0693665  55.9217033
  52.6345215  64.0554352  56.9388275   5.8265038  59.3615303  89.0727844
   5.2355652  60.0862846  89.2771301   6.0418091  59.4815369  88.1478653
  56.8457832  49.5879593  67.3405228  56.7337494  50.1798935  68.0843582
  56.7023888  48.7147942  67.7055664  54.4850082  47.3062515  50.4529991
  54.7663383  47.4796906  51.3513336  53.5364571  47.4334755  50.4702835
  50.9656143  68.5205154  29.5150452  51.0377617  68.6081543  28.5646000
  51.7479897  68.9542389  29.8556404   3.0103538  66.8372192  63.3639870
   2.6218679  67.6523132  63.0462875   2.3098843  66.4163818  63.8624535
  47.8442345   2.6646514  50.1506805  47.5570335   1.9243221  49.6162071
  48.7380066   2.8400819  49.8563614  55.6981735  23.8741856  58.0659981
  55.9509621  23.8604603  57.1428833  55.0147667  23.2077560  58.1371155
  75.4070053  48.1004372   0.2380837  74.6284180  47.7644386  -0.2059250
  76.0159683  47.3619652   0.2454261  68.3362274  50.2806664  79.5210342
  68.9503937  51.0090485  79.4288864  68.8522186  49.5036354  79.3060684
  54.7879601  50.7110596  30.6612301  53.9981384  51.2381744  30.7819176
  54.5417519  49.8375473  30.9655132  38.9546776  60.7982597  42.4241257
  38.6368103  60.1912994  41.7557030  39.7693710  61.1473618  42.0626831
  59.9618645   8.0483513  74.6174698  60.4367409   7.4987369  75.2408905
  59.9454803   8.9140949  75.0254517  63.9643784  35.8703651  84.5961456
  63.0329323  36.0173416  84.4317169  64.1346817  34.9965019  84.2445984
  36.5506973  35.3089638  65.6257706  36.0731430  35.9417496  66.1622009
  36.0005341  35.1874390  64.8519592  63.1373291  46.2789879  62.7930527
  62.8682022  46.3580132  63.7082367  62.8464279  45.4050865  62.5324593
  44.6558151  68.7650604  31.5042286  44.0009193  68.3574982  30.9374485
  44.9115486  68.0712967  32.1121101  37.0398598  65.5186081  13.0487566
  37.4365082  64.9656830  12.3755703  36.0975723  65.3912659  12.9386997
  66.2536545  40.5942307  35.7616959  66.4561615  39.7024231  35.4790192
  65.9556351  40.4969635  36.6661034  53.8454781  68.7487793  85.5519867
  54.7752190  68.6900177  85.7718887  53.6176414  67.8734283  85.2388000
  43.1577148  48.1510391  20.3912163  43.4240952  47.5086479  19.7334900
  43.6867523  48.9250298  20.1981030  21.8213463  63.1656837  77.7855377
  21.2961597  63.6105461  77.1203232  22.4386902  63.8316689  78.0881653
  26.2929382  34.3506393  87.4854355  26.4935951  34.9403725  88.2121964
  27.0327377  33.7438583  87.4580994  20.5766869  20.0318356  63.9432449
  21.1838818  20.6636562  63.5580826  19.7377872  20.2181587  63.5216217
  11.9741459  50.7392235  12.1424980  12.9280806  50.7966042  12.1967897
  11.7987843  49.8122368  11.9806938  56.1679764  56.4369049  45.1092377
  56.3431702  57.3681030  45.2449188  55.8848724  56.1190491  45.9665909
  21.6430588  68.1033478  75.0217896  21.9595547  68.9944458  74.8734818
  21.0385933  67.9402466  74.2977371  63.1498299  66.6120453  78.4014435
  62.4286537  66.1272049  78.8027649  63.1414566  66.3382034  77.4842911
  17.7523804  13.4339018   6.7087059  16.8423996  13.6185522   6.4761763
  18.2675343  13.9451237   6.0846057  65.9014893  31.2703514  83.4268494
  65.8164444  30.3188725  83.4875946  66.1141357  31.4336395  82.5079651
  51.8195267   1.3213180  28.7965736  52.1602478   2.0476007  29.3187370
  52.4204941   0.5973276  28.9723778  12.3224659  37.7812347  59.1960030
  12.7384653  37.0191536  58.7929993  11.5197659  37.9109726  58.6909561
  21.1813030  68.6657791  55.0329552  20.6421337  69.3712311  55.3905449
  21.9961548  69.0954208  54.7728500   5.8913007  16.9450073  12.2543316
   6.1553440  16.9928951  11.3355179   5.0109448  16.5699387  12.2313108
  44.5500679  69.7109070  41.1820831  44.2929764  68.7984390  41.0496368
  44.2953072  69.9029465  42.0845528  23.4088249  51.1726112  45.2348785
  23.8895664  50.5070343  44.7428093  24.0898933  51.7180977  45.6283531
  48.4520988  52.0241623  54.3636398  48.3390274  51.3599815  55.0435753
  49.0614471  52.6561394  54.7451286  42.6095772  58.5425072  20.6527710
  42.5909767  57.6611824  20.2797375  42.4437523  59.1211510  19.9085236
  73.2768173  67.4479370  24.6941299  72.3942947  67.1415024  24.9026718
  73.3531570  68.2862854  25.1497421  25.6308689  66.9482498   9.1443224
  25.2919998  67.3003159   8.3212500  25.9859295  66.0908051   8.9099112
  44.3256493  28.5691242  57.7263832  43.9362373  27.6947784  57.7369766
  43.5777168  29.1637478  57.6693230  73.7234039  43.5054169  31.4190979
  73.6524124  42.9329033  32.1829185  74.2338104  42.9992752  30.7870121
  64.0325623  28.1373119  71.2971344  64.8235779  27.9338703  71.7962646
  63.5548935  27.3087807  71.2571182  46.1409149  64.5609055  15.0157614
  45.5187988  64.7800446  14.3220911  46.0333557  65.2579269  15.6629286
   2.4680991  64.4040298  82.8048859   1.9451499  65.0755310  82.3668900
   2.1189687  63.5758705  82.4755020  82.0998306  28.0864639  38.7414665
  83.0567474  28.0893421  38.7182312  81.8380966  28.3630314  37.8632660
  79.5950241  67.4340439   0.9343571  79.7597427  66.9829178   1.7623605
  79.3821869  66.7332840   0.3180186  54.8307838  56.0947914  50.9659653
  55.5588150  55.4737625  50.9431038  54.6196594  56.1822357  51.8954887
  78.3370361  41.0519371  25.4896088  77.8019562  40.5001450  24.9191322
  77.7074509  41.6233330  25.9293346  25.9658298  36.8677444  63.5687943
  25.4924679  36.0608253  63.3661957  26.8897572  36.6238747  63.5129700
  83.8842163  20.7726936  38.9001999  84.8286514  20.7226009  38.7527008
  83.5777817  21.4254456  38.2707214  23.4045715  35.6509438  75.8645020
  22.5900364  35.1965904  75.6492615  23.9337368  34.9931564  76.3156509
  41.0057640  67.3164444  43.2034874  41.2605934  66.4938202  43.6213112
  41.7182617  67.5057602  42.5929604  20.8631954  36.7323380  15.6516695
  21.0248451  37.1976700  16.4723816  19.9106903  36.6486473  15.6073847
  62.7199898  26.1224480  66.6249084  63.2197762  26.2669964  67.4283676
  63.0138359  25.2674007  66.3106155  84.5414658  15.4719915  68.3465347
  84.2860565  15.8262415  67.4947739  85.4235458  15.8135185  68.4932404
  33.0784950  51.2125931  12.9285774  33.3011246  52.0809593  12.5930061
  32.8307991  50.7117424  12.1513844  50.8052788  46.9893188  24.7786541
  50.3975296  46.9235001  23.9151497  50.0923271  47.2521133  25.3607807
  84.0902023  22.0394993  67.3407974  84.8857880  21.5129700  67.2630920
  84.3984909  22.9451923  67.3106995  16.6904850  58.1904221  10.7413111
  16.4592648  58.8360710  10.0735521  15.8822632  57.6995697  10.8898973
  51.3836746  44.6090012  37.0683365  50.7507324  45.3258362  37.1103210
  52.1985054  44.9894371  37.3962746  48.8610153  47.4612961   7.0187068
  47.9110489  47.3809547   6.9330063  49.0870018  46.8736649   7.7397113
  53.5318680  62.5974960  60.5717125  52.6875877  62.2020416  60.7885971
  53.6619797  63.2675095  61.2428246  15.2119217  30.9053192  18.2247047
  14.5201559  30.8052464  17.5707340  14.7486019  31.1347961  19.0302525
  18.8019886  64.8964920  64.0695038  17.8802681  65.0910568  64.2392273
  18.9311676  64.0180969  64.4272308  53.1074677  52.5719109  44.1703720
  53.6361542  52.4641991  44.9610176  53.4341927  51.9013062  43.5705681
  14.6844110  23.6259022  19.5416088  14.3656120  24.1858959  18.8337917
  14.8982115  22.7969570  19.1133881  11.6917877  48.0189095   2.0061934
  11.4481030  47.1323051   2.2722514  10.8641891  48.4995155   1.9880533
  31.2272205  64.4723816  63.4985085  32.0038376  65.0010605  63.6817856
  30.8176193  64.3438339  64.3540421  58.6079025  33.9437485  44.8892975
  57.7240753  34.2774086  44.7351875  59.1070023  34.7096977  45.1729393
  35.3624611  12.4650059   2.3113205  35.9634514  12.2464495   3.0235517
  34.8594856  13.2091618   2.6422000  16.9649143  14.2995634  70.0569611
  16.6120777  13.4704008  69.7341232  16.4222946  14.9691315  69.6404648
  58.2959976  17.7289944  51.0301743  59.2302742  17.5764427  51.1719208
  58.1086845  17.3060246  50.1921730  60.0270844  31.5145168  51.3854561
  60.4512711  30.7629452  50.9714050  60.3830338  31.5310211  52.2738571
  77.9589996  63.0405045  39.3645477  78.6701202  63.6147346  39.0802841
  78.1823883  62.8111763  40.2666245  43.3136978  46.1014023  30.5565510
  43.5556526  45.7305908  31.4051895  43.4559250  45.3881721  29.9342079
  13.7907515  49.5035172  25.2141609  13.9233027  50.0322075  26.0010223
  14.4427834  49.8295937  24.5938702  54.1649666   3.1392925  84.1561432
  53.3329887   2.7548325  83.8800430  54.4819565   3.6052716  83.3824387
  18.8446560  40.4065895  75.0858612  19.3797417  40.9205894  75.6906128
  19.2596931  39.5441513  75.0725555  34.8722229  59.4968262   3.8052146
  34.9006882  60.4294891   4.0186644  35.2945900  59.4341850   2.9485269
  85.4628983   6.9074702  37.7198563  85.6411667   6.2745590  38.4154701
  84.8478546   6.4587860  37.1396523  65.8466187  31.7038841   9.9521322
  66.3807297  31.7482777   9.1590452  66.2149429  30.9728966  10.4483414
  72.3537903   0.4614607  37.7256927  72.3932877   1.3870214  37.9665413
  71.4434052   0.2115039  37.8836517  32.6432228  61.8305397  85.0852661
  32.4600143  62.7295494  85.3581161  33.1645088  61.9237595  84.2878952
   1.5907743  30.8470211  28.6981163   1.8542273  30.3143635  29.4485149
   1.0614839  31.5489883  29.0767021  30.3029995  40.9928932  80.9204254
  29.6747112  41.6732330  81.1625519  29.7613373  40.2408028  80.6812820
  62.4532661  40.7719917  80.7686539  61.5629082  41.0285339  81.0088196
  62.8078766  41.5355148  80.3131104  45.9761696  43.4513741  68.2034149
  46.2779846  42.9345131  67.4564285  46.5877304  43.2348785  68.9072342
  70.5658493  55.6523590  12.8134518  70.7326050  55.0499763  12.0884962
  69.7289200  56.0628700  12.5960779  18.0398979  71.3601532  38.6067276
  17.5274258  71.1094666  39.3753357  18.6426811  70.6289215  38.4718666
  84.4725037  48.0615654  67.4290619  84.6129456  47.9149628  66.4936371
  84.4033737  47.1825218  67.8015366  36.5790520  57.3821564  57.4406929
  36.3743477  58.2063904  57.8822403  37.4327583  57.5333405  57.0350342
  77.0708466  28.6425571  70.6902466  76.5928268  28.9551201  69.9221115
  76.7335892  27.7591991  70.8391418  34.1392937  19.7661114   3.4980400
  35.0249176  19.4125080   3.4151678  33.6447411  19.0732441   3.9357452
  84.6336136  21.2820492   3.3365397  85.1812744  21.3444824   4.1190991
  84.7294769  20.3741283   3.0489223  75.1445160  23.9736500  62.8773918
  74.9100494  23.0896816  62.5947952  74.8264618  24.0292969  63.7784882
  43.9771271  51.0556984   4.4595275  44.1880760  50.1649857   4.7394519
  43.0691414  51.1842690   4.7338758  61.5815430  11.7363634  83.1275406
  61.1445961  12.4618692  82.6815033  62.1628342  12.1591024  83.7597046
  60.5149345   6.8456273  68.0976028  60.9959412   6.3709588  68.7755051
  59.7647095   7.2236328  68.5564194   6.0028791  69.4504166  39.7039299
   5.9448476  69.2934723  38.7614670   5.8762770  70.3945541  39.7977600
  41.1574402   4.6758723  20.1672020  40.9455261   5.5521955  19.8456726
  41.9768677   4.7891159  20.6488113  37.4558487  31.7170734  70.2375488
  36.7623596  32.0526123  69.6694641  38.2677383  31.9452133  69.7847519
  55.8634567  17.6353779  41.1300240  56.2901917  18.4150429  41.4853439
  55.5270653  17.9136581  40.2781830  37.7072983   3.8512275  36.7444763
  37.8066902   2.9098835  36.8866882  38.2102699   4.2547503  37.4518776
   4.3341393  17.4799576  78.3137360   4.3026609  16.9075394  77.5472031
   3.4386966  17.8051720  78.4067383  66.1742401  64.4936981  81.5329971
  65.3108902  64.4733810  81.9458542  66.2552719  65.3840256  81.1909714
  15.1629019  69.8979568  35.0232086  14.6560564  70.2652740  34.2990379
  15.2182636  68.9627838  34.8267059  50.6417923  51.4739380  63.4343452
  50.9269333  50.7022629  62.9450150  51.0670700  52.2086258  62.9920731
  66.4364090  34.0870399  49.7522964  66.8522949  34.0332527  48.8918457
  65.6838913  34.6633873  49.6189919  63.1511955  18.9067726  68.4477692
  63.7899666  18.1944828  68.4768677  62.4287758  18.6032372  68.9975052
   5.5060720   5.6798596  56.7062263   5.8519754   4.8535686  56.3688469
   6.2327633   6.2968440  56.6197281  62.1417580  -0.0137956  82.9444733
  61.6089745   0.1282489  83.7269058  62.3631554   0.8670619  82.6423111
   6.3924108  43.2673149   9.8865480   7.1168432  43.8815804  10.0053186
   5.8957086  43.3220177  10.7029591  85.5119095  15.7804604  83.5686188
  85.1153793  16.6484337  83.6435471  85.4886856  15.5866127  82.6315384
  17.6688766  64.7327194  77.5722885  17.8251247  64.0359116  78.2096863
  18.5383282  65.0881653  77.3880539  52.4996834   4.2465219  80.2717667
  52.8239441   3.3464344  80.2412796  51.5681763   4.1726837  80.0642242
  41.8214989   5.4558282   9.4552641  41.5866852   4.7439847   8.8599710
  42.7070541   5.2408247   9.7481804  81.8948517  10.0889626  72.0937576
  81.9401474  10.9820786  72.4351120  82.2227402   9.5426216  72.8080597
  23.9985390  21.9671288  10.5656853  23.2152138  22.5014801  10.4348974
  24.7222233  22.5332985  10.2974205  11.7260523  63.0235481  66.6624527
  12.5498533  62.6209488  66.9372177  11.9446182  63.9449387  66.5228195
  51.4856491  33.0597878  85.6863174  50.7769165  32.4174576  85.7228622
  51.1098404  33.8530807  86.0680084  56.5031166   5.8858938  11.4045753
  56.8025703   5.3956127  12.1702013  57.2778358   6.3634267  11.1079178
  20.5939407  67.4236298  52.5382690  20.3492451  68.0908966  51.8970871
  20.4226856  67.8324661  53.3866539  68.0336456  12.8787909   7.0576482
  67.3562546  13.3604641   6.5829215  68.5946198  12.5160837   6.3721004
   5.1303926  41.4769554  65.1283569   4.4414034  41.6458740  65.7710037
   5.2444215  40.5266953  65.1436386  61.8355751  32.1641998  33.6485443
  60.8851509  32.2535896  33.5782776  62.1733627  32.5589905  32.8446350
  70.1559753  47.3309898  59.4475403  70.8222427  48.0160675  59.3928947
  70.2495728  46.8401909  58.6310921  85.3225327  61.3103065  75.5818176
  86.1797714  61.7196007  75.4641113  84.7315903  62.0406189  75.7652817
  76.2013168  64.1753998  20.4032669  77.0731430  64.4439316  20.6931572
  76.3402557  63.8168564  19.5266953  21.3788605  26.1679630  11.1239901
  21.3152943  25.2129269  11.1339054  22.1153641  26.3650055  11.7027559
  17.8044338  62.0800095  23.4246998  16.8671513  62.0081749  23.6051788
  17.9500580  61.4978600  22.6789608  53.6043015  29.0661297  50.8539429
  52.6851234  29.0144119  50.5918999  54.0509338  29.4312515  50.0901146
  38.0992661  40.2818222  24.1983891  38.0740814  39.4684258  24.7023602
  37.6747780  40.9271164  24.7637539  29.9565048  51.9784775  42.4252701
  30.7502403  51.6431999  42.0083733  29.8473072  52.8568459  42.0608826
  21.9481392  53.1926727  87.9247360  22.8234787  52.8053627  87.9233627
  22.0976810  54.1219559  88.0988007  77.1662140  40.8543968  75.0096970
  77.3714447  41.7516365  74.7468719  76.2763901  40.7083549  74.6885757
  52.0651512  63.9480743  83.2044525  51.1333580  64.0531998  83.0122528
  52.4384804  63.5976753  82.3957062  71.4035263  64.3304367  24.9111576
  70.9093399  63.5624809  25.1979446  72.2470093  64.2526627  25.3569450
  71.4232864  71.6877823  62.6690483  71.7329178  70.7848206  62.7398796
  70.9391556  71.7109222  61.8436317   0.3923695  38.0414124  87.2387161
  -0.0878243  38.8620758  87.1284561   1.2511176  38.3085632  87.5664597
  13.9406166   7.8943601  80.1361313  13.3893261   7.2570486  80.5901566
  13.6035442   8.7452974  80.4163437  42.3865700  58.4170532  38.8902817
  41.6922874  59.0396919  39.1059837  42.6510239  58.6518707  38.0008087
   9.5123281   0.0166047  22.1043930   8.6737986   0.4342473  22.3010521
   9.5251665  -0.0572148  21.1501293  26.5622101  69.4891281  28.7239056
  25.7439632  69.7918243  29.1177101  27.2040977  69.5460510  29.4316978
  76.9456482  24.9801674  40.0734596  77.1936951  24.1758404  40.5292702
  77.7172775  25.5423374  40.1425858  54.5368195  16.6212158   0.9162892
  54.2036819  16.1223564   0.1703733  55.4250946  16.8698845   0.6606230
  78.4574356  66.2156296  22.9940014  78.5622482  66.4108124  22.0627918
  77.5143967  66.2757568  23.1466560  12.9277229  59.1006851  16.6270103
  12.3936300  59.8247337  16.9537010  13.6914167  59.0870857  17.2039146
  22.4398041  15.3946133  56.2468987  23.2706203  15.7821331  56.5222206
  21.7732868  15.9960213  56.5790062  32.8056870   3.3446851   9.5622320
  32.8599892   2.7819393  10.3346319  33.0506172   2.7749422   8.8331003
  55.0014038  18.8765144  19.2235184  54.5102386  18.1378975  18.8637447
  55.8012009  18.9106712  18.6987400   1.6504031  43.8216476  18.9775810
   2.1324065  44.6041794  19.2450600   2.3300853  43.1751328  18.7870903
  43.1056900  54.7237434  73.1205444  43.9249039  54.7248306  73.6156464
  43.2851219  54.1684494  72.3618088  16.5822639   8.3916721  63.3984871
  16.7276611   9.3375340  63.3775940  15.9349747   8.2641106  64.0920105
  66.5918579  65.0192490   0.3759510  67.2779770  65.5434189   0.7891327
  66.4613571  64.2823029   0.9727072  49.0325432   6.4861798  71.8649750
  48.8219337   5.5533948  71.8226929  48.9547119   6.7074690  72.7929840
  66.8967438  47.1174812  49.8048706  66.3386230  47.8424149  49.5234375
  67.5538635  47.5259285  50.3684273  18.0434189  53.2634888  69.2766647
  18.9888744  53.2421265  69.1287231  17.9068108  54.0224686  69.8436966
  34.4835281  46.6214485  23.7135639  34.2281723  47.5384789  23.8139839
  34.1245613  46.1867752  24.4871483   3.9556825  56.3237534  83.0592957
   4.0665812  57.1665726  83.4992828   3.2506523  55.8924408  83.5421295
  56.7941666  36.5061760  51.9570351  56.7213898  36.8112602  52.8613930
  56.5860443  35.5729370  52.0016098   2.0204597  44.1674728  55.5476379
   2.0520196  44.2783585  54.5974045   1.0969144  44.0043793  55.7392006
  37.7956238  51.3632088  86.1556549  38.4715233  50.9669609  85.6057587
  38.2694626  51.6867943  86.9218140  60.6496696  17.1534252  77.0683670
  61.0757027  17.9530048  77.3772278  59.7131767  17.3370533  77.1424789
  77.4626846  62.6852760  35.5544968  77.5361557  61.7787857  35.2559891
  76.5233231  62.8212814  35.6783142  42.6171989  50.9702988  22.7085495
  42.5307808  51.6643600  23.3620377  43.3000412  51.2835083  22.1153717
  17.5282211  33.6058159   8.4703331  16.8360786  33.0224152   8.1591806
  18.2386551  33.4927101   7.8388867  11.2445259  33.1061401  31.6157227
  11.0346813  32.8626518  30.7141075  10.8455906  32.4183044  32.1486053
  44.1864014  44.7169762  17.1264362  44.7754517  44.1011391  16.6905422
  43.3275986  44.2961693  17.0863590  81.8785172  47.0336037  53.6203117
  81.6253967  47.3242340  54.4964943  82.0689621  46.1011734  53.7229576
  63.5281410   3.6367462  29.2318039  62.7537231   3.9492393  28.7639847
  63.1862297   3.0094171  29.8688183  55.5229263  37.1466560  81.4023132
  55.1346321  36.3057671  81.1607285  54.7754822  37.7368813  81.4982376
  69.8518829  35.2944298   0.4555463  69.7177353  35.9928970  -0.1850641
  69.0519180  34.7707787   0.4100036  57.3413696  15.2905703  75.3637772
  56.6490097  14.9255648  75.9148178  57.7649155  15.9481812  75.9154968
  71.3131943  69.0557404  84.9500275  71.6289673  68.1642456  85.0975571
  72.1008911  69.5982437  84.9882736  77.7920685  57.7780075  79.8287964
  77.5713425  56.8988647  80.1363907  77.2658768  58.3619957  80.3749771
  31.4151249  41.9490318   7.5208812  30.8331280  41.1952591   7.6175156
  31.8485889  42.0274467   8.3706999  35.7219887  53.6209106  66.8577118
  35.8442535  54.1571541  67.6411133  36.4057617  52.9535408  66.9151688
  68.9297256   3.4603276  79.4250107  68.6575089   3.7192874  80.3053894
  69.8311462   3.1568413  79.5325928  16.3163509  50.0116005   0.8196886
  17.2126789  49.6856270   0.9007451  15.8836508  49.7251167   1.6240090
   5.2436066  48.5397873  76.4937134   4.9367557  49.2849197  75.9771347
   6.0866151  48.3087921  76.1035767  41.6756363  50.9076042  60.8494225
  40.9416389  51.0690880  61.4422188  42.4541321  51.0475883  61.3884773
  28.9589481  31.0765800  72.9298630  28.9931870  32.0251579  73.0533905
  29.6022949  30.9010887  72.2431793   9.6383839  11.6332178  59.3809662
  10.0344162  11.0025702  59.9823608   8.9467058  12.0513878  59.8937492
  66.8032608  38.2966919  18.0076351  67.3073654  38.9935646  18.4277344
  66.4588165  38.6978760  17.2097359  50.3438606  15.4721909  65.3524246
  51.2494736  15.5077524  65.6603775  50.4165916  15.2955437  64.4144745
  60.7069016  14.6497602  84.6266022  60.4291496  13.7344131  84.5916367
  60.0438232  15.0808315  85.1658020  85.9603500  56.4176865   3.3026621
  85.0510025  56.5075340   3.5876863  85.9108887  55.8863678   2.5079999
  29.1474590   3.9273002  27.2983894  28.7989807   3.3429708  27.9717064
  28.7527065   4.7776475  27.4915524  51.2389374  11.6637354  60.1111298
  52.0118523  12.1693268  60.3625565  50.6373138  11.7630901  60.8489685
  44.3002853  26.5466175  81.0514755  43.7597313  25.8538742  81.4311295
  44.3586082  26.3229828  80.1225967  74.4609070  25.3049774  56.5211639
  74.0161972  26.0167198  56.9814796  74.3629990  24.5480690  57.0988617
  19.6035671   6.6795640  28.2646790  20.3205204   7.0201464  28.7996674
  20.0116081   6.4652605  27.4257450  67.5819473  59.8319778  80.5008240
  68.0586166  60.2934074  79.8108215  67.2796097  60.5250702  81.0877151
  74.6148682  61.6810226  51.3602104  75.4011917  61.8107872  50.8300323
  73.9534988  62.2365952  50.9477081  24.8099537  49.4698410  13.3990335
  25.7049370  49.7799759  13.2609978  24.2704773  50.0467758  12.8583460
  85.2996750  69.5324402  53.3245926  85.7098312  70.3393173  53.0132332
  86.0343399  68.9640350  53.5557098   1.9743661  39.7770119  48.7696381
   1.1625953  39.3238144  48.5418892   1.7133749  40.4181328  49.4307594
  80.3772888  59.2368088  29.8423386  79.4364929  59.0621109  29.8175201
  80.4903259  60.0174637  29.3000889  85.7821960  16.9128838  26.5671444
  85.9388199  16.1773491  27.1593342  86.5439301  16.9201298  25.9875412
  62.3376236  20.7769089  66.4864273  62.8482094  20.2510891  67.1020889
  61.6030426  20.2138367  66.2423553  15.4092503  32.2624855  71.2023239
  14.4780884  32.0632629  71.1049500  15.4634151  33.2121887  71.0957336
   9.0490522  30.4760551  80.1414795   9.5390015  30.4196396  80.9618454
   9.7164536  30.6371346  79.4745026  26.6394691  47.6513824  14.2598505
  26.7074661  47.5889244  15.2125874  25.8913498  48.2295227  14.1105108
   9.0584698  20.8541298   0.8999451   9.9271078  20.8407612   1.3018411
   8.4949226  20.4088688   1.5327091  47.1039200  63.8691559   5.3818140
  47.6925583  63.4917107   6.0354753  47.5028763  64.7097626   5.1572022
   1.9867295  50.5407066  76.7548141   2.3513362  50.5934296  75.8713455
   2.6576266  50.9316711  77.3145218  58.9433174  57.7499161  87.1107254
  59.7653465  58.1666107  86.8521423  59.0543976  57.5585022  88.0419922
  53.2268867  67.8676987  13.9222431  53.5046577  68.2488174  13.0892830
  53.1147385  68.6194687  14.5040512  45.5001984  34.7677994  16.0847530
  45.1199112  35.5082855  15.6122103  46.3333702  35.0996056  16.4193554
  81.7795181  69.3450089  52.2238197  81.1840286  69.9919510  51.8455353
  81.4201965  69.1682587  53.0932312  12.5168457   2.0845914  34.7463493
  13.1515484   1.5542181  34.2645950  11.6648283   1.7387894  34.4804192
  14.2928171  36.9651871  10.1898327  14.2488041  37.4817505  10.9944782
  15.2274733  36.8060722  10.0581837  13.5220079   7.0427508  75.7053909
  13.0170288   7.2457290  74.9179688  13.0260544   6.3457975  76.1349411
  71.9890747  14.7745819  43.4811440  72.4093399  14.3661413  42.7243195
  72.4306488  15.6187916  43.5736732  27.3234329  67.3851929  43.4073715
  26.8944511  67.3684006  44.2628975  26.6116924  67.5365524  42.7854843
   3.5072353  21.2823143  34.1561317   3.7470663  20.3558578  34.1362724
   2.6026735  21.2889004  34.4691124  79.6338120  50.8743057  19.5152054
  80.5002365  50.5351639  19.7399864  79.1338654  50.8125343  20.3291283
  70.1022797  24.6461849  60.2726097  70.1674194  23.7924614  59.8446579
  71.0010529  24.8561497  60.5262756  85.4131470  24.1296635  18.1596737
  86.1503677  23.5634995  17.9312286  85.7995224  24.8205910  18.6977863
  39.9188118  71.4241638  38.9183540  39.8998871  70.4676056  38.9479408
  40.6339340  71.6310806  38.3166771  67.9838257  24.1374474  48.7689514
  67.9128189  25.0792999  48.6136971  68.9247894  23.9625225  48.7541084
   4.4638166  19.6059551  24.2151451   4.0215383  18.9002151  23.7433891
   5.3526258  19.6112881  23.8598671  70.5424347   8.3734713  71.2251816
  70.0525665   7.6222157  71.5596542  71.3139877   8.4266491  71.7891998
  85.4465408   6.5755768  14.2110796  86.2621002   6.3501649  13.7635584
  85.4222641   5.9948783  14.9716272  24.5482044  29.9243908  85.7211533
  24.5587730  29.0618420  85.3062668  23.7107925  30.3063469  85.4583206
  57.3648453  66.3033066  19.1099854  57.6834106  65.4053192  19.0184765
  58.1566391  66.8409729  19.0955887  72.3074341  24.5417175   0.9376784
  71.6876602  25.0253963   1.4837294  72.3375244  23.6674957   1.3263454
  68.8586884   3.4910741  33.4652443  68.3991318   3.0271173  32.7653961
  68.1638031   3.9193180  33.9652214  51.0311813  15.5475597   1.7098956
  51.8917427  15.1730566   1.5217073  50.8226814  16.0698528   0.9353189
  10.5112696  67.9022980  53.7986832   9.6149750  67.5725708  53.7341194
  10.8815594  67.4434128  54.5526962  44.3224106  68.2076569  74.5887299
  43.6010132  68.7940063  74.3606491  44.9872322  68.7822571  74.9683075
  66.1237411  40.2746124  64.6885529  66.9227753  40.7271423  64.4183655
  65.5283051  40.3759995  63.9459801  16.3689480  18.1499100   5.1659808
  15.7538986  18.8274784   5.4467807  15.8639612  17.6022644   4.5648956
  65.8286285   6.3868389  77.5412292  66.5733109   6.4407592  76.9422531
  65.5362625   7.2927041  77.6420441  50.6178322  44.9483261  81.1716309
  51.0909843  45.7727509  81.0589905  50.8221321  44.6751900  82.0659943
  18.9575329  65.6037292  50.9706154  18.7351437  64.8785019  50.3868103
  19.1516762  66.3336563  50.3826180  67.6454163  23.6403904  33.6782684
  68.2966919  24.3041935  33.9050865  67.8021164  23.4578533  32.7517929
  77.8605270  45.3977127  36.1778259  77.6869812  46.1398315  36.7569427
  77.8930206  44.6403275  36.7622452  60.3888931  37.4885902   1.5985643
  59.7091866  38.0357285   1.2050215  60.2537575  36.6235008   1.2117953
  13.3938389  68.4660110  65.5432281  12.7713966  68.3468475  64.8258743
  14.2106285  68.7177505  65.1122818  65.3782959  53.9059143  78.5592117
  66.0308380  53.9037857  77.8589096  65.8872147  54.0296097  79.3604202
  15.3552780  53.1336288  14.7388229  15.6837387  53.4217415  13.8871565
  14.5624437  53.6517143  14.8775082  61.1306992  41.3181076  40.9838257
  60.5507431  41.3318405  40.2224503  60.7668457  41.9780655  41.5739975
  76.1823959  13.9616175  28.2225895  75.2399597  13.8471355  28.3447933
  76.2564163  14.5697460  27.4871082   4.4647665  48.5854836  26.7490616
   4.1825147  49.4727592  26.9711056   4.7367158  48.2046432  27.5840702
  77.7367554  70.0099945  -0.1860623  77.9532928  69.1047058  -0.4092130
  77.8749924  70.0632019   0.7596084  53.3169022  61.0307426  67.0110550
  52.5820198  60.4255753  66.9112930  54.0712891  60.4658775  67.1785736
   6.9303131   4.6125064  66.0275879   7.0805964   4.9128547  66.9239349
   7.4165797   5.2314439  65.4828949  67.3529663  46.8288498  81.6911926
  67.6816330  47.7277756  81.7030487  66.7376404  46.7891312  82.4233322
  26.5641670  22.7665386   6.9477682  26.0104961  22.8223782   6.1689458
  26.8391018  21.8502750   6.9809880  45.1701469  23.7847633  13.6110563
  45.5677795  23.9101124  12.7494259  45.3153305  24.6149292  14.0649052
  72.4790268   0.6055321  85.7895737  72.2269440   1.0251900  86.6121140
  72.7788696  -0.2661425  86.0474701   7.4019885  58.6856422   2.0508668
   6.8293891  57.9236259   2.1385748   6.9529548  59.2516479   1.4229841
  46.0401764  30.3510628  13.4558115  46.0538101  31.2546844  13.7712698
  46.7438469  29.9180202  13.9390812  56.8936615  52.4290199  79.8367386
  57.2658730  51.6371307  80.2248077  57.4776840  53.1322212  80.1207428
  70.7138748  60.2198715  73.5995178  70.7518539  59.5530319  74.2851639
  71.2371063  59.8580666  72.8842850  21.1641273  30.4473000  87.4468613
  21.6923561  30.8965778  88.1066742  20.5556450  29.9090195  87.9530563
  82.6705246  69.2243576  83.5012970  82.3849106  69.4684906  84.3816681
  81.9309998  69.4520416  82.9378281   1.2934964  61.6243515  34.7669792
   1.4627218  60.7020874  34.9593925   0.4249246  61.6296463  34.3647537
  78.6957932  12.9007397  77.4881592  77.9038315  12.8307686  78.0212021
  78.7989883  13.8399000  77.3346634  75.3586349  18.8302402  19.1906700
  74.8234863  18.4795475  19.9026127  76.2434464  18.8705673  19.5536003
  65.2052536   2.6878252  43.5794983  65.0125580   3.3132513  44.2780266
  64.5122986   2.0310643  43.6481667  56.4025688  30.3081284  55.8296585
  56.6316719  29.5167046  55.3424301  56.9275551  30.2580032  56.6284752
  27.3449135  66.3719330  53.2678032  27.6764240  65.4963531  53.0685463
  26.9246330  66.6591187  52.4571762   8.3804941  60.9924431  17.4032059
   7.7600965  61.3483162  16.7670517   8.0919580  61.3478928  18.2438221
  70.1917801  50.8448143  85.2758255  71.0871582  50.9957886  85.5787048
  69.9640350  49.9820366  85.6222076  47.3655739  57.2486992  81.4466553
  47.2885056  56.4436302  80.9346390  47.7360382  56.9662094  82.2828293
  58.5362625  70.7185593  88.8111801  57.8948822  70.0108032  88.8740005
  58.0346222  71.5132294  88.9930801  60.7438240  55.8799324  82.0857925
  60.8881912  55.6070328  82.9918365  61.4682541  56.4764099  81.8969879
  52.1912193  42.2188530  72.4927444  52.6301804  41.5698128  73.0425491
  51.8200684  41.7103004  71.7717361  11.9802694  12.0285168  56.4788361
  11.4184504  12.7805109  56.6661758  12.3728142  11.8065786  57.3231621
  45.2615395  53.2165375  17.7659225  46.1904831  53.1427612  17.9846745
  45.0993996  52.4918098  17.1620064  55.7013626  21.3717880  74.3235474
  56.1591339  20.6079903  73.9724197  55.8662148  22.0647163  73.6840897
  45.1672897  39.7956009  66.9665146  44.8488464  39.4391785  67.7958450
  46.0976944  39.9613152  67.1185455  65.8251724   2.7712114  50.5053825
  65.8012695   1.8410966  50.7302094  64.9313202   3.0776196  50.6582565
  40.2984314   5.5730610   3.1128340  39.5800743   5.4831543   3.7390232
  39.8733253   5.5488133   2.2555547  59.5547333  49.8154335   4.4767418
  60.3597870  49.3998337   4.1678820  58.8549652  49.2371597   4.1731739
  75.2231216  11.9542465  48.7227325  74.5103149  12.0572929  49.3532257
  75.2864838  12.8064337  48.2914658  39.0679245  50.9342651   9.4791870
  40.0079880  51.0049210   9.3132963  38.6582069  51.2992249   8.6948614
  13.7272329  33.9658585  80.8969803  14.1494827  34.6866646  80.4296722
  12.8710098  33.8778763  80.4782104  11.1599579  31.5108337  62.0681190
  11.9642811  31.0374680  61.8554688  10.8503351  31.1052418  62.8779755
  69.8624573   0.3826792  65.9124985  69.9946213   1.1433204  66.4783554
  70.7189560   0.2291570  65.5136642  84.4205933  52.9253120  71.7164917
  84.9968643  52.1623077  71.7607880  85.0161972  53.6742706  71.6931381
   3.5405214  44.0343819  62.7010155   3.4748609  43.6986351  61.8070412
   4.3453698  44.5524979  62.7037659   1.1475768  59.3462715  28.9862003
   1.9610777  59.5439072  29.4503002   1.0673733  60.0438881  28.3357162
  13.1229353  70.1941833  39.9329910  13.7026548  69.9942703  39.1980171
  13.4357061  69.6346130  40.6438293  81.2208939  16.5468998  39.4108543
  81.8676224  17.2393303  39.5469131  81.7400131  15.7758608  39.1822777
  14.7069979  47.2369576  83.2803650  14.1606760  47.8581543  82.7988281
  14.3447361  47.2361069  84.1663666  19.0883446  43.9059868  21.3851471
  18.9708652  43.2528534  20.6953278  18.6601028  43.5245781  22.1515484
  44.7287254  70.4640961  81.2117767  44.0081291  70.6027603  81.8263855
  45.5189056  70.5633469  81.7428131  11.0811081  25.6002007  11.3732128
  11.4289532  25.9237709  10.5422277  11.5043697  24.7504025  11.4953823
  64.0874100  22.1516628  37.6746788  64.9580231  22.0096169  38.0462914
  63.5183754  21.5572605  38.1636734  59.9175148  20.1556473   8.2834969
  60.7592354  20.5650406   8.0831585  59.4543304  20.8061981   8.8112068
  21.2947445   9.2587023   1.9668911  20.8997364   8.7341709   1.2704235
  20.6523781   9.2376766   2.6762261  62.3878021  65.8829956  86.7393188
  62.3286896  66.5708847  86.0763245  62.9771385  66.2404861  87.4034805
  27.6441822  67.0702438  27.8506031  28.5290833  67.3542633  28.0797615
  27.1110840  67.8614655  27.9280739  79.4755936  20.8411217  64.5465775
  79.8814926  21.5735359  65.0103149  79.2734680  21.1898270  63.6783714
  49.0345497  65.3146896  80.2458649  48.4625626  66.0601578  80.4284363
  48.4855881  64.5469131  80.4052277  59.9685555  36.8289757  18.7418785
  60.3297234  37.4544487  18.1137295  59.7148552  37.3641319  19.4938602
  11.2799616  39.0614891  89.0410309  10.5558653  39.4194031  89.5546646
  10.8710289  38.4081535  88.4734421  65.8147888  35.5110397  75.3994675
  65.0936127  35.8385582  75.9369354  65.8556290  34.5755043  75.5978012
  86.3023911   0.8306993  11.2382803  85.3879318   0.5641577  11.1436491
  86.2574921   1.7219350  11.5845671  28.3751240  57.6937065  24.9918556
  27.7369251  58.3929138  25.1334362  28.4458904  57.2583885  25.8413982
  63.0841179  13.2907858  61.0530472  63.6210098  12.5153036  61.2161636
  63.4815712  13.9749117  61.5917816  48.7896042  69.6788864  27.5595570
  48.7450867  70.6332550  27.6181431  49.7245216  69.4867096  27.4872646
  19.1018562  45.3677101  38.3313026  19.2956276  44.6828575  38.9713516
  18.4814129  44.9613838  37.7261734  10.2878075  28.6112423  87.0538254
   9.9462442  29.2287388  87.7005615  10.7742023  27.9684143  87.5699921
  49.0745125   4.6453633  13.9003506  49.1862259   4.0162225  13.1876554
  49.8284569   5.2301407  13.8239908  53.9504166  28.1180439   6.2313704
  53.0875626  28.5289402   6.1777186  53.8158150  27.3499069   6.7864208
  36.4525032  47.6330414  70.2040939  36.9847298  46.9079971  70.5316315
  36.0300217  47.2844810  69.4190750  78.8619614  11.6382437  27.4814835
  78.8707123  10.7373552  27.8048344  79.4820404  12.1010170  28.0450211
  70.2519989  64.0265350  86.9446945  69.8912582  64.7534256  87.4523697
  69.4982300  63.6598511  86.4825211  24.7023277  28.6067963  71.3995438
  25.2629204  29.3826504  71.3952560  24.8311920  28.2134190  70.5364838
   7.7613382  38.6043701  69.0246735   7.3695683  37.7587776  68.8062210
   8.1729879  38.4644661  69.8774414  72.6604309   8.4948702  72.9877701
  72.6000366   8.1608124  73.8827515  73.2055817   9.2782679  73.0608063
   5.5955520  49.9469604  19.5204468   6.3851676  50.4865799  19.5598526
   5.3123732  50.0031204  18.6078205  15.9618874  12.5025482  61.0436783
  16.2235451  11.9587755  60.3006592  16.4790497  12.1703663  61.7774582
  78.1211624  67.2927475   4.0941033  77.6961670  67.9992981   3.6079001
  77.5380173  66.5417099   3.9839582  74.1375351  52.8051300  80.5217056
  74.1780167  53.3867264  79.7625351  73.2081375  52.7712898  80.7482147
  12.4003563   3.3979170  81.5372314  12.2524891   4.3418641  81.5949478
  13.0910988   3.3033454  80.8813705  12.6566305  48.3959427  76.6569290
  11.8624821  48.1064949  77.1061249  12.8404036  47.7016945  76.0240936
  67.4753799  63.1108437  13.7267838  66.7271118  62.9327660  13.1570339
  67.5490875  64.0651779  13.7340832  22.6828117  63.6372375  19.0888748
  22.8079643  64.5746613  18.9411964  21.9672565  63.5880623  19.7227478
  82.2900314  44.3569870  53.4228973  83.0984192  44.5382881  53.9023476
  82.2032318  43.4041557  53.4513931  30.0331593  15.5117083   7.0875154
  29.4263210  14.9555292   7.5760293  29.9166203  16.3832645   7.4657254
  72.5752487  67.1932983  61.7630310  72.1888428  66.4083023  61.3748283
  73.2406387  67.4694901  61.1327896  52.4799004  28.5507736  54.3720436
  51.9844666  28.2218170  55.1220894  53.2956543  28.0501823  54.3856697
  58.4465752  65.9957199  35.8287430  57.7013931  66.4690704  36.1987076
  59.0116081  66.6805344  35.4709702  39.9563255  57.8122330  16.9402618
  39.5684700  58.5738258  17.3712807  40.1198158  57.1922455  17.6509762
  37.3062515  26.1573009   4.0550299  37.1623802  25.4290657   3.4507084
  37.3609619  25.7456360   4.9174509   6.4104214   8.8999128  54.7592583
   6.6078753   8.5654240  53.8844109   6.3817677   9.8505812  54.6513748
  72.8675079  58.3891716  85.3621368  73.7962952  58.4129715  85.5923843
  72.8547134  58.1088676  84.4469833  22.4008121  59.3445396  51.7787132
  21.6980801  58.9382362  52.2859802  21.9630966  60.0214806  51.2625885
  84.8039703  17.1270332   9.9966164  83.8963089  17.2025738  10.2910213
  85.0762177  18.0286808   9.8259106  38.7877808  54.3086243  34.9650993
  37.8895035  54.2922020  35.2953491  38.7087555  54.0617218  34.0436745
   5.9202342  51.7458916  31.8706226   5.3787408  51.9879951  32.6218910
   5.7941556  52.4590721  31.2447548  59.7167625  21.3739109  33.9295540
  59.0583305  21.1545334  34.5887756  60.0089417  22.2540913  34.1665154
   2.2260404  49.7654648  81.0159454   2.3540592  50.6933632  81.2130356
   1.4530386  49.7448692  80.4517822  38.0845222   3.8333073  27.9568424
  37.9042397   4.2751045  27.1270561  38.1385307   2.9055715  27.7274494
  58.7675896  13.5447426   8.9391537  59.1722107  14.1779337   8.3462105
  57.9146271  13.9247675   9.1495667  74.8346558   2.5581830   6.1592264
  75.2747040   1.7796478   6.5005035  74.1748276   2.2154536   5.5564008
  35.1832123   4.4523096  77.2534866  35.4780731   3.5529931  77.1102371
  34.9761047   4.4906054  78.1872253  69.0059052  40.1780014  70.4952087
  68.5421982  39.3880463  70.7730179  68.6580048  40.8701630  71.0574493
  51.4845390   0.3509403   5.0308795  50.9507790   1.1429203   5.0949068
  52.2430573   0.6147787   4.5100441  11.3147631  64.2891159  11.5165949
  10.9062614  63.5511475  11.9690943  12.1533718  63.9462051  11.2077599
  16.2195625  56.9280472  32.2286034  15.9659367  56.0053749  32.2044296
  16.8930874  56.9735985  32.9072227  28.1529903  57.3638725  43.1885986
  28.4288139  57.3071899  44.1034431  28.8596230  57.8419075  42.7545700
  20.2220173  30.8457355  16.3079758  21.0350952  31.3459282  16.2376690
  20.3807812  30.0565224  15.7901258  44.9169426  36.1930695  58.7337036
  44.5215950  35.4168129  58.3370209  44.2134132  36.5806694  59.2543259
  25.6987839  49.3446541  46.4123459  25.6387482  49.0970268  45.4896812
  26.6385422  49.3734627  46.5919418  19.4532471  56.2710953  52.0308342
  19.5597115  56.0003929  51.1189041  20.3454227  56.3069534  52.3757515
  80.8223953  33.5624580  54.0666542  80.5307083  32.7957497  54.5599213
  81.0016937  33.2279243  53.1879196   2.7614655  35.4548721  74.3532562
   2.1143608  35.0435638  73.7802734   2.7988317  36.3646622  74.0580978
  60.9501114  10.9730549  75.6072006  60.7195625  11.8560648  75.8959503
  61.0981674  11.0600042  74.6655273  34.2377205  53.9008408  42.7590294
  34.3674965  53.7977295  41.8162918  34.0205193  53.0214767  43.0684967
  50.1569290  64.1595688  52.3411560  49.8354568  64.2335510  51.4425926
  51.0820999  64.3985977  52.2849884  14.2383537   1.1499411  18.4670887
  13.5874796   1.8477104  18.5426788  14.6857481   1.1470339  19.3132935
  39.7545815  37.6237411   7.0159125  40.3683891  37.3733406   6.3254256
  38.9207611  37.7465858   6.5621672  15.2074385  28.0285378  75.6661148
  16.0580006  27.8326950  75.2731476  15.3589239  27.9649315  76.6091080
  22.0670567  12.6282244  13.6135759  22.2533722  11.7777386  13.2158432
  21.4884586  12.4270658  14.3490973  17.9605923  58.9885101  53.6809044
  17.1848202  59.4518051  53.3650475  18.2074776  59.4524765  54.4809113
  81.4715042  49.9100685  42.4046211  81.3899460  50.7195168  41.9002647
  81.2335663  50.1592979  43.2976494  29.6836720  17.6783237  67.0808792
  29.5805225  17.9699287  66.1750259  29.6436367  18.4830818  67.5975876
  51.0745888  57.7228050  32.4917526  50.3156815  57.8851585  31.9314575
  51.3086624  58.5855827  32.8338890  83.5982513  16.9699860  51.2958641
  84.0296326  16.1410351  51.5031776  82.9512177  17.0839310  51.9919930
  53.8638611  45.2687988  54.9244766  53.3998566  44.4890289  54.6196976
  53.8510857  45.1973572  55.8789215  53.3351059  17.9330006  29.9083691
  53.9440575  18.1130867  30.6245956  53.8912621  17.6245918  29.1929626
  56.7679710   5.8415217  46.5350800  56.0838547   6.0329189  45.8935318
  56.3803482   6.0804267  47.3770447  59.2407951  57.6364174  34.8420105
  59.0705376  58.3576431  35.4478798  58.3819542  57.2408714  34.6931229
  77.8175049  64.0068283  48.4976273  78.0859680  64.5089722  49.2670517
  77.5382996  63.1613121  48.8488808  53.0081978  42.0886612  80.2501831
  53.1584625  41.2486572  80.6838303  53.4515381  42.7284737  80.8072433
  43.8975182  67.3488541  49.6943550  44.7898674  67.4542160  50.0242653
  43.6947289  68.1875839  49.2800674  12.3713694  39.3157272  10.7506361
  11.8463383  39.0844688  11.5168562  11.9653034  38.8363113  10.0284843
  63.4142838  71.5421295  13.7737064  62.9196243  71.3967896  12.9672203
  64.0418701  70.8199768  13.8031902  36.3591919  61.2785416  70.2848892
  35.6370697  61.0282402  69.7085876  36.1251755  60.9091492  71.1363678
   9.0855064  22.0957756  81.5002213   9.0343924  21.1421299  81.4355774
   9.3393469  22.2610226  82.4082336  27.5481529  38.4065399   8.1498432
  27.3922291  38.4365692   7.2059064  28.3291016  38.9443092   8.2808275
  81.6716766  27.5562096  20.5721531  81.1553345  27.3533802  21.3522034
  81.5769424  26.7838650  20.0147133  45.6306610  33.2784767   4.0894670
  45.8580818  33.5564651   4.9767284  45.2894859  32.3905945   4.1967106
  50.1618385  40.7058449  47.7317886  50.5998726  39.9439964  47.3523903
  49.6141815  41.0445786  47.0235748  32.8400002   6.2663260  81.9487152
  32.1909065   6.8267694  81.5234909  33.6616249   6.7515721  81.8732300
  85.7019577   8.2791977  40.8173256  85.8601303   9.1127853  41.2604332
  86.3497238   7.6822009  41.1917915  85.6780014  61.2425842  39.8004112
  85.1909866  61.2027321  38.9773331  85.0083389  61.3912659  40.4679985
  19.1538048   3.6464145  66.8607025  18.7268486   4.3730392  67.3145294
  18.4611607   3.2574348  66.3266907  24.0039883  29.5836277  74.4817810
  24.4554253  30.1717243  73.8763275  24.3197994  29.8426151  75.3474731
  79.7466736  39.6149902   2.6183836  80.0171661  40.5212440   2.7659254
  79.6481781  39.2483559   3.4970815  47.6209297  23.3181534  87.5456619
  47.8883095  22.4007416  87.6013260  47.9388924  23.7100716  88.3590088
  23.1397495  22.5487499   1.0245656  22.2091103  22.7314625   1.1540252
  23.4268055  23.2055702   0.3902010  65.1996231  35.7660713  10.2360096
  66.1244507  35.5513458  10.1143103  64.9713287  36.2868881   9.4660339
  82.7696838  71.3105392  23.2367344  81.8879089  71.5952835  23.4767857
  83.3467331  71.7938080  23.8280983   2.9516296  41.2575645  67.1450272
   3.2927759  40.3666115  67.2228317   3.1118965  41.6511536  68.0027161
  85.8676224  26.6100311   1.9493001  85.0867386  26.2351589   2.3566315
  86.2887192  27.1067448   2.6508625  35.8495522  32.7218742   9.6889610
  36.1211357  32.9463005   8.7989559  34.9897461  33.1308861   9.7873230
  63.2096481  38.3225594  78.3621826  63.2441063  38.1742020  79.3071823
  62.2836914  38.2285233  78.1385803  10.8423729   4.9296784  33.9190483
  11.3701057   4.3647776  33.3545876  11.2545605   5.7907271  33.8488541
  57.4002876  69.0545425  46.1321487  57.3008194  68.1069565  46.2239227
  57.7731895  69.3381805  46.9668465  81.8088455   3.1439745  75.7431259
  82.2970810   3.8372738  75.2990646  81.5170517   3.5436022  76.5625076
  79.5290985  63.3956490  52.5370102  79.3216019  62.6525803  51.9704208
  80.3645172  63.7242050  52.2047958   1.9127419  30.3401203  77.8160019
   1.8830777  30.9616261  77.0886230   0.9950847  30.1297455  77.9888611
  83.8192825  22.1265125   7.1781240  83.6903992  22.9795265   6.7634101
  84.6204605  21.7855091   6.7805533  68.3241196  28.7005920  79.6742554
  69.1110458  28.1562634  79.7005310  67.8691711  28.5035896  80.4930573
  53.9732208  64.1662674  73.3236389  54.5154800  64.9064407  73.0509949
  53.5588341  63.8626099  72.5159836  34.7932625  48.3406868  47.2668877
  35.0673943  49.1339645  46.8066826  33.9576683  48.5747986  47.6708717
  38.2696037  17.6197071  80.4893799  38.2224503  16.7155228  80.1788025
  38.2368469  18.1487484  79.6923370  13.8782501  58.5034027  13.9265480
  13.4119749  59.0244865  14.5802212  14.6858082  58.2357483  14.3652296
  42.1699944  68.5279846  12.0799780  42.0710030  69.2030869  12.7512989
  42.0231400  67.7043686  12.5450735  65.0702438  28.6492634  60.2629929
  65.5976944  27.8747673  60.4584007  65.1847916  29.2157917  61.0259857
  22.4045963   0.7520995  50.3703156  23.0674763   1.0800391  50.9779968
  22.1115932   1.5286912  49.8935699   5.9144707  56.3542442  33.3842506
   6.7584949  56.0011787  33.1028252   5.7425284  55.9246521  34.2221756
  40.6444511  55.8198738  73.7365341  41.4815636  55.3613205  73.6643829
  40.8825417  56.7187691  73.9635315  67.4813690   3.6165287  11.9752607
  68.4201965   3.4314308  11.9992542  67.4033203   4.3861842  11.4115496
  52.9227943  18.4930687  56.9182053  53.8531036  18.2678108  56.9140205
  52.4720955  17.6505241  56.8614464   6.9999671  57.2159309  11.5216780
   7.0762134  58.1693993  11.5580063   6.1715908  57.0589943  11.0684729
  72.0258942  42.9828796  35.3122292  71.1364212  43.2054939  35.0374565
  72.4353256  42.6196594  34.5269432   3.3409922   4.6488585  25.5266361
   4.0860600   4.7006555  26.1253204   2.8985147   5.4923444  25.6213875
  67.1275787  46.6517220  17.4990292  67.1172409  47.2592545  16.7594166
  67.6782608  45.9260216  17.2052002  54.4054222  64.2198334  48.6579323
  55.2646408  63.8850365  48.4012451  53.8055115  63.4928246  48.4912224
  86.8145294   6.5888186   7.4783702  86.6231155   5.7418289   7.8811126
  85.9857635   7.0660458   7.5188680  64.0919189  13.2987947   8.9213724
  63.6784592  14.1595783   8.9871817  64.5852585  13.3320827   8.1017723
  82.6759109  21.8487759  53.3717728  83.4749985  21.4425564  53.0360985
  81.9666138  21.3208179  53.0051727  77.0692139  40.4083786   1.8874090
  77.3727188  41.2761497   1.6207932  77.8405685  39.9928131   2.2728281
  36.2390060  43.4446259  17.7211227  36.2772865  43.9783554  18.5147858
  35.3262100  43.5008354  17.4384899  40.0530510  52.7966042  37.1833878
  40.6097260  52.1155357  36.8059120  39.5911827  53.1713791  36.4334183
  60.1439438  56.0058327  58.2574959  59.9916344  55.0748329  58.0954018
  60.9986305  56.0374260  58.6873131  37.7679024  36.0033150   8.4457264
  38.6793556  36.2099609   8.2388954  37.6773758  36.2215767   9.3733034
  10.1014376  30.5706730  70.1582565  10.1196804  31.4400482  70.5583649
   9.9438877  30.7379150  69.2290421  10.0425739  41.3555412  61.0212822
   9.7053432  41.1273499  61.8875580   9.5521669  42.1388855  60.7720680
   1.8925503  16.9882526   9.5770264   1.0532169  17.1866360   9.1618214
   1.8912785  16.0362797   9.6769123  51.4084320  12.3576078  65.7508850
  50.7586441  12.6398525  66.3945770  52.0499420  11.8618155  66.2596893
  47.2280159   0.5141807  48.4122581  48.0537071   0.2448584  48.0098495
  46.5862350   0.4552985  47.7045288  51.7371826  66.2006073  41.0889511
  51.8617897  67.0502243  40.6660347  50.8397751  65.9520645  40.8673172
  44.7761879  51.2891808  73.4875793  44.5636330  51.7009811  72.6500397
  44.1501274  50.5693970  73.5662918  57.3567238  21.6284752   4.7770891
  56.6024437  21.1592102   4.4206066  58.1057358  21.2808571   4.2929668
  73.4954834  25.9350929  23.1711998  74.3394165  25.5266666  23.3640842
  73.6178894  26.8567772  23.3986835  38.5815506  45.7184525  35.6961174
  39.4219093  45.9898338  36.0654182  37.9629364  46.3861313  35.9923553
  54.6620712  56.9383163  87.9659119  54.8483086  56.3048058  87.2729340
  55.1663589  56.6264648  88.7173615   9.2589350  16.9044418  70.0999908
   9.4335413  16.1878319  70.7100906   8.7336197  17.5257034  70.6042862
  72.4988022   9.1846161  50.7707558  72.4704666   9.9760818  51.3083534
  71.6132812   8.8254719  50.8263588  16.3460541   6.5400071  13.0256691
  15.6907129   6.6993523  13.7049112  15.8695126   6.0761967  12.3371782
  29.2861671  58.2974701  54.3042412  30.0347004  58.2337761  54.8974266
  29.2500610  59.2229843  54.0626869  31.7772236  56.0431366  34.2210770
  32.3264503  56.7557259  34.5478745  32.1333351  55.8440323  33.3551826
  20.6791782  52.8218193  33.0567818  20.8744678  53.1687126  32.1862869
  19.9492607  53.3563423  33.3694077  27.3367996  21.4263535  81.6866302
  26.9819756  21.3264904  80.8032532  28.1397781  21.9332886  81.5663223
  65.9791183  20.3609638  29.9422474  65.7944031  20.3926678  30.8809223
  65.2457123  19.8711109  29.5702362  33.2261810  54.7349396  14.8282394
  33.3138313  54.5217171  15.7572632  33.9563522  55.3272057  14.6485081
  74.4319916  20.5264912  16.1348610  75.3833694  20.5649319  16.2330265
  74.1073227  21.2584496  16.6593227  43.7783089  53.7377129  37.3930969
  44.6988411  53.9997215  37.4073982  43.7691269  52.8726082  37.8026619
  67.0711365  10.7652636  29.6386890  67.0095978  10.0853882  30.3096714
  67.9697037  11.0880833  29.7065220  64.6707840   3.6754293  46.1781120
  64.4677963   2.8911262  46.6879082  65.5161362   3.9695082  46.5174332
  11.0767050  32.1591644  14.3519163  11.4608669  32.4486084  13.5243454
  10.2480040  31.7508183  14.1014404  73.4271469  49.1736298  77.9378510
  72.9283295  49.9539108  77.6958313  73.9693527  49.4550018  78.6747818
  12.4377174   5.5711498   0.9937001  11.4870939   5.6261797   0.8961459
  12.7806292   5.7949548   0.1285094   0.5797347  56.3547134  36.9893150
   1.0009261  55.4995842  36.9022255   0.1741404  56.3347626  37.8561058
  32.3162117  45.5139275  52.9349632  33.2239609  45.7793465  53.0825386
  32.3652725  44.8803940  52.2191010  15.9454460  71.1975861  23.5356903
  16.1729832  71.8806915  22.9049568  15.3564062  71.6294250  24.1543789
  61.2652931  33.4805489  71.0926132  62.0394936  33.7883415  71.5638962
  61.3255157  32.5260010  71.1306305  80.6051941  39.3089676  24.1410866
  80.4800415  39.3064842  23.1921062  80.7392883  40.2304840  24.3625774
  21.7836552  70.9792404  17.8228760  20.9173698  71.1414032  17.4493942
  22.0454445  70.1323013  17.4617805  72.1726532  57.6262436   6.3408098
  73.0847778  57.4864464   6.0864153  71.6714935  57.0544701   5.7593088
  78.6701508   1.3052608  68.4253006  78.8736877   1.2625395  67.4909668
  79.3530273   1.8657258  68.7938004   6.7760186  19.2337074  22.9723186
   7.1953201  19.7038212  22.2516155   7.4378209  19.2155838  23.6636372
  39.7110748  23.9651699  75.8604507  39.5243950  24.7506008  75.3461761
  39.6138191  24.2459431  76.7703629  61.4845963  27.6564045  34.5864754
  60.9721489  28.3961277  34.2602234  60.8499641  26.9451084  34.6732597
  25.5902386  65.6575394  38.2613220  25.4807053  64.7341995  38.4886322
  24.7722473  65.8954086  37.8248138  38.4117203  33.3437920  68.1154480
  37.8655205  33.6029892  67.3733521  38.3624649  34.0847435  68.7194366
  33.9608459  58.4990768  85.7129135  33.1426582  58.2887001  86.1629639
  34.4523201  59.0257797  86.3432007   9.2366619  60.8438797  46.9256172
   9.7379160  60.3101120  47.5421104   9.0827732  60.2658119  46.1783638
  48.6110802  17.5966873   5.6498585  48.3086700  17.9609737   6.4817686
  49.5086479  17.9169750   5.5603023  14.8502598  54.8311882  55.2578163
  14.3749304  54.1260109  55.6971512  14.4336004  54.9020805  54.3989792
   8.3576670  30.9215717  89.0565414   8.8592978  31.4020805  88.3979721
   8.2631750  31.5381641  89.7825699  56.8820877  59.0426941  45.6985016
  57.6208382  59.3844795  45.1948471  56.3256721  59.8056183  45.8552895
  21.9511871  47.2071266  71.9959335  21.7510147  47.8393555  71.3056793
  22.5745983  46.6024704  71.5934601  25.4046440  57.1616249  12.9094133
  25.5967350  56.9272041  13.8173676  24.4493923  57.2093315  12.8713255
   3.9978731   6.5843034  63.1433563   3.0475190   6.4700704  63.1402473
   4.1775451   7.0746722  63.9455338  66.3650208  41.0392838  32.4844589
  66.2685928  41.9737358  32.3007927  66.0166321  40.9319496  33.3695221
  25.1579514  57.9716606   4.9642277  25.2844181  58.1526985   5.8956051
  25.2910614  58.8171463   4.5356607  57.4044037  71.3723373  63.4104462
  57.9149208  71.5093689  62.6124306  57.9381981  71.7575531  64.1053619
   9.6786308  68.2288818  29.9670677   9.5497770  68.7839127  29.1979313
   8.8734350  68.3318100  30.4743137   7.5102129  12.1876717  80.4569473
   7.4121671  12.5409651  81.3411407   8.4527597  12.0556459  80.3549271
  27.2220268  48.0498848  70.1780090  27.5125618  47.1622276  70.3874969
  26.4253330  47.9256554  69.6621780  19.9184933  48.0185928  57.3377953
  19.0772076  48.4426384  57.5070801  19.6871128  47.1467094  57.0176239
  72.5172501  63.0923347  62.1233521  71.7081451  63.5699501  61.9403992
  72.2862854  62.4928856  62.8329659  31.0855923  45.1794357  12.5950375
  30.9312210  44.9340820  11.6827860  30.5547333  45.9652939  12.7248230
  30.2610741  32.3631287  69.4894943  30.9603634  32.7821426  69.9911499
  30.4255447  31.4251842  69.5866547   6.6212583  15.8860598   1.1569670
   6.4285526  16.4227543   1.9257683   7.4187150  15.4108629   1.3903818
  60.5165672  68.9872971  32.3993759  60.9266243  68.4967194  31.6870403
  61.1851234  69.6149445  32.6738167  17.5231972  57.6207161  34.5563965
  16.6020851  57.8525696  34.4379501  17.5676212  57.2609673  35.4423065
  29.3634338   9.3272552   3.1753614  28.4160099   9.4537230   3.2266140
  29.4691868   8.4890509   2.7254047  44.1338310  59.4962692  76.6152725
  44.9412918  59.4902191  77.1292801  44.4060135  59.7876892  75.7450867
   3.5094516  15.6719046   4.0271397   3.1154695  16.5440521   4.0463262
   2.9679699  15.1513739   4.6205006  12.4810276  63.7430649  81.5441360
  13.1116056  64.3410034  81.1427994  11.6540937  63.9348412  81.1018295
  35.4918556   3.1842606  35.3441505  34.5788307   3.3962376  35.5382729
  35.9684868   3.4293978  36.1372223  27.8872948  26.4297218   5.9290447
  28.7388115  26.2166424   5.5472760  28.0954475  26.8027802   6.7856259
  70.7776566  24.1669769  79.1622162  69.8873596  24.2650757  79.4998169
  70.9569473  23.2290554  79.2284851  46.8454704  61.8254204  69.9667282
  47.7373619  61.6567039  69.6629257  46.6959457  62.7499504  69.7689362
  55.2249794  70.7950058  62.0396729  55.9855423  70.9212875  62.6069717
  54.9132919  71.6812363  61.8561516  32.5117912  39.8444061  86.7881088
  32.3936348  40.4113998  87.5502014  33.3974915  40.0376511  86.4808273
  52.0008850   3.9121737  24.6530857  51.5608063   3.0654352  24.7279034
  52.5140762   3.9872928  25.4575863  64.5275497  51.8874168  10.2957783
  64.3594742  50.9871902  10.5743065  64.1404572  52.4275246  10.9847450
  37.4505997  40.1403542  13.4248676  38.0026245  40.5054779  12.7333584
  37.9955101  39.4703217  13.8376169  59.6377640  25.8338852  66.9676666
  60.2898445  26.5269318  67.0711441  60.1527863  25.0400276  66.8235321
  25.8297939  31.0796852   6.8668256  26.5605202  30.6553364   6.4171581
  26.2069340  31.4018936   7.6854701  42.4160652  50.5774155  65.1668930
  42.8557510  49.9702835  65.7621307  41.6437988  50.8701553  65.6507797
  47.4682236  66.0328445   3.2015328  47.0878906  66.5715714   3.8953302
  46.7137642  65.7046890   2.7123117  42.0028763  65.8625717  50.8731575
  42.6284142  66.3541946  50.3409538  41.3258400  65.5881424  50.2546577
  31.8032055  18.1542206  63.4043694  32.5581055  18.7315731  63.2902489
  32.1145058  17.2942638  63.1218834  10.9838085  18.0201569  68.3049545
  10.4033155  17.4196529  68.7725601  11.2383833  18.6677094  68.9622955
  52.0995255  10.2399912  54.6665878  52.5891380  10.1901684  55.4875832
  51.3516960   9.6571302  54.7979469  60.1303101  46.7200890  66.8509293
  59.5500488  46.7787476  66.0919266  61.0043488  46.6107254  66.4763260
  62.7249718  56.3916168  70.2066879  62.9432602  56.2747345  69.2820663
  61.9945488  55.7917786  70.3580246  41.3268852  63.5147400  25.2329788
  41.1586723  62.6761551  25.6627579  42.0532837  63.8954086  25.7266064
  40.5421867  33.1220055  12.1676273  40.7326698  33.8047447  12.8109112
  39.5893517  33.1369057  12.0775671   3.2295878  51.3246078  83.8350983
   3.9245417  51.9828033  83.8279495   2.7877047  51.4337082  82.9930420
   3.4871237   6.4799805  13.8077765   4.2717366   6.1274462  14.2276974
   3.3341448   7.3154907  14.2490835  69.1364212  16.6045265   6.8535800
  68.3722458  16.1477375   6.5019946  69.8724442  16.0238838   6.6602926
  75.4784927  15.5604544  48.2028008  74.9063263  16.1076927  48.7407494
  74.8897781  15.1461277  47.5719452  62.4714584  47.7727051  18.1891499
  61.7835236  47.9228439  18.8375607  63.2308464  48.2437515  18.5321884
  46.7833061  41.6090012  53.1281281  46.0321388  41.0323563  52.9886169
  46.9629364  41.5456276  54.0661850  17.5222607   4.6448646  63.4732895
  17.3611469   4.0542593  64.2091293  17.3707638   4.1065164  62.6964607
  56.7930870  66.0147400  50.1297646  56.1647530  65.2941742  50.1767960
  57.5348701  65.7205734  50.6584015  12.0064297  55.5040474   0.9008701
  11.2493153  55.8680077   1.3597188  12.7548285  55.9842033   1.2552427
  51.2609787  32.7818489  65.6956863  50.8959961  33.0793495  66.5290604
  50.9757347  33.4391594  65.0610123  52.3725090  13.7818060  55.5643730
  52.7133522  13.2290678  54.8611374  51.4484634  13.5412683  55.6315727
  61.2585983  26.5436230  26.7251663  61.7389145  26.4338741  27.5458279
  60.6704712  25.7892761  26.6891422  72.3019485  43.6514969   6.8943739
  72.7303925  43.7339516   6.0423970  72.0266571  44.5422363   7.1112347
  24.6344910  25.0545864  53.2900429  25.4514484  25.5478706  53.2160110
  24.0549965  25.6252975  53.7947273  16.2422886  54.1924820  81.4850693
  17.0980473  54.0285072  81.8813324  16.4357109  54.3807831  80.5667267
   7.2575183   1.2176410  22.5844898   6.8970327   1.9675122  22.1112289
   6.6260915   1.0498706  23.2840519  26.8643990  62.0857849   2.9270916
  27.3036461  61.4991341   2.3113518  27.4624882  62.8273888   3.0195124
  45.0139580  38.6610527   5.4546499  44.8702621  37.7818413   5.1045480
  44.1425247  39.0566101   5.4737921  58.8919487  11.1502228  20.0933857
  59.6201706  10.6857033  19.6808949  58.7517509  11.9171333  19.5380268
   1.2938269  32.3183212  17.2588158   0.5348331  32.8805313  17.4139957
   0.9237468  31.5068493  16.9112778  84.9231262  15.5673494  80.7425690
  84.4105530  14.7624846  80.6671524  85.7235641  15.3886824  80.2490082
  86.8466034  55.5210342  29.7289505  86.3320312  56.2801971  29.4548740
  86.8049622  55.5360260  30.6851273  15.8434267  15.8645754  67.7178879
  15.0037069  16.3232403  67.6908569  15.8365831  15.3063688  66.9403381
  15.8487387   5.1348701  55.7199593  15.8577881   4.7130170  54.8607788
  15.4396200   5.9861569  55.5645103  60.3501053  60.5763741  33.3511772
  61.2815399  60.7484398  33.2131310  60.1122208  61.1289864  34.0956650
  74.0959396  13.7033033   5.5384808  73.8731461  13.0289812   6.1802635
  73.6444473  13.4318419   4.7392969   6.6171565  18.9660778  28.5563087
   7.4547381  19.2706223  28.9055099   6.3910122  19.6075249  27.8827839
  43.6499214  21.6660328  61.3015366  43.0968971  21.9233093  62.0392380
  43.2247391  22.0539875  60.5367203  67.9588318  37.6957359  71.0243835
  67.6347351  37.6760941  70.1239395  67.1826935  37.8772087  71.5543976
  13.3163128  28.8954220  69.0018845  14.1492538  29.2462788  68.6867065
  13.2061653  28.0737076  68.5234680   8.1265907  14.2973700  82.6128540
   8.4152184  13.6371946  83.2430038   7.2205505  14.4835882  82.8591156
  53.0055122  70.8959961  63.3920174  52.5028076  70.4461975  62.7128983
  53.8970299  70.9325256  63.0454788   9.7291336  50.2202873  29.6199341
  10.2420559  49.7895737  28.9361000   9.4561672  49.5084877  30.1987782
  69.6937485  32.6526604  31.8526936  70.6507339  32.6330452  31.8585968
  69.4703369  33.5322189  32.1571503  54.0449219  68.9845505  52.6902733
  54.3679008  68.1213913  52.9488831  54.7482681  69.3532181  52.1558380
  57.7579498  69.3926849  83.9735947  57.9956512  70.1950073  83.5088196
  57.0735207  69.6640472  84.5852737  47.4971848  51.5173950  79.5804062
  47.9590492  52.1613045  79.0434799  46.6478081  51.4130096  79.1515732
  56.1647758  57.7255058  75.6966171  55.4772110  57.4395447  76.2980347
  55.7031670  58.2326889  75.0288467  36.9853096   6.9022679  63.4640312
  36.2988167   6.2392445  63.3908310  37.1355476   7.1918421  62.5641365
  74.7545166  42.5513878  19.1903667  74.9377899  43.3119774  19.7418633
  75.1538391  42.7651749  18.3471165   4.8027754  43.6804657  11.9999466
   5.3658819  43.6127968  12.7710266   4.0384564  44.1701012  12.3037596
  26.8094769  66.0095062  67.7544022  27.7342911  66.1116714  67.5296478
  26.8076611  65.8628387  68.7003021  55.6589203  38.8340912  51.2543526
  56.0874367  38.0038338  51.4624023  56.0256271  39.4567833  51.8820572
  72.3031387  33.5562210  71.3444595  71.6341248  33.2629013  71.9630127
  73.1015091  33.6218147  71.8684235  74.4441376  54.2309723   0.4999780
  74.3982391  53.4794846   1.0910705  74.5247040  53.8450546  -0.3722649
   9.2825041  45.5520020  84.0862579   9.6332903  45.4474716  83.2018051
   8.6497326  46.2661667  84.0101013  76.8672485  43.8435059  86.0065002
  77.3685684  43.5596085  85.2420959  76.2693481  43.1173820  86.1839752
   1.1322730  30.5848236  45.5480728   1.6974152  30.5635147  46.3203392
   1.7222497  30.4108543  44.8146629   6.5286636  53.5939445  35.2793732
   6.7633882  54.1933479  35.9877853   7.3121614  53.5526962  34.7310448
  70.2730103  41.1911392  54.9196205  71.1631088  40.9135857  55.1362343
  70.3419571  42.1369896  54.7898445  54.2433891  67.7134857  64.7849121
  54.7603378  66.9156876  64.8967743  54.4779701  68.0305634  63.9127464
  32.6020279  35.6553650  64.8686676  32.3626175  35.8634758  63.9655571
  33.2272530  34.9347763  64.7907333  12.2487965  43.6982956  78.0009003
  12.2958689  44.2829361  78.7573471  13.0235081  43.1416740  78.0798111
  18.9407787   0.4343941  85.8462753  18.0309067   0.1388723  85.8784103
  19.3325882  -0.0734298  85.1357574  67.0666504  55.3129501  24.1984997
  66.5251160  55.8483315  24.7784519  67.1474380  54.4743195  24.6528149
  46.1730766  71.1554413  86.8793564  46.2733078  71.4715576  87.7772751
  47.0274429  70.7840729  86.6594009  72.2385788  63.0265274   1.6097246
  72.7400742  63.1221313   2.4194136  72.7817307  62.4651794   1.0564516
  31.9032001   7.0058222  60.7158966  31.1454182   6.7600026  61.2465286
  32.5247498   7.3757524  61.3428383  84.1529846  46.9657974  64.8220596
  83.8016357  46.0757446  64.7976837  84.7089844  47.0251732  64.0451660
  31.2795372  52.4857407  84.7253876  31.8868904  53.2246552  84.7621841
  31.8438454  51.7132339  84.6934204  84.4204636   8.0818739  84.6373444
  84.1544952   8.1855907  83.7237091  83.5985107   8.0845528  85.1278687
  86.0100784   1.2652676  67.9174652  85.9705353   0.9295236  67.0219498
  85.6189346   0.5729470  68.4503098  84.7210846  25.8254776   9.9847584
  84.3081284  25.9571705  10.8381948  84.0962601  26.1894989   9.3576136
  30.2632580  14.9706059  87.5031204  29.5890102  15.0170212  88.1809616
  29.9195824  14.3444262  86.8659210  25.6666546  69.0293503  59.6605759
  26.0652542  69.7984543  60.0677948  25.6256828  69.2457123  58.7290497
  76.6013870  45.0688019   5.2928019  75.7497177  45.2992783   5.6639824
  76.4699936  45.1137848   4.3457313  44.3412628  29.6781979   6.3606200
  44.4917488  30.3911266   6.9813614  44.8590469  29.9168034   5.5917234
  51.3991280   2.6604974  19.9659481  51.2321739   1.8627251  19.4640331
  50.9724922   3.3538818  19.4625263  43.9197693   1.1840328  23.7071075
  44.8711395   1.0796375  23.6920624  43.6220741   0.7849808  22.8895702
  73.1289673  11.7720270  24.2814007  72.3780746  12.1730452  23.8437061
  72.9813690  11.9398289  25.2121468   7.0750480  11.2612972  51.7633972
   6.9874573  10.3491669  51.4866714   6.3671217  11.3890457  52.3948669
  14.3068380  45.8538933  54.5516396  13.3963137  45.8099632  54.2596664
  14.7371025  45.1249313  54.1047401  16.7133083  62.4678383  36.9385719
  17.0373554  61.6015244  37.1849976  17.4840431  62.9251099  36.6022644
  33.6914062  68.4657593  55.9376907  34.1885147  68.0220795  56.6249046
  33.5377388  69.3451767  56.2830086  66.6484299  50.1430969  22.2261696
  66.9420929  49.2449684  22.0733242  65.6973572  50.0733223  22.3088055
  74.1865158  11.1616364  36.1930466  73.5695496  10.4967461  35.8872604
  74.2019730  11.0546932  37.1441307   5.0827508  11.4070034  65.3493500
   5.2437892  12.2985468  65.6582947   4.2027769  11.4388609  64.9740295
   0.6221619  32.1505547  61.2229958   1.4908493  31.7528019  61.1646385
   0.7055860  32.8077736  61.9138947  50.3902130  64.8566513  86.4745941
  49.8650055  65.1543198  87.2174149  50.9980888  64.2201233  86.8508377
  32.8662910  41.1435051  59.1849747  33.0012550  41.9923744  59.6062050
  33.7461433  40.8523102  58.9456139  60.8301544  67.1802826   0.3225499
  61.4285851  66.5324554  -0.0495231  61.3476830  67.6277542   0.9919989
  68.9117508  47.4568024  34.5691948  69.2904358  46.7380180  35.0753365
  68.2359314  47.8218842  35.1403389  59.6941299  58.0475807   0.8490864
  60.1980743  58.7101173   1.3216497  60.3388748  57.3817635   0.6098635
  70.6535034  68.0363464  30.5106754  70.0927048  68.4854431  29.8781776
  71.4722824  67.8838348  30.0388927  66.8590317  53.2707253   1.6786155
  67.0005722  53.7456589   0.8596932  67.2296829  53.8401375   2.3528674
  18.1388969  63.2579956  49.2738686  18.0677166  62.9231110  50.1677475
  17.2444630  63.2266006  48.9344025  35.0949135  19.0495682  77.8329086
  34.4881783  19.3342018  78.5163498  34.6799011  19.3234062  77.0149765
  25.9350433  60.8412399  22.8184986  25.0462933  60.5778732  22.5797615
  26.4615650  60.6350517  22.0461674  78.1252136   4.2183270  19.7259693
  77.7448502   4.9408288  20.2255173  79.0646973   4.4014206  19.7175579
  71.1482315  18.0753212  68.1542130  71.0100937  18.7838383  68.7828293
  71.8675385  17.5636120  68.5243149  80.6743774  54.5754242  80.7482147
  79.9367981  54.7849350  80.1752243  80.2808456  54.1042442  81.4826202
  71.1126480  14.6461992   6.8880720  71.1794052  13.8887081   6.3067098
  71.9954758  14.7554016   7.2415171  49.8219490  46.9319420  31.2849503
  50.5112686  47.4202461  30.8348122  49.3974876  46.4241524  30.5934181
  77.9520798  68.9464722  21.6643581  78.8467636  68.6631851  21.8528233
  77.6799545  69.4194946  22.4507618  84.0045929  32.8265991  32.5383720
  83.2276459  32.5463600  33.0221596  83.6577682  33.2869453  31.7741547
  27.9726524  71.2836914  51.4862022  28.6814938  70.6695328  51.2949371
  28.2778511  71.7708893  52.2515297  25.1181164  50.3123779  77.1652145
  26.0302906  50.5544662  77.3250961  25.1176205  49.3553505  77.1832047
  83.7814026  37.2905846  57.6810684  84.0896378  36.3942680  57.5475159
  82.8746643  37.1913033  57.9712524  30.8772850  59.7713966  76.5431519
  31.3822994  59.9401436  77.3385849  31.1093616  58.8758163  76.2975769
  67.2810135  53.7618980  87.9226151  66.9612885  54.5177498  87.4299698
  66.5103378  53.4351921  88.3868866  70.8803482   2.5971665  40.2331390
  71.4474640   2.5183160  41.0002060  71.4225540   3.0375123  39.5786591
  54.3933830  60.5894699  13.5930376  54.5360680  59.6495972  13.4811621
  55.0153389  60.9993744  12.9918919  31.3041859  32.3938904  11.5560865
  31.3136177  31.5087223  11.1919155  32.1810226  32.7348404  11.3796082
  65.8842850   2.6217296  62.4642258  66.2092667   2.3209548  61.6156082
  64.9434128   2.7386394  62.3326302  60.1354294  19.9779110  26.9844513
  59.4056816  19.8559723  26.3771362  60.1064301  20.9076786  27.2101154
  49.3795395   4.2600703  31.1086941  49.3262062   4.6664143  30.2436676
  49.9022942   4.8707361  31.6283550  51.0015373  67.5587692  67.6632767
  51.1769981  67.5113678  66.7234879  51.7789803  67.1778564  68.0715866
   8.9063921  15.6392374  77.5362091   9.6255894  15.0460205  77.3192291
   9.2144232  16.1176014  78.3059616  61.3911972  32.4218025  83.9631577
  60.4476852  32.4837570  83.8142319  61.6312447  33.2705956  84.3348618
  28.8947353  54.5234528  15.7252522  28.1283302  54.2505798  15.2208748
  28.5313568  54.9322128  16.5108089  75.5754852  10.9045715   2.1320651
  75.7816772  10.1677580   1.5568919  76.4288940  11.2463903   2.3987057
  76.5289993  33.8271408  34.2131386  76.0156784  34.0278282  34.9957352
  76.5213470  34.6394577  33.7068634  77.4877319  15.2065363  32.2782822
  77.8873367  15.1672974  31.4093685  77.8631134  14.4620094  32.7483864
  44.4599342   4.6584411   9.7400560  44.9476852   5.3670273   9.3202534
  45.1329727   4.0400171  10.0243111  18.3804531  24.3460541  72.4586258
  18.9907570  24.6816864  71.8020325  17.5140533  24.5529423  72.1082306
  86.5305634  43.9637566  76.1382446  85.9128571  43.5209503  75.5563507
  87.3061829  44.1108475  75.5969467  44.5419540  27.6714039  86.4488907
  43.9370041  27.3979816  85.7593155  44.9909515  26.8663120  86.7066879
  52.1456070  25.1724930  20.6513519  52.4006577  25.5134907  21.5086155
  51.1973495  25.2981567  20.6160564  86.1195526  21.3494606   5.9207234
  86.8231964  20.8969765   5.4555521  86.5443954  22.1110077   6.3154263
  27.3327675  25.3872547  67.8071518  26.6456814  25.1377506  68.4251251
  26.8660622  25.5734806  66.9924469  58.9349937   8.3764448  25.1213303
  58.1934433   8.7276220  25.6142864  58.6745415   8.4611092  24.2041454
  20.8909950  54.4205208  41.2852783  21.1029015  54.5158195  40.3567047
  21.1758556  53.5337906  41.5061760  64.3260193  33.6022873  69.0489502
  64.9113846  33.2836189  69.7359924  63.6863594  32.8994942  68.9342804
  21.5982666  67.2416687  21.3853588  21.7199211  66.6390381  22.1190319
  20.6810894  67.1316071  21.1345539  41.0949783   1.5681518  73.5033112
  41.0328140   2.4107299  73.9532318  40.8480148   0.9236766  74.1665573
  48.3502464  38.3927650  15.6933832  49.2914848  38.5666161  15.6846848
  47.9674835  39.1669922  16.1060562   2.7118044  51.5149193  57.8920631
   2.4793117  52.3824501  57.5610542   2.2488065  51.4451141  58.7269249
  40.2433319  38.1354446  21.6267529  40.4242821  37.6237373  20.8383083
  40.5446243  37.5810051  22.3465118   2.9299395  11.6498566  61.0162239
   2.1649699  11.6257620  60.4413567   2.8995194  10.8188791  61.4903412
  20.4316711  58.9848099  58.1105423  20.4026947  59.1047211  57.1613235
  21.3115425  59.2666321  58.3608093  26.1804714   7.6658435  20.3593826
  25.9395409   6.9396558  20.9345665  26.1713257   8.4353905  20.9285450
  35.0129051   5.4387517  73.5317535  35.0594215   4.8179145  72.8046875
  34.6987267   4.9184732  74.2712402  35.9320297  65.2710800   2.6175137
  36.1373901  65.0018616   3.5128233  36.7252808  65.0727692   2.1198616
  41.2199402  33.1528435  39.7131424  41.8152199  32.8534126  39.0259590
  41.2065887  32.4361458  40.3474884  13.4295778  58.5369263  64.3276291
  12.7969790  58.9483795  63.7387695  14.0952673  59.2094765  64.4717484
   0.9897867  25.0724068   0.6349541   0.5833740  24.2180500   0.4895812
   0.3933164  25.5227261   1.2330079   9.1658783   5.8080454  76.2410507
   8.3743029   5.6344504  76.7504654   9.5980968   6.5240526  76.7066193
  56.2063713  67.6735687  39.1798096  55.7932816  68.3182755  38.6054039
  56.4812164  68.1768875  39.9462051  24.5570679  24.2854443   8.7198410
  23.7805195  23.8331375   8.3902607  25.2546940  23.6320667   8.6684008
   6.5990062  25.7538013  21.9691410   6.3449473  26.3358059  21.2529297
   7.5554304  25.7356014  21.9351845  62.7001534  46.5314751  88.2367477
  62.0354919  45.8864174  87.9951782  62.5456657  46.6978340  89.1666336
  11.3116417  67.1303101  41.7457237  11.5767469  66.2129288  41.8117752
  12.1348782  67.6125641  41.6686401  60.6254654  37.7766457  71.9635773
  60.6426773  37.8268089  71.0078430  60.0885925  37.0072517  72.1534042
  54.9887810  55.3015900  85.8652420  54.1415367  55.1721764  85.4390259
  55.4613419  54.4833603  85.7122269  14.8056650  40.3656425  32.6135254
  15.2309494  41.2044716  32.4353790  15.5281658  39.7645607  32.7949791
  41.6336594  16.2539482  69.6792526  41.1116066  15.7017612  70.2613068
  40.9876556  16.7532043  69.1795959  19.1236935  54.6987457  34.2494545
  18.1776543  54.5536919  34.2636223  19.2451954  55.4273834  33.6407166
  51.4897537  45.1351471  88.6264725  50.5933838  45.1735840  88.9600525
  51.4090881  44.7132874  87.7710495   6.1732450  41.7495193  43.1271782
   5.5648861  41.2390823  43.6615791   6.7475529  42.1783791  43.7615891
  24.6962872  42.6384048  54.6292801  24.1674366  41.8436623  54.5590134
  24.4451523  43.1613083  53.8678780  56.9682121  46.6960297  81.4397354
  56.1645622  47.1240654  81.1445007  57.4241905  47.3669777  81.9478149
   1.0749348  40.1237259   5.5247917   1.6838171  40.8047981   5.8105159
   1.5801610  39.5942650   4.9078269  25.6682034  47.5950928  22.4957104
  26.5585613  47.3858871  22.7780666  25.1687260  47.6634293  23.3093967
  58.3049774  24.1815834  62.1304474  58.5926437  24.2637978  63.0396881
  57.6816826  24.8981018  62.0107155  69.2160339   4.9483662  57.5120468
  69.7154922   4.2733369  57.0525780  69.3504257   5.7410250  56.9925613
  24.7031593   0.3281195  70.9009476  24.7057972   1.0639518  70.2887573
  25.0883541  -0.3957183  70.4070663  83.0309296  50.3210373  68.0746002
  83.2790680  50.9547806  67.4015274  83.3492661  49.4817123  67.7423019
  41.5710258  41.0571632  58.3020706  42.3325500  40.6101265  57.9326515
  41.9217300  41.8739204  58.6572418  22.5727806  30.8450432  71.2757339
  23.3902225  31.3101482  71.4537811  22.7915630  30.2383747  70.5684052
   3.3788550  43.3150063  37.9972420   3.5897474  42.6470909  37.3448257
   4.1028066  43.2763367  38.6222496   1.4641685  41.1649818  78.3808975
   1.0110347  41.3180695  79.2100372   2.3891168  41.1075554  78.6204910
  75.3994141  14.0131035  56.2068634  74.9979630  14.7919350  55.8215256
  75.3967056  14.1833763  57.1487923  44.0254707  46.9824257  59.6887894
  43.0867920  46.9448891  59.5052032  44.1878166  46.2323532  60.2608604
  61.4794960  55.1536751  76.5787964  61.4446716  56.1102371  76.5818405
  61.2128830  54.9014893  77.4628525   4.7402048  32.1760826  45.2774162
   4.6669936  32.3736191  46.2111473   4.9843450  31.2510509  45.2467232
  71.8485031  33.7312431  34.9494972  71.1284485  33.3978500  35.4848480
  71.5425949  34.5841560  34.6409607  41.6319008   5.2388415  82.2343979
  41.3205338   4.5243683  81.6786880  41.7182808   5.9842653  81.6401596
  12.0048294  17.8479614  25.4281616  12.1224937  17.2464619  24.6929169
  11.5338259  17.3346157  26.0845642  35.2020416  60.4281006  77.6440048
  35.2104874  61.3234711  77.3056641  34.8453331  59.9043274  76.9266052
   9.9647417  47.6507645  59.2518082   9.8661146  47.3881531  58.3366356
  10.2778387  46.8621597  59.6948700  67.7099991  40.7963600  41.1782608
  68.4347687  40.2302856  40.9127350  67.0971298  40.2091293  41.6207314
  36.5625801  30.1501789  66.9767990  36.3255920  31.0775547  66.9703979
  37.5126610  30.1449509  66.8603973  19.0690899  16.2353210   9.2344217
  19.5483685  16.9735413   8.8581858  18.1624393  16.3737698   8.9604664
  67.9860687  69.1777573  14.4911747  68.6706238  69.8122177  14.2788382
  68.2044067  68.8759308  15.3729124  31.9465733  65.2438583   8.3494596
  32.5194511  64.5483932   8.0263939  31.1377792  65.1401596   7.8481317
  11.1849756  42.4070740  64.3897247  10.4685564  42.6567307  63.8060799
  11.9682493  42.4551353  63.8416367  64.9682236   9.7428961  63.7280502
  65.3662338   8.8830957  63.8643036  65.1830368  10.2345943  64.5207138
  54.7014008   4.7151694  86.4311066  53.7906914   4.5696406  86.6873550
  54.7110786   4.5653772  85.4857483  23.8440857  64.7984924  78.3906860
  23.4709435  65.0935669  79.2213058  23.9701233  65.6019287  77.8858795
  38.4894104   7.9383497  79.2898254  39.0695648   8.4338417  79.8678741
  38.1683960   8.5848885  78.6612015  52.5780869  39.6256409  82.4995117
  52.5642014  38.7223816  82.8160019  53.4560471  39.9410515  82.7138290
  25.6116104  58.2010689   7.7995043  26.5531406  58.3701668   7.7654696
  25.3645191  58.4027252   8.7020082  33.2406731  19.9716663  82.7974854
  32.3352776  19.9894009  82.4873581  33.1891670  20.2735844  83.7043610
  68.9776230  27.2731514  27.7779083  69.7965393  27.5406246  28.1951180
  68.3177261  27.3642445  28.4652729   5.8166485  65.7851562  70.6795654
   6.7510958  65.5802612  70.6470490   5.7754316  66.6520157  71.0834122
  17.0895767  10.1236258  74.0839386  17.7539730  10.5162678  74.6501846
  16.2929344  10.1224623  74.6145859  25.6340485  26.6183491  66.0060730
  25.4679489  27.5464001  65.8406601  24.7633495  26.2228966  66.0476913
  62.4566116  43.1225510  19.8644695  62.3665047  43.7909889  19.1852779
  61.8211823  42.4486198  19.6230602  16.6859493  71.1496735  78.3351059
  17.1191216  71.8920746  78.7563400  17.3849659  70.7050934  77.8555679
   1.1757538  62.2334633  81.4247513   0.4921873  61.5867882  81.2493057
   1.7883964  62.1382484  80.6954803  39.3260384  63.2641144   7.2766199
  39.7441940  62.5679131   6.7699838  39.4297295  62.9921188   8.1884851
   8.7668400   4.7486691  72.3865128   9.1221704   3.9183671  72.0693893
   8.4918795   5.2097917  71.5940552  78.2291946  21.4671307  19.1393147
  78.3670197  21.9178753  19.9724216  78.1789627  20.5404587  19.3738060
   9.4409447  70.0563431  61.8853607   9.4535894  70.7225723  62.5725365
  10.0363903  69.3762207  62.2001724   5.8550797  40.1721230  31.7488422
   5.1599393  39.5208244  31.8427620   5.4492073  40.8865089  31.2577667
  46.3246613  57.9715500  36.3886719  46.5456924  57.0459023  36.4914055
  46.2163467  58.0886116  35.4448547  28.5194035   6.5495625  27.7371140
  28.4298935   6.6623888  28.6834164  29.1735649   7.1990452  27.4792843
  74.5832672   7.8786125  31.0492706  75.0410614   7.6831050  30.2316952
  75.0530319   7.3741136  31.7133732  23.4028072  19.0452671  10.4730730
  24.2611656  19.1061592  10.0538530  23.1742764  19.9506454  10.6835337
  33.2903252  60.8042793  28.5846310  34.0505257  60.9347610  28.0177975
  33.3300133  61.5286636  29.2090683  18.5021267  54.3291206  13.7606430
  18.0387096  54.8415871  13.0981808  18.1529655  54.6438789  14.5944567
  67.6612930  57.4474754  41.3769760  67.8575745  56.8908310  40.6234207
  68.3240433  57.2134056  42.0267525   4.9079738  32.9621887  35.0749512
   4.5929732  33.7625160  34.6548500   5.0671673  32.3578224  34.3499489
   5.2915635   6.9059920  74.7608185   4.3994102   6.8237209  74.4238815
   5.6153092   6.0062251  74.8037186  62.3109856   6.9086704  80.6294937
  62.5617523   6.6289082  79.7491074  61.8504715   6.1548996  80.9982605
  52.2126999  64.6743469  25.5866089  51.4746017  64.2679291  26.0407810
  52.7579803  65.0314941  26.2875690  50.0398560  57.0658607  87.3064194
  49.9059372  56.1430855  87.0901337  50.4315033  57.0527840  88.1797256
  27.2946243  36.7983742  81.1292953  27.8641357  36.0295181  81.1019821
  27.7542267  37.4555588  80.6066971  82.5736771  46.8677177  39.0120621
  83.3464584  46.3227081  38.8637161  82.7359543  47.6584816  38.4976845
  81.4359512   6.0371828  51.2296562  81.4406433   5.6138463  52.0881386
  80.5751114   6.4517088  51.1717186  23.2629452   1.7261744  24.4474392
  22.6806602   1.9990298  23.7384090  23.5600033   0.8531578  24.1908665
   5.1985021  35.7434807  86.4472504   5.2194381  35.8588867  87.3972397
   4.3465629  36.0904198  86.1825485  20.3978844  64.1431503   3.7027917
  20.9701672  64.1880035   2.9368212  20.9883442  64.2452240   4.4492302
  43.8299141  52.4393196  58.8584633  44.2252579  52.1671524  58.0302963
  43.3889503  51.6541023  59.1828423  78.4659042  26.1250801   4.4375458
  78.4655914  25.2270050   4.1063457  77.6388397  26.2054310   4.9126611
   3.4756556  43.9812775   4.2315874   4.2201061  43.6665878   3.7187562
   3.1640184  43.2075119   4.7010560  22.8204823  53.3552666  19.7057400
  22.8538857  53.2451897  20.6560020  22.7250156  52.4659462  19.3648186
  70.5865860  33.6512604  44.7686348  70.4801865  33.6095276  45.7189865
  71.4211731  33.2133064  44.6016045  86.1904984  14.1856756  10.4799938
  85.6041260  14.6763372  11.0558872  86.7177505  14.8569422  10.0468292
   0.1362053  23.3546867  83.1227722   1.0045662  23.4698505  83.5086746
  -0.3097204  24.1861916  83.2839661  56.1150398  51.1847839  12.6437864
  56.5462494  50.6716118  11.9604530  55.8828545  52.0081711  12.2144213
  31.8202839   6.9128304   7.6740389  31.3704262   6.9394336   8.5185223
  31.1215324   6.7741694   7.0347013  73.1143417  32.1849213  15.5744419
  72.7607117  33.0454063  15.3491879  73.2482452  31.7527103  14.7309399
  73.7841110  44.2864799  66.5346298  74.7191772  44.4773598  66.4608231
  73.4488983  44.9574661  67.1293106   1.7415872  10.3316746  47.3703918
   2.1684093   9.7420607  47.9920120   0.8281296  10.0459003  47.3577271
  82.0100632  43.8882256  26.7055569  81.1767578  44.2846489  26.9598789
  82.4846420  44.5916595  26.2626209   9.7139034   9.1776552  21.0774727
   9.6333723  10.1269102  20.9844017  10.6536283   9.0256929  21.1777515
  33.9413109  48.8386269  64.0399628  33.0126610  48.9368057  64.2501984
  34.2868958  49.7310600  64.0592270  51.9997177   7.0419006  80.6208649
  52.1412086   6.0960674  80.6609955  52.8361092   7.4208798  80.8911591
  29.0689697  61.4679070  39.5500069  29.8849010  61.1326370  39.9216003
  28.4912586  60.7055626  39.5137329  21.4838791  70.7381287  30.7884350
  21.5471687  70.7304840  31.7435093  21.1409817  71.6066895  30.5780659
  34.0809746   4.5258427  58.9164200  33.2081070   4.6831794  58.5564537
  34.5597572   5.3371902  58.7469635  64.8527679  56.6938477  77.2848587
  64.5244827  57.5321465  77.6099930  64.6796188  56.0768013  77.9958420
  57.2351112  69.2941818  80.5846176  57.8030434  69.8018112  81.1642685
  57.4125252  68.3819962  80.8141251   2.0737770   0.0160052  47.8268127
   2.9020791   0.4399312  48.0513878   1.5188220   0.1527633  48.5946388
  78.2080765  64.5220413  13.2187500  78.2575684  63.9628601  13.9940567
  77.7014694  64.0114822  12.5871525  10.8291664  50.6911125  86.9602737
  10.0482559  51.2311516  86.8387375  10.8125010  50.0772400  86.2260361
  86.1210785  68.3604126  45.4535942  86.2262192  67.7370224  46.1723137
  85.5629959  67.9062424  44.8223228  78.4666214  43.5749092  17.4307861
  77.5912170  43.9579964  17.3746338  78.3714523  42.8494453  18.0479393
  41.2458076  62.1927643  34.3367729  42.0123634  62.5367279  33.8781700
  41.3120575  62.5560303  35.2198792  61.3245697  63.2979393  27.4748287
  61.5937958  63.7343330  28.2831039  61.7906303  63.7669678  26.7827110
   4.3385668  38.2120056  12.6497059   3.4488380  38.5213051  12.8198481
   4.2631588  37.2578087  12.6425323   9.4085627  69.0514221  79.4482040
  10.1492147  69.6571960  79.4217072   8.7008543  69.5558014  79.8494339
  28.9652481  10.9879770  14.4869986  29.2109337  10.6042099  13.6452188
  28.4790363  11.7796307  14.2565279  43.0797424  20.8954735  83.9604645
  43.9006958  20.8621368  84.4515381  42.5018997  21.4386158  84.4964981
  32.9532394  68.1966324  12.4528828  33.4043007  68.0693665  13.2874956
  33.5905762  68.6526718  11.9032850  48.6047440  45.6527710  66.8904343
  48.7937889  44.7766533  66.5544128  48.2949448  45.5049019  67.7839661
  46.0094795  31.8259449  10.5026722  45.4118271  31.0827579  10.4207058
  45.5347977  32.4564133  11.0443535  13.2848978  22.8467293   8.5615921
  12.6246986  23.5050755   8.7782650  12.8917294  22.3374748   7.8528533
  41.1496010  39.3961906  49.3144646  41.1138916  38.7628632  50.0312996
  42.0595665  39.6929092  49.3021240  59.4600716  61.4377518  47.5059090
  59.2109833  60.5749207  47.8371315  59.4669724  61.3361053  46.5541458
   0.8813867  26.7178135  40.4598656  -0.0514498  26.6967525  40.6734200
   1.2799908  27.2119637  41.1762199  15.8544197  52.2899437  78.6038589
  16.0562382  52.1368713  77.6807861  16.3783703  53.0554619  78.8398361
  85.0327072  47.4629402  79.8082275  85.2786713  47.1925812  78.9235611
  84.2678223  48.0246468  79.6830521  81.6519394   9.7214804  60.0534668
  82.0964508  10.5547581  59.8976212  81.2227173   9.8339443  60.9016151
  19.3730087  50.1434898  39.2637405  19.1815243  50.6445580  38.4709625
  19.1562443  49.2398643  39.0341530  24.4944839   8.8504267  11.4742041
  25.0586376   8.8035774  10.7023439  24.5932102   7.9964762  11.8952198
   0.4224642  27.3225155  12.8124399  -0.4505413  26.9762726  12.9973993
   0.2672817  28.0620613  12.2248850   7.3387456  41.1415100   4.6067266
   6.4045544  40.9329987   4.6131191   7.4062338  41.9540215   5.1082249
  25.6926956  56.2338066  88.3015747  25.7916336  56.3996239  89.2390976
  26.5839996  56.0741653  87.9912109  82.2835846  64.7015610  69.2545624
  82.8003082  65.1775208  69.9047089  81.5522995  64.3348999  69.7515717
  23.9492226   6.1317825  79.9684906  23.6120739   5.8234854  79.1273499
  24.8794365   5.9068017  79.9506607  19.9588795  57.8825073  85.2449875
  19.5488129  57.0221825  85.1560059  20.1298199  58.1605797  84.3451614
   7.9973779  68.4969788  20.9440594   7.1208768  68.5569916  21.3240280
   8.1374798  69.3482666  20.5294266  48.7315712  14.4000082   2.6658385
  49.5655098  14.7422247   2.3438716  48.1758118  15.1735601   2.7606091
  80.2423553  53.8737679  73.1870422  80.4843445  54.6662560  73.6662445
  81.0581055  53.3779602  73.1166306  14.7649918  11.7374077  82.1840973
  14.7005348  10.7986422  82.3595810  15.1073694  12.1100016  82.9966125
  13.3489771  54.7516556  84.4930801  12.9146948  53.9405632  84.7571945
  12.8564110  55.4423904  84.9363556   9.9911222  51.3440323  72.0540619
  10.1079168  50.5831146  72.6229172   9.0980911  51.6400719  72.2303848
  38.3191719  65.1750946  18.9297066  38.5100021  66.0260773  19.3242264
  39.1786804  64.7774734  18.7905140  76.2228165  30.5760098  51.3238297
  76.2111893  31.5049591  51.5543671  75.6424026  30.5101357  50.5655327
  12.9834976   2.5402329  13.6016359  13.7429161   2.8411491  14.1005993
  12.5631285   1.8955475  14.1707592  68.9208755   3.6736987  74.1534424
  69.6223526   3.5520248  73.5136261  68.6310883   2.7857909  74.3628998
  37.6004333  53.2938728   2.2879145  37.1167793  54.1177597   2.2285604
  38.4584961  53.5440063   2.6305342  19.0368309  40.2301254  57.5215988
  19.7328377  40.2962151  56.8678093  18.9057083  39.2890625  57.6375427
  74.8143158  14.4367275  58.8609428  73.9300308  14.3711834  59.2214775
  75.1188889  15.3034773  59.1296616  72.8558121  20.7379704  36.3391762
  73.0270615  21.5437489  35.8517075  73.2819748  20.0520020  35.8253059
  80.5514145  64.6439514   7.2105803  81.0591888  64.9808044   6.4723849
  81.1371155  64.7290878   7.9628725  82.2707825  66.0253677  83.2395477
  81.8634567  66.8904572  83.1954346  83.1435165  66.1894989  83.5967941
  77.5344696  26.0316639  43.5830421  77.1487427  25.2024059  43.8654861
  78.4555740  25.8255005  43.4239655  41.3790817   8.4632072   9.3273716
  41.5304451   9.1020346  10.0239496  41.6763229   7.6315203   9.6963949
  12.0701723  65.3344040   3.9758823  11.4286556  64.8783493   4.5205846
  12.8927269  64.8720169   4.1366053  27.3647919  56.3566818  53.5021706
  27.9068508  55.6205482  53.2184296  27.9691467  56.9326706  53.9703827
  14.9164858  69.9128952  37.6581688  15.0117121  69.9419403  36.7061577
  15.8026237  69.7527542  37.9827385  26.2296028  46.0782089   3.1097734
  25.5917339  46.5066223   3.6805770  25.8271255  46.1005554   2.2415893
  13.5908289  23.3691425  81.7088852  13.3247137  22.5480976  81.2950058
  13.4814920  23.2111187  82.6465988  40.6870880  57.5466576  59.0760803
  39.8734283  57.7393150  59.5419960  40.8305779  56.6114807  59.2213058
  62.7158165  26.1336956  12.3605089  63.0673714  26.5341358  11.5653429
  63.2992783  26.4333134  13.0576696  61.9086266  65.1890640  69.9958496
  62.8410988  64.9883652  69.9155273  61.7999954  66.0152130  69.5247803
  21.0929184   1.0582225  53.6796837  20.6581974   1.8941920  53.5111504
  21.9326935   1.1291826  53.2258377  12.8655176  71.6176376  45.6584015
  12.7213831  71.8969040  46.5625420  12.2422657  70.9032898  45.5261230
   7.5283647  45.2990341  74.4995804   7.0417404  44.7872734  75.1457443
   7.6061301  46.1686058  74.8920364  58.0823784  43.9882202  50.9147987
  58.6907578  43.2712402  50.7357750  57.2171402  43.6167641  50.7427254
  33.9766464  50.5949440  36.2585564  33.5894623  51.4087791  35.9360695
  34.1690674  50.7698135  37.1797638  44.8608665   5.8975306  56.0183220
  45.0024223   6.1146445  56.9397621  44.3228111   5.1061311  56.0386467
  19.3962460  26.6502934  79.5562668  19.1156216  25.8721848  79.0745773
  20.3474140  26.6674557  79.4503632  71.7599945  39.3059654  46.0184784
  71.6139603  38.6227112  46.6727486  72.6724243  39.1918831  45.7525978
  44.6544151   0.5510590  55.8187561  43.9688568   0.1223650  56.3310738
  45.3671722  -0.0872462  55.7909164  76.7124557  11.9029284  13.2189884
  76.4952621  12.8347063  13.1898222  77.1251984  11.7266245  12.3735352
  70.4999313  49.7499390   2.1707864  70.3766708  50.6966133   2.2404304
  71.4117355  49.6465111   1.8984889  20.7882690   1.3358084  74.8114243
  21.2755051   1.2169406  73.9961319  20.2601681   2.1201613  74.6626663
  51.9779816  42.6028023  61.8053513  51.7229614  42.4086647  60.9034042
  51.1524887  42.7882195  62.2530289  72.2574158  65.6943283  44.0473862
  71.6106033  66.3142014  43.7103233  72.0928726  65.6652679  44.9898872
  48.7260208   9.3436022  28.1769028  48.2074318   9.8291006  28.8184547
  48.4194031   8.4402380  28.2553253   5.6633387  40.1700096  19.2845936
   5.3241963  40.9542580  19.7160702   5.6107702  40.3692322  18.3498325
  56.7732353  34.5336609  69.6906357  56.7772179  34.2689438  70.6104889
  56.6876297  35.4866867  69.7160339  31.6506557  52.7789345  63.5932198
  31.1754055  52.9380608  64.4087296  31.6714058  53.6311607  63.1578941
  78.6363373  46.0900345  68.4341736  77.7974472  45.6302795  68.4005356
  78.7438049  46.4568100  67.5565872  59.5844078  47.7861252  29.3958626
  59.4325714  47.7165146  30.3383770  58.9151306  48.3982964  29.0900135
  34.3900223  52.0373573  75.5694275  35.1301537  51.7715683  75.0237198
  34.2778969  52.9695930  75.3834152  46.4049301  63.8280373  81.5992889
  46.9047585  64.3015060  82.2642899  45.7941208  63.2865181  82.0991898
  14.2855091  57.2227859  11.5617695  13.5177155  56.7666779  11.2172546
  14.0412483  57.4611168  12.4560671   8.5610771  43.5215950  88.3747940
   8.7140846  43.4605331  87.4318771   9.4376240  43.5481987  88.7584457
   1.0034786  52.9956970  32.9878159   1.4507444  52.4620056  33.6445923
   0.5348944  52.3628502  32.4436035  13.8265171  44.2995605  73.0144348
  14.3492393  44.7664604  72.3625183  13.1965981  43.7950783  72.4997253
  79.3033905  70.8114014  85.1428223  80.2427750  70.8571930  85.3208771
  79.0943680  69.8789215  85.1978683  43.3081360  49.4979782  25.4415550
  42.7126694  48.7750740  25.6391907  43.5999527  49.3297844  24.5455704
   1.5404642  18.3431854  39.2489586   1.6049172  17.3887138  39.2815857
   1.0896981  18.5806427  40.0593033  75.1027222  26.2351933  82.1945343
  74.2931137  26.1723042  81.6877747  75.4129639  27.1275368  82.0405579
  84.8361435  65.2105865  51.7539558  84.5931778  64.4998627  51.1606026
  84.1361694  65.2275696  52.4066277  39.9179077  56.9129372  78.4978561
  39.9350014  56.1308784  79.0495148  40.1551704  57.6278763  79.0884552
  15.9548874   4.9377804  23.0292759  16.2663765   5.0812793  23.9229279
  16.7464256   4.7404265  22.5285263  13.2631731  65.7678070  39.1592712
  12.8066654  65.7424240  40.0002136  12.7022505  66.3034668  38.5983200
  10.1806459   5.8971090  18.1566601  11.0958261   6.1759167  18.1873951
   9.7469358   6.5579705  17.6168556  60.0632362  48.5691032  42.5993233
  59.8547668  48.5285378  43.5326653  60.6755562  47.8468666  42.4590683
  82.8229675  29.8295135  15.4764528  82.0707474  30.0281792  14.9188337
  82.4793015  29.2278004  16.1368084  36.7514381  49.2809677   7.7428055
  36.6064072  48.8564034   6.8972626  37.2757111  48.6527214   8.2394743
  29.2052898  52.8504524  31.3233948  29.5530128  51.9586601  31.3179970
  28.3710918  52.7794571  31.7874031  82.4074478  55.2816887  26.1107712
  82.0254898  55.8298759  26.7962170  83.3320465  55.2109108  26.3481274
  52.4628448  18.8107204   0.3980570  51.6243401  18.3765182   0.5549301
  53.1191063  18.1721802   0.6770218   4.5411863  16.2986832  75.0810623
   3.6395142  16.1546097  75.3682251   5.0777125  15.9178877  75.7763062
  85.0601425  42.9636993  73.7637711  84.4157410  42.7456779  74.4371490
  84.5604401  43.4364471  73.0981598  23.2993317  57.1369019  38.1906776
  24.1408386  57.3081055  38.6135101  23.2611866  57.7655411  37.4698524
   8.5270491  21.3608494   3.7796507   7.7198629  21.4348869   4.2887683
   8.7262840  22.2587929   3.5146360  61.1081696  23.8292789  34.8711777
  60.6968575  24.3359566  35.5714149  61.9746094  23.6081924  35.2126884
  36.0971603  14.4678307  71.7381821  36.2842331  14.1193867  72.6098633
  35.1422119  14.4530945  71.6742249  82.7331390  53.9793472  11.8642941
  82.2643356  54.2947388  12.6369419  82.8455429  53.0413857  12.0186472
  47.5499916  47.9417953  69.8185577  47.3968468  47.1345253  70.3095703
  47.0672226  48.6117821  70.3025818  26.9785023  41.8607330  24.4616432
  26.1058693  41.5828171  24.1832428  27.1154423  42.6985893  24.0195160
  66.2236481   8.5285034  12.7000027  66.9532013   8.2263536  13.2410107
  66.4138565   9.4520855  12.5355473  11.5990877  67.0770950  55.9975471
  12.3964930  66.6972198  56.3664284  11.1698036  67.5010757  56.7406425
  43.1791115  64.1943436  62.1985703  43.9766808  63.8494148  61.7971535
  42.7749557  64.7241669  61.5114212  21.4784412   1.2761766  72.0618515
  21.1967010   2.1417773  71.7658920  21.6285534   0.7841759  71.2546158
   2.8407502  18.4694519  69.0797501   3.1243272  19.3558216  69.3037262
   2.1202528  18.5972404  68.4626694  84.4968338   0.2977410   6.3762403
  83.7880173   0.9035257   6.1598315  85.0200348   0.7643172   7.0280027
  18.2623596  55.7646446  75.8824387  18.4822903  55.3251228  76.7038269
  18.5713139  55.1675301  75.2010880  78.5187073  37.4682426  24.2800198
  79.3220139  37.9877586  24.3121738  78.7914886  36.5889359  24.5420036
  58.9291267  18.0610771  73.1551437  59.8852234  18.0375404  73.1156616
  58.6490479  17.9482307  72.2468185  53.4437370  36.0141869  46.1858139
  52.5404587  36.2016563  45.9305115  53.7122650  35.2992592  45.6087532
  62.4222031  55.2083168  48.5159645  62.8693199  54.9768791  47.7018700
  61.9877777  54.4001656  48.7887306   2.2977803   0.3396161  67.1449280
   1.6517438   0.8794959  67.6003342   2.4102013   0.7661037  66.2953949
  85.6100082  22.1421452  62.8641014  85.3872833  23.0574684  63.0338326
  85.1668777  21.6550350  63.5587921  76.2734528  60.2161713  80.5581512
  75.5981216  60.0077972  81.2036972  76.8021774  60.8961754  80.9756165
  34.1829948  51.9145088   1.9914103  34.7046890  52.0545158   1.2011791
  33.9708824  52.7962227   2.2977114  43.5945282  68.0292206  44.7481499
  43.5511780  67.4511337  45.5098343  44.5306740  68.1242142  44.5725288
  28.5167923  45.5679665   5.5208769  29.0670071  45.7116394   6.2908468
  29.0544815  45.0306396   4.9391565  17.6751785  32.0155602  82.0669327
  17.9225769  32.1113815  82.9866257  17.7752171  31.0805397  81.8881607
  16.8965816  36.5621109  62.8877602  16.8253746  35.6922989  62.4945831
  16.8231277  37.1658211  62.1485901  71.5112991   3.0218780   3.2166319
  72.2191544   3.6649623   3.1764657  71.7551651   2.4420102   3.9380991
  59.0848083   6.9220157  15.0828924  59.9495621   6.5254874  15.1887121
  58.5586472   6.2409320  14.6639490  68.3166428   9.2967167  87.5137787
  68.8039474   9.0482693  88.2992935  68.7506332  10.0917006  87.2041321
  66.5817871   3.7363393  38.8793106  66.7737274   2.8800647  38.4969711
  67.4091873   4.0140281  39.2724075  61.4962006  57.2405090  19.7636700
  60.6295509  56.9067116  19.9954605  62.0591888  56.9690666  20.4886494
  84.6601639  19.1269188   1.4978428  83.7162399  18.9761028   1.4479142
  84.9255600  19.2858887   0.5920138  39.3557701  11.6139612  34.4455070
  39.6330299  11.3403749  33.5711441  38.4104271  11.7424574  34.3677330
  71.7277908  45.9236488  67.2669983  71.2585297  45.9560471  68.1006546
  71.9929657  46.8291969  67.1060638  69.6156082   9.3253050  59.3976135
  70.1300354   8.5859613  59.0736198  69.5993042   9.2078190  60.3474350
  23.8715343  69.6343918   6.0416012  24.0072823  69.0405502   5.3032532
  23.5368176  70.4382248   5.6440544  37.3499184  48.6054611  80.6258011
  38.0269089  48.7332191  79.9612732  36.5800629  49.0509872  80.2721558
  27.3584614  13.1153507  13.7281513  27.5909615  13.4530420  14.5931025
  27.7049484  13.7648888  13.1163692  34.3652000   4.5143828   5.4260192
  34.7882271   5.3642788   5.5483303  34.8532104   4.1045165   4.7118130
  36.6934052  50.1681404  59.9239426  36.4764290  50.5923805  59.0937805
  36.6676598  49.2315216  59.7281914  21.7311287  36.4649162   2.7032762
  21.0396748  35.9500580   2.2872894  21.4460468  37.3732681   2.6040151
  85.1795425  27.5740833  34.3344574  85.6229858  27.3328724  33.5211868
  84.6412506  28.3296700  34.0987434  46.3868980  33.1119919  79.4377899
  47.0607262  33.7540627  79.2143326  46.7851448  32.2658844  79.2335052
  33.8643379  62.8724632  49.6194496  33.7748299  62.6148148  48.7019310
  33.0435715  63.3207092  49.8235207  85.3273392  69.7306595   4.3114128
  85.0787430  70.5195007   4.7932353  84.9713211  69.0102005   4.8314366
  52.9970779  35.6345367  10.2248287  52.5476646  34.8537750   9.9012995
  52.6746979  36.3440437   9.6690378  39.2195663  61.2343445  82.5994034
  38.4484596  60.8632774  82.1705246  39.6850471  61.6931572  81.9000854
  13.8602991  60.1199837  38.1580353  14.2685642  59.9001427  38.9954262
  14.0855913  61.0393486  38.0157776  56.5187378  68.7380524   4.8941827
  55.7390213  69.1057739   5.3101830  57.0601730  68.4371109   5.6239157
  79.8545380  21.1831779  67.7681580  79.7013931  20.3255367  67.3716354
  79.1334686  21.2926407  68.3880768  54.0561943  62.5606804   7.8822603
  54.2843323  63.3808289   8.3199129  54.8762436  62.2633629   7.4881105
  10.7999067  20.4675121  14.8671894   9.8616343  20.6150551  14.7484121
  10.8775702  20.1241035  15.7572851  35.3729362   5.9180088  68.9563522
  35.6045761   4.9982462  68.8274612  34.6032448   6.0509610  68.4030609
  60.5978813  51.8128624   7.5712533  59.9226990  51.1616058   7.3809066
  60.5905266  51.8937569   8.5250006  70.4609528  47.2161217  81.6672287
  71.2163467  47.7473793  81.9189682  69.7040024  47.7163467  81.9722443
  15.0776348  65.1006088  68.4021149  14.8209553  64.1789703  68.4325562
  15.8280754  65.1598892  68.9933472  33.6826019  67.0287476  29.9383564
  34.4463921  67.1970291  29.3865051  33.3375778  67.8982162  30.1413879
  78.6860046  44.4744034   7.0186563  79.1109543  43.6347008   6.8438683
  77.9713058  44.5179710   6.3834105  58.3996239  23.6519413  11.0535984
  58.0034828  23.4938545  11.9105177  59.1492119  24.2182388  11.2370558
  57.0432549  10.4398279  25.7216301  56.1176071  10.3623543  25.4905243
  57.3478279  11.2067919  25.2366219  56.8523140  48.8354988  19.3357162
  57.7042274  49.2117920  19.1146202  56.3935356  49.5367279  19.7983532
  86.9313202  17.5986919   2.4805577  86.5493927  16.9461079   3.0674968
  86.1922913  18.1486588   2.2205377  39.5499496  67.3181000  14.4853134
  38.9388885  66.6122208  14.6964340  40.0500603  67.4508133  15.2906160
  78.2073746   6.7713180  21.2442493  79.1243668   6.6016221  21.0284615
  78.0241699   6.1919041  21.9838085  33.3252220   1.9882816  11.7118397
  34.0018692   1.3494828  11.4875202  33.0691109   1.7619230  12.6059322
  36.6986046  49.0434914  25.6902409  36.8660126  49.7845802  26.2724724
  37.5342102  48.8924675  25.2484474  44.3970451  13.7953367   7.3198752
  44.1692543  14.5848112   6.8288846  43.7497101  13.1464930   7.0438466
  75.2615662  70.8204651  20.8729038  75.6827240  71.4439850  20.2812214
  75.6205444  69.9700241  20.6197014  64.1657104  48.0398216  81.5131073
  64.6778946  48.5798187  80.9112015  63.5469360  47.5746346  80.9501266
  72.0470047  19.0977001  65.8165131  71.6242981  18.6724339  66.5626373
  72.8090668  19.5385170  66.1922379  36.4804344  45.7003250  66.3723068
  36.1467743  46.5837288  66.2157669  36.7085342  45.3727913  65.5022964
  83.6875381  42.0502243  75.7939835  83.2311783  41.3969498  76.3242645
  83.3378677  42.8891563  76.0942383  55.5184746  44.3569183   0.9579113
  55.7866096  44.5324059   1.8598748  55.6759300  43.4202538   0.8391633
  33.9137077  60.3127060  69.3070755  33.9187851  59.3620033  69.1958542
  33.5030708  60.4518242  70.1604538  58.5859604  57.3818665  23.7950172
  58.0309105  57.2975502  23.0197468  58.8471832  58.3026924  23.8035660
  75.1141510  48.8352089  13.1491890  74.2859039  48.5873985  12.7382984
  75.2817307  49.7232742  12.8337631  79.5000916  31.2850113  28.0772381
  80.4036026  31.5630093  27.9268436  79.3484726  31.4559441  29.0067692
  39.5694008  14.3316250   6.9608874  39.6256447  14.4308910   6.0105114
  39.6781654  15.2196112   7.3013039  71.1454773  18.7403812  45.8866806
  70.5961304  17.9683952  45.7507286  70.5545197  19.4814224  45.7530518
  59.9445496  47.1827126   9.0462418  60.5193253  46.6713409   8.4767151
  59.3133774  47.5856476   8.4500065  37.5734100   0.7951530  29.4703922
  37.5921021   1.2955267  30.2861786  36.7252846   0.3515217  29.4809017
  47.0661812  59.0810318  13.7135458  47.3607750  59.5498924  12.9327688
  47.2159729  58.1579361  13.5093699  22.3658905  42.3644447  59.3840446
  21.4896545  42.7469673  59.4300842  22.2521019  41.4668503  59.6964722
  57.0922432  61.0296135   8.8788042  56.6266060  61.2513771   8.0724316
  56.5421562  61.3829613   9.5779343  25.8746872   9.7639008  21.9209633
  25.9103088   9.8198624  22.8758621  26.6989613  10.1519899  21.6273804
  66.3681030  56.2356758  15.8592567  67.1325607  55.7360268  16.1459465
  66.0882797  56.7141609  16.6396313  29.2640533  63.8549805  45.7263412
  28.4890251  63.2994690  45.8098183  29.3074188  64.0670624  44.7939415
  81.3922272  17.9357395  73.5029831  81.0768051  18.4747353  74.2284012
  81.2745438  18.4848061  72.7278061  18.4395828  53.3191338  74.3460693
  18.1207790  53.2462959  73.4464645  19.0488472  52.5874329  74.4442444
   7.5641708  69.3969498   3.8115358   8.1217022  68.7461319   3.3851306
   6.6945376  69.2472305   3.4406528  10.5335875   9.2704716  17.7520351
   9.6717997   8.9159107  17.9707603  11.1193447   8.5141783  17.7858009
  73.3721161   9.8765535  12.0336351  73.6473083  10.7500563  11.7552547
  74.0159073   9.6219311  12.6946430   0.3987393  21.2575340  71.8568954
   0.2209567  20.6882668  72.6055984  -0.4188928  21.2610416  71.3591995
  80.0677795  45.9287376  28.3518143  79.4587631  45.5556984  28.9891357
  80.0600510  46.8682823  28.5346470  29.3387947   7.0916238  14.6572237
  29.4959831   6.2476187  15.0805197  28.4764748   7.3612213  14.9733782
   1.5561337  24.4256916  78.3484192   1.6426114  23.5410061  77.9933395
   2.4559543  24.7443161  78.4193726  77.3512802  59.7901802  34.5995674
  78.0464935  60.1787529  34.0686073  77.5481186  58.8534470  34.6035576
  15.2714577  34.0213509  12.9175901  15.4640808  33.8424034  11.9972067
  15.9712315  33.5799484  13.3989563   6.8726602  31.8515625  69.8436966
   7.4667401  32.5410080  69.5471039   7.4212794  31.2751484  70.3756714
  22.8139744  51.9896088  35.5464249  22.2713184  52.7775726  35.5758553
  22.3634796  51.4114037  34.9308205  39.9578781  41.0490341  15.3916769
  39.2177963  41.0632362  15.9985619  39.6700668  41.5819435  14.6504593
   5.2649803  29.5330334  82.9520035   5.7040410  28.7621193  82.5926285
   5.5559654  29.5714283  83.8630905  41.2876282  54.3315887  21.0340214
  41.9220924  53.9026260  20.4598465  41.8129120  54.9261818  21.5695286
  30.8549328  45.7209663  79.4304962  31.7076206  45.9929199  79.7698975
  30.5530758  46.4684868  78.9144211  63.8906631  44.6010017  39.0700607
  64.2618103  44.6828461  38.1915474  63.6710281  45.4980087  39.3218040
   9.6257057  66.3434525  15.9768705  10.2436619  65.6146240  16.0331802
   9.6928864  66.7805634  16.8257847  16.1662598   3.7408912  11.6918831
  15.3920317   3.2797160  11.3692074  16.1677647   3.5757935  12.6347361
  15.0364885  32.7537003  63.9022141  15.4851513  33.5097313  64.2808304
  14.3595629  33.1329002  63.3416672   3.3503053  27.6329365  58.1307945
   3.4677427  28.1009121  58.9575005   3.5771108  28.2748184  57.4579086
  39.0002441  16.1804771  77.8666534  38.5160484  15.3783817  77.6706238
  38.6785049  16.8166370  77.2278900  61.9501572  57.0487518   4.4337177
  61.6162872  56.3865013   3.8285849  61.6074753  56.7868690   5.2882466
  53.4426231  59.5046120  43.8278465  52.6703873  59.9455261  44.1820679
  54.1373329  60.1612015  43.8778725  59.4157104  15.2816782  13.9863701
  59.9616508  15.0057917  14.7226229  59.7702217  16.1334305  13.7312765
  66.2310333  34.9623146  72.7090683  66.8623199  35.6037712  72.3831329
  66.2156906  35.1011734  73.6560211  23.7108440  51.5215378  40.6909180
  23.2190113  51.3837090  39.8813896  24.4021587  52.1378784  40.4491692
  14.2954340  43.3380241  52.7687874  14.3044834  42.4862404  53.2053871
  13.4894848  43.3339272  52.2523994  58.2153587  33.7187309  67.6699142
  58.9254875  33.9897385  68.2517242  57.4163742  33.9245644  68.1551895
   0.4809085   7.0600691  32.1150513  -0.1538118   6.5577569  32.6259766
   0.4092710   6.7055621  31.2288074  46.0681267  27.8965244   2.5223742
  46.0435905  27.4768257   1.6624428  46.8868179  27.5923252   2.9140861
  37.2013664  54.7259521  56.9890938  37.9787025  54.6534576  57.5429230
  36.8438988  55.5908546  57.1900826  20.5242462  41.9674988  84.9860535
  20.7912178  41.7334785  84.0971222  19.9435368  41.2563591  85.2567749
  68.0221710  26.0082836  58.5020027  68.4217148  25.2688847  58.9601364
  67.4981461  26.4494438  59.1705894  70.8325424  55.5989113  26.4831657
  71.6860886  55.9613419  26.2458134  70.2624664  55.8282585  25.7492409
  51.3283539  38.2559547  46.9043503  50.6659737  37.7761726  46.4070587
  51.6474342  37.6247597  47.5493355  50.2744789  58.9677200  89.2925644
  49.5552216  59.3179398  88.7669754  51.0339127  59.4923515  89.0390778
  74.7920074   9.5150871  23.8756618  74.3543777  10.3204527  24.1515293
  74.1676102   9.0933456  23.2853260  50.3132172  55.9030952  37.4045219
  50.0342026  55.4311638  38.1891632  51.2532082  55.7327957  37.3441620
   0.5533479  71.2047729   6.3855944   0.9306529  71.6852570   7.1224852
  -0.3893084  71.2132568   6.5516033  84.1987000   5.3923216  87.7284927
  84.0675812   6.1385279  88.3134842  84.7674561   5.7281456  87.0356979
  47.2273254  16.4651871  59.4959259  46.5509491  17.1192551  59.3200111
  46.7480278  15.6404800  59.5756874  21.8931942  25.0036964   6.5455070
  22.1970387  24.2665558   7.0751610  22.2313652  25.7776871   6.9958549
  18.0975571  62.5821266  51.9552193  18.6701317  62.5352745  52.7208519
  17.3773346  63.1499977  52.2291451  83.6101074  41.7160950  86.6059341
  84.3704453  42.2713890  86.7784729  83.2269363  42.0763855  85.8061829
   0.4594161  64.6696777  84.9920044   1.2638422  64.3454895  84.5870056
   0.6584236  65.5757141  85.2280960  61.8751678   0.2062937  62.2297668
  62.2766151   0.7787735  62.8834763  62.5225182   0.1548837  61.5265388
  63.3261795  13.3628511  28.1870308  64.1961517  13.6503248  28.4640503
  62.8714981  13.1548023  29.0032482  17.3733311   2.7328510  76.6272812
  16.6839943   2.9609931  77.2509766  16.9617863   2.8315821  75.7687225
  30.2603931  30.1613064  13.5803642  29.3236618  29.9862442  13.6704741
  30.3132668  30.8433704  12.9108706  48.3850632  67.2781067  39.0937614
  47.6026344  67.2226562  38.5451584  48.6390991  68.2002106  39.0561523
  52.0170288  24.7867794  46.6809120  52.5276070  24.0047379  46.8905640
  51.8302994  25.1858349  47.5306892  60.8138695  26.2227764  23.7655106
  60.6035538  26.6511517  24.5952644  61.3715706  26.8507729  23.3063564
  33.8283577  22.3402290  64.5999908  34.3483620  22.3422661  63.7963600
  33.6820946  21.4131966  64.7882767  46.4196892   0.9361439  22.6402111
  47.0438042   1.2722096  21.9969616  46.4886856  -0.0156990  22.5662785
  11.2880993  63.8948250  23.5074730  11.0098305  62.9789886  23.5008297
  10.8677273  64.2672577  24.2825947  82.9513397  46.6094933  75.9702682
  82.0523758  46.3976631  76.2217026  83.2138901  47.3000298  76.5789185
  23.2871304  65.8589020  59.0647926  23.1208134  66.8003616  59.1120567
  23.9037514  65.7607422  58.3392792  30.3955631  56.5115662  38.5085526
  30.2235031  56.6897278  37.5839539  29.7982025  57.0925064  38.9796143
  57.7655754  20.9803677  26.5312481  57.1904945  20.7528477  25.8006668
  57.4277992  21.8172283  26.8503170  35.9082222  43.9559898  53.7750397
  35.7698669  44.3644485  52.9204903  36.3327293  44.6351509  54.2992210
   3.3829291  56.7130013  77.8132324   3.5014901  57.2644234  78.5866013
   2.4337819  56.6544800  77.7040176  17.8271008  10.8124056   5.6041169
  18.0466270  11.2940445   6.4016533  16.9509449  10.4637070   5.7684040
  75.8455276  61.4228973  59.5618362  74.8924789  61.4726105  59.4878845
  76.0227966  61.5874176  60.4879761  78.5933762  55.0409546  15.3622780
  77.7261887  55.0318031  15.7674208  78.4252548  54.8846016  14.4330196
  78.1679535   8.8383379  85.6483383  77.6431351   9.6352463  85.5726471
  78.3040619   8.5544300  84.7444000  46.2905769  50.8047409  29.9011993
  45.5169334  50.2413635  29.9189816  47.0266457  50.1983147  29.8194561
  76.5985870  50.0428925  34.8383942  75.7848282  49.7272415  35.2313232
  76.3369751  50.8103065  34.3296051  43.5986977   2.7290089   5.6980400
  44.4336014   3.1969321   5.7126117  43.0006371   3.3203914   5.2410684
   6.9002352  26.7048397  88.1885757   6.0407691  27.0279922  88.4589844
   7.4374466  26.7630272  88.9786682  79.9629669  59.5982552  63.5043411
  80.3358917  60.3838921  63.1044235  80.7155457  59.0266914  63.6565552
  14.6797457  40.1988106  11.8245478  14.6806679  40.1310196  12.7793436
  13.8411102  39.8218117  11.5584764  18.9313889  69.2286453  22.9815693
  18.7803154  69.2029800  23.9264221  19.6446457  69.8571854  22.8700485
  70.1339188  25.6078777   2.5999515  69.8275986  26.0677814   1.8183602
  69.3941116  25.0591412   2.8603389   1.3703901   4.0334735  36.2450943
   1.8508725   4.5701752  36.8754272   0.4979886   3.9383998  36.6273384
  63.3465424  45.7463341  24.6168346  62.9993019  45.5928268  25.4955215
  62.5899010  46.0370255  24.1076946   0.5359570  57.3784828  11.7889395
   1.1268682  57.0277290  11.1225853   0.6296027  56.7807388  12.5306711
  62.2093086  62.3674202  53.3216820  62.6036797  62.2214317  54.1815605
  62.7560844  63.0419273  52.9188080  79.4832611  22.4461479  32.5493317
  79.7533035  21.9635448  31.7680473  79.7085190  23.3566246  32.3582230
  12.7300701   4.0980520  16.7994843  12.0721788   4.2544017  16.1220131
  12.3777161   3.3705692  17.3121700  21.7593098  18.0279312  69.2977600
  22.5701122  17.5502377  69.4728012  21.7334061  18.7098465  69.9689941
  53.5297089  69.1347122  16.4564171  54.2521133  68.5126343  16.3704700
  53.9163551  69.8913727  16.8971062  74.7420807  37.1902046   3.1951003
  75.6688766  37.3047867   3.4052157  74.5880737  37.7833977   2.4598215
  71.3017426  40.8922653  71.4147186  71.4090958  40.3327255  72.1838837
  70.6496048  40.4405594  70.8790741  47.0995712  29.8953152  76.2337265
  46.4233971  29.4468975  76.7416077  46.6375999  30.2352295  75.4673920
  78.3595734  68.4202118  78.5777969  78.4615250  68.0434952  79.4518204
  77.6644287  69.0707321  78.6769638  60.6448631  16.9131031  26.5206871
  60.4535828  17.8486919  26.4549923  60.5382347  16.5836010  25.6283379
  47.6560822  36.9947472  71.6810684  46.9282265  36.8140144  72.2758713
  47.4527893  37.8522339  71.3074112   2.9666584  69.0868607  50.6943817
   2.8301406  68.1983719  50.3654785   3.5944872  69.4742203  50.0844498
   6.1844325  62.8833694  54.2949715   6.8669796  62.2344170  54.4659157
   6.2755527  63.5193825  55.0044937  68.8155365  55.4873047  43.9043541
  68.9815216  56.4168777  43.7476044  68.1721420  55.4750481  44.6129608
  65.8093262  63.6042328  52.0819550  65.1711655  63.5595284  52.7939796
  66.5757980  64.0233307  52.4732475  34.8863831  39.2014313  78.4565964
  35.5981598  38.6642647  78.8045273  34.0972595  38.6817284  78.6096497
  33.2111778   9.6933565  67.9729309  33.3938332  10.1213169  68.8094254
  32.8917465   8.8236990  68.2135391  75.6188202  14.4565849  37.3375854
  74.7815323  14.0250454  37.1674232  76.2329559  14.0326433  36.7381401
   5.8361759  23.4580727  81.9040222   5.1693482  24.0611076  81.5755081
   6.5087490  23.4506035  81.2229767   9.5656548  35.7517548  68.3395691
   8.7253580  36.0693817  68.0090485  10.2192249  36.2033005  67.8055420
  18.6632614  63.9858131  27.3151855  19.5311222  64.3017502  27.0637245
  18.6527252  64.0492325  28.2702255  50.7152672  63.4785995  35.5461159
  50.3826752  64.1996689  36.0806007  51.5706367  63.7812309  35.2411728
  19.0565090  64.9636841  16.7629986  19.8549385  64.6599655  16.3311462
  19.1956329  64.7670364  17.6893940  59.6190987   5.2363124  12.2839136
  59.9101410   6.1345768  12.1269207  60.4230576   4.7171783  12.2643452
  42.9060593  30.8065910   2.3703704  42.3006897  31.5091438   2.1333523
  43.1662102  31.0077076   3.2693174  54.8555145  11.3708630  64.2823944
  54.9579201  11.1414938  63.3587418  55.0580292  10.5627432  64.7537384
  39.4985619  44.1034698  17.3002033  39.5067444  43.6168098  18.1244164
  38.5919380  44.0479126  16.9982414  73.1151047   3.2056925  35.6106071
  73.4011383   4.0932775  35.3947105  73.9015579   2.7756464  35.9464493
   5.3944116   9.0168161  18.7135544   5.4887166   8.0800018  18.5411663
   4.7602115   9.0660791  19.4288139  39.8108711  41.8484650  19.3458424
  39.5390205  41.5850029  20.2250004  39.2571678  41.3329964  18.7593822
  67.8666382  31.4263458  15.6606541  68.7572403  31.2105961  15.9372616
  67.7911911  32.3688278  15.8098669   3.5377970  18.8512192  65.7606506
   3.5844450  18.2390194  66.4949951   4.4085784  19.2468891  65.7229919
  78.1879730  26.6734200  54.1911964  79.1300735  26.8215027  54.1090546
  77.8255386  26.9674740  53.3554916  82.8763428  18.4248524  18.9402370
  82.4470978  17.5839844  19.0981121  83.1591263  18.7159119  19.8071575
  41.4827118  37.7577400  55.7215843  42.2265587  37.4743538  56.2532043
  40.9748993  38.3239975  56.3027153  58.6929588  13.6162806   1.2174488
  59.5935555  13.8539982   1.4380095  58.7647133  13.1557026   0.3814158
  13.0633221  22.2769127  87.7912216  13.5019884  21.9349232  87.0122223
  12.5410061  23.0114517  87.4689331  60.4085350  25.3197689  87.7247772
  60.1735764  26.0447521  88.3039322  59.5690498  24.9510632  87.4498978
  70.4938354  64.0225143  28.5470295  70.0518417  63.4572220  29.1805267
  69.8044510  64.2821274  27.9358158  28.2633438  64.0541458  52.0870705
  29.1465149  63.7887077  52.3435516  28.3822231  64.5063248  51.2518234
  59.6885719  65.1312180  38.3529663  59.6277122  66.0291977  38.6787834
  59.3843155  65.1840210  37.4469452  79.2222748  58.0679550  32.5826683
  79.4424057  58.9833603  32.4100189  79.4046555  57.9494667  33.5148315
  56.7193909  58.4183273  60.5229454  56.8039131  59.3587341  60.3657150
  57.6112137  58.1257973  60.7108459  60.2117500  11.7814169  60.2846298
  59.3256760  12.0645599  60.0589409  60.0829506  11.0295839  60.8628960
  69.0588150  50.5510368  88.1046448  68.1745605  50.8536339  88.3114319
  69.4093552  51.2197952  87.5163345  76.3670807  59.3135223  52.3624535
  75.7373352  59.8488159  51.8796349  76.4514542  59.7493820  53.2104759
   1.7366056  23.2783394  68.0795517   2.5752981  23.3395691  68.5367966
   1.1132994  23.7103386  68.6635818  47.8456230  42.2414093  70.9259033
  48.3931961  42.7330132  70.3137589  48.2398834  42.4031754  71.7830048
  38.6731606  52.6821327  11.5698729  38.6267853  51.9647064  10.9379072
  37.8161392  52.6815529  11.9961939  55.8054581  53.6629677  21.3890953
  55.6303787  53.6902847  22.3297501  55.1651306  54.2642441  21.0087280
  65.2401505  67.4700394  37.0304680  64.7270203  67.4473953  36.2227478
  66.1498413  67.4140549  36.7379570  15.1652670  40.5173416  60.4448395
  15.5463114  39.9328499  59.7895470  14.2198849  40.4295578  60.3232727
  71.5715103  37.5839844  69.5531540  71.0711670  36.7760925  69.4382401
  71.2733154  38.1533318  68.8438187  35.9368515  65.0006866  84.0233536
  36.2664185  64.3568573  84.6503372  35.1234627  65.3205032  84.4136658
  13.8811312  47.4492912  21.3508244  14.3754473  47.6361122  22.1489372
  13.0589705  47.0701523  21.6615314  73.6584244   3.0040627  11.1981430
  73.1834259   2.2434180  11.5328484  74.1953964   3.2945480  11.9353762
  54.6180916  42.1894608  86.2021637  54.1380081  41.6421509  86.8236160
  54.9277306  41.5780144  85.5339661   4.8874202  50.1898232  13.8797693
   4.1825933  50.8374443  13.8859062   5.6518383  50.6707649  13.5626059
  80.6654510  47.3576393  18.5374432  79.8973083  47.6594238  18.0525608
  80.9681168  48.1315727  19.0124702  63.2506599  38.7543678  41.2715607
  63.6776047  38.3145142  40.5363884  62.8306084  39.5206795  40.8809776
  16.9671497  14.5880346  16.0409927  17.7391415  14.6818962  15.4829168
  16.7474289  13.6577148  15.9913864  17.1727104  38.9154778  15.9763908
  17.1472340  38.0756569  15.5178232  17.7053394  38.7477989  16.7538357
  37.1204910  68.0825272  12.2823782  38.0375824  68.3088303  12.1275797
  37.1540108  67.2286987  12.7137575  77.6195526   2.6269011   3.2095628
  76.7296906   2.9463248   3.3590300  77.9186935   2.3389597   4.0720224
  42.6401978  33.4822197  86.5115814  43.4899445  33.2012863  86.8510513
  42.4140205  32.8222389  85.8562241   8.4826574  35.6194344  81.8382645
   9.0596399  34.8717079  81.6826096   7.7347970  35.2510452  82.3086090
  71.3458939  39.9995270   0.3064674  71.2329941  39.5616417   1.1501162
  71.6344452  40.8838120   0.5323098   7.6239705   6.1275024  53.4301338
   8.2786884   6.8241482  53.4776917   7.5049815   5.8482666  54.3379326
  25.6502781  42.2951775  15.7508364  25.3874283  41.9267921  14.9073696
  26.4833336  42.7315598  15.5724487  69.9631271  24.0292263  39.9168892
  69.7551880  24.7357883  40.5282478  70.9184647  24.0370979  39.8577194
  35.4140320   5.6185441  27.8891430  35.4285240   5.0099025  27.1505127
  36.1504250   6.2084250  27.7279072  66.9410553  60.1355095   7.2523179
  66.7699661  61.0279350   6.9514275  67.8788223  60.1229553   7.4438024
  71.7595062   9.5915689  40.3123207  71.6830521   9.0070887  41.0664902
  72.0708542   9.0285711  39.6035690  81.7183151   8.7993383  35.2815132
  81.2054443   9.5682487  35.0325737  81.0645981   8.1251602  35.4669037
  30.4186192  44.8443069  54.6742020  30.4731140  45.4985542  55.3707809
  31.1792717  45.0201759  54.1203880  85.8979492  61.0984268   6.4982491
  85.2604523  60.4901543   6.1243086  86.6291504  60.5429192   6.7683988
  46.0481873  16.1897411  32.7014732  46.7755241  15.6742449  33.0500069
  46.4488411  16.7508621  32.0375061  54.6652908  32.5516624  10.9721909
  55.5155029  32.2578163  11.2993441  54.8455925  33.3980255  10.5630512
  83.8402176   7.7925367  81.7444153  83.1319885   7.9216442  81.1135712
  84.3187561   7.0318384  81.4149170  23.0125294  39.5257263  69.8957901
  22.3546371  39.9829292  70.4196014  23.7399120  39.3783722  70.5003052
  68.2917404  10.3904963  14.5981350  69.1007385  10.5435982  14.1099625
  68.1559601   9.4444084  14.5460424  75.3381042  50.5241699  79.8467178
  76.0387268  50.9564323  79.3583374  74.7530899  51.2357750  80.1067276
  73.7851181  14.3447399  31.5507088  73.5441284  13.4816332  31.8871632
  74.5752869  14.5794249  32.0373154  10.4374466  37.3777237  37.7350693
  11.1390343  38.0169029  37.6107521  10.0194521  37.6375275  38.5560532
  51.5262032   1.1460568  36.6246338  50.9307594   1.7467034  37.0728569
  51.8864937   1.6605451  35.9023285  45.0207787  29.4069767  60.2432404
  44.7768822  28.7574711  60.9026985  44.4550819  29.2134247  59.4957390
  83.8571014  70.0697098  26.5532799  84.3092194  70.1976013  25.7193356
  83.0385284  69.6331711  26.3174610   8.8974562  56.4087372  14.8496685
   8.1334467  56.9402542  15.0732965   9.2649288  56.8320541  14.0737848
  47.3843765  65.0837479  84.3463364  48.1448669  64.5194397  84.4857864
  47.5602684  65.8588638  84.8797073  51.9281998  46.7950821   5.5456290
  51.5684395  45.9417763   5.3034105  51.4511948  47.0397682   6.3386149
  29.8784218  21.3252544  71.8745575  29.7791882  20.4073124  71.6220322
  29.2038231  21.4651318  72.5390701  20.0868149   3.3866072  85.8038559
  19.7201672   2.5159621  85.6496582  21.0043354   3.2246709  86.0233231
   6.2044601  41.1164436  27.8382359   5.4141946  40.9735680  28.3590984
   6.3528700  40.2815399  27.3942299  45.6603394  60.7647057  22.7404747
  46.1662560  61.3479042  23.3063011  44.7547569  61.0571442  22.8435745
  48.2860870  44.2762947  33.5172806  48.9809265  43.9046593  32.9738541
  47.7293854  44.7528267  32.9014626  26.3958054  44.3591461  43.9715843
  26.7286205  43.4628258  44.0171928  26.0188770  44.4303436  43.0946083
  71.2920151  11.0735083   8.9535789  70.3558731  10.8739195   8.9467611
  71.3515472  11.9283552   9.3801050   0.5978519  19.9903755  61.8229523
   1.4429965  20.4392586  61.8445320  -0.0455245  20.6839638  61.9686699
  74.2636795  39.9078827  80.4962845  74.1477127  40.3734627  79.6680222
  74.5587006  40.5806465  81.1099548  61.8763618  59.1292305  13.9452696
  62.7194519  58.7119064  14.1221132  61.2690926  58.7101593  14.5550508
  42.2010117  22.3096924  69.5377121  42.6862946  21.5088921  69.7363281
  41.6029472  22.4169979  70.2773285  83.9624023  71.3653946  14.2815342
  84.8203964  70.9875107  14.4746037  83.6709747  71.7360153  15.1145658
  44.8072548  12.2489738  84.3059616  45.7434425  12.2773256  84.1085205
  44.6120987  13.1141443  84.6660004  72.2400131  15.9300108  14.6416597
  72.8162994  16.3885937  14.0302477  72.8318024  15.5590401  15.2961817
  35.8599091   1.3068762  64.9530334  36.3984833   0.5243081  64.8357468
  36.1667213   1.9121683  64.2779694  64.3474197  69.0964584  62.3771133
  64.0933456  69.5145874  61.5544052  64.3723145  69.8124084  63.0119591
  57.7182007  45.9828796  87.9138489  58.2203484  45.5426102  88.5995865
  57.1498032  45.3001595  87.5574112   0.7843587  50.4978828  51.3054047
   1.5134493  49.9434509  51.5833664   0.0058314  49.9600830  51.4499626
  45.7416344   1.3023801  64.6730423  46.1187057   2.0097308  65.1962128
  44.9187279   1.6619655  64.3417511  18.9450684  51.1212425   1.9666605
  19.2326984  51.2658501   2.8680978  19.7502270  50.9280815   1.4864095
   9.9441013  53.8230476  67.1888275  10.0309153  53.1431694  67.8570023
  10.5811863  53.5810318  66.5166855  64.6567154  13.3929262  45.8724365
  64.8639984  13.0465546  45.0045128  63.9907608  14.0612259  45.7108345
  50.7811890  48.0982018  28.8981628  51.7057686  48.2573357  28.7082577
  50.5514450  47.3442307  28.3550453  37.0117912  41.9153671  74.1705093
  37.5935898  41.5443535  74.8339005  36.4621696  42.5332794  74.6525269
  10.8472023  56.0414085  46.9611969  10.5473928  56.0765572  46.0528412
  11.3871145  56.8248634  47.0657043   0.2030068  18.5351315  75.4962234
   0.8270989  19.1006603  75.0413437   0.2155548  17.7167225  74.9999542
  42.0842247   7.2650065  69.0574646  42.1835670   7.2896500  70.0091782
  42.9280701   6.9467568  68.7367249  18.7918243  71.3090363  17.9997845
  19.0103397  70.4866104  17.5614853  18.2590561  71.0462418  18.7503395
  28.6711235  45.7567635   2.3505156  28.4466553  45.5991783   1.4334481
  27.8527355  46.0512276   2.7502229  44.3884392  60.2502327  46.2526970
  44.2988434  61.1203346  46.6414452  43.6054955  60.1478653  45.7116280
  46.9673882   2.7479613  29.6489716  46.0893097   3.0159807  29.3780899
  46.9006805   2.6319513  30.5967712  72.0870819  33.2260017  86.3666611
  72.1982193  33.2245827  87.3173828  71.6041336  34.0318069  86.1831741
  26.6266899  49.0154915  19.1128216  26.7423172  49.9410629  18.8979321
  25.8955345  49.0025291  19.7304573  75.2467957  46.8235207   7.1270547
  74.9444427  46.8575478   8.0346107  76.1277695  47.1968765   7.1539364
  24.1855545  41.7385559  64.8749008  23.3575573  41.5623932  64.4281158
  23.9403210  42.2678413  65.6338120  51.8789597  63.1703072  13.3947439
  52.5912514  63.5651932  12.8918133  51.6640892  63.8243370  14.0598030
  37.0731583  33.3626709  80.6684036  36.8258629  33.1834183  81.5755692
  37.5859299  32.5987015  80.4045029  58.9282494   3.2707515  36.1588058
  58.4294243   3.1614866  36.9684143  59.8407784   3.3169265  36.4441032
  49.4909058  15.5819159  24.5601978  49.4836655  14.7505875  25.0346165
  49.1313553  15.3693256  23.6989422  19.8291550   3.0535069   2.6257408
  20.0836029   3.9685681   2.7447007  19.4200420   2.8088179   3.4557920
  39.9100227   0.9360315  69.6858673  39.1669273   1.2680146  70.1896820
  40.6413803   1.4997094  69.9380875  36.6939888  64.0305405   7.6958108
  36.7133141  64.6816025   8.3972197  37.5825500  63.6752586   7.6742492
  70.8143845  49.9832077  66.2705917  71.7152634  50.2382660  66.0715942
  70.8400192  49.7090797  67.1873398  63.9369774  15.8628407   6.2736840
  63.2197914  15.3305159   5.9294314  63.5738831  16.7467556   6.3292704
  18.6801186  55.5826950  70.3948746  18.5620975  55.9042549  71.2886887
  19.5795364  55.8218613  70.1710968  10.5370293  58.8190346  15.1092710
  11.2558975  58.8231544  15.7412863   9.7522125  58.9620857  15.6382618
  43.8079567   8.1061659  87.1665039  44.3641434   8.3345299  86.4216919
  44.0853195   7.2231784  87.4107056  25.1344013  69.7138672  42.9271431
  25.1912003  70.0855179  42.0468674  26.0404510  69.6869583  43.2346840
  56.5974426  53.8005447  23.9678249  57.1879196  53.0994644  24.2436008
  56.0659294  53.9845543  24.7423344  84.4143448   6.9594040  24.8223000
  84.2442017   7.6339412  25.4797821  84.9364166   6.3024006  25.2827530
  10.4348392  47.4006119  39.6665230   9.9318075  47.6799812  40.4314690
  10.9108868  46.6249657  39.9631424  26.6102104  10.3027964  73.0497742
  27.0459614   9.6012793  72.5658035  26.3517876   9.8978901  73.8777237
  38.0211792  63.4501305  -0.3496953  37.5098572  63.4649162   0.4593554
  38.9064407  63.2178726  -0.0693337  72.4561615  38.6114769   8.6909552
  71.8622131  37.8739395   8.8305836  73.0692368  38.3023376   8.0240221
  63.9416199  21.7520428   1.6349562  63.8972549  21.0776367   0.9571374
  63.6051979  22.5410843   1.2101403  72.9672394   3.2237089  42.4373398
  73.7305298   3.4579692  42.9653053  72.7918701   4.0034990  41.9106483
  52.2303658  47.5671692  57.0708733  51.7163162  47.6079216  56.2644463
  52.5208168  46.6566467  57.1240044  34.7269669  58.7413445  40.9482880
  34.7589607  57.8976517  41.3992767  34.3548088  59.3434181  41.5926781
  25.3519192  45.3411331  16.8203182  24.3960514  45.3851471  16.7955799
  25.5658665  44.5248184  16.3685532   1.1610020  12.3195314  59.0040321
   1.2862619  11.5336332  58.4721413   1.0185421  13.0196562  58.3670387
  20.1626434  59.2393570  27.6945553  20.3287125  58.4435272  27.1892757
  21.0255089  59.6397400  27.8012657  44.0845566  16.7420349  80.2749481
  43.8624611  16.3267365  79.4416199  44.6113663  17.5029087  80.0304718
  57.3540115  36.7022896   2.2498257  57.7096901  36.4621582   3.1054311
  57.3253021  35.8788147   1.7626956  55.6940956  36.8559494  26.3840733
  55.7635536  36.6686401  27.3201942  54.8274460  37.2493629  26.2821903
   6.4550276  12.2614746  11.1935377   6.3020372  12.2472467  12.1383257
   7.3806534  12.0374107  11.0973930  81.1096802  29.3060894  24.0578613
  81.2941742  28.3785324  23.9101086  80.2612991  29.4512215  23.6390381
  78.2767410  34.0409813  24.4475708  79.2075424  34.2176819  24.3111343
  77.8807297  34.1633911  23.5847721  13.6744194  37.6511078  76.1312790
  14.4626322  37.1424446  75.9409790  13.8833599  38.5367279  75.8342056
  67.0094528  15.1999989  82.1840820  67.2953720  15.3776512  83.0801468
  67.4089203  15.8963032  81.6627197  76.5613861  21.9235973   0.0148883
  75.8950958  22.4251537  -0.4549375  77.0746536  22.5841560   0.4801299
  57.7773819  21.6704769  48.0496178  57.3272400  20.9312057  48.4583702
  57.3549881  21.7657890  47.1959610   0.2678158  30.1468430  41.5283661
   0.6638220  30.5433922  40.7523766  -0.5160815  29.7071724  41.1990852
  21.5978012  45.1372566  66.9021530  21.2678757  44.7900581  66.0734024
  20.9210930  45.7491188  67.1918488   1.4110012  41.7056236  50.8629875
   0.5562221  41.7733345  50.4375458   1.8119572  42.5650330  50.7330627
  64.6659622   7.5227151  74.4597092  64.2605667   8.3171806  74.1122665
  63.9279175   6.9682918  74.7129593  64.6047134  35.1805992  87.9357300
  64.3100739  35.2857437  87.0310974  64.1786728  35.8940353  88.4108429
  70.7406006  51.3885117  33.9383087  70.7971497  50.4334297  33.9090843
  70.9708099  51.6692810  33.0526428  58.7959747  56.2720642  51.3707428
  58.4506645  56.9983292  51.8899040  59.5851402  56.6252289  50.9599915
  66.4986191  24.3867931  26.0708694  66.4756927  24.9004498  26.8782501
  65.8744583  23.6767635  26.2209148  35.2935715  67.4273834   7.1178432
  35.1533165  67.2679291   8.0511904  36.2441711  67.4919739   7.0260925
  25.5783405  44.3401527  41.3298035  25.0612659  43.5349312  41.3078423
  25.3543987  44.7908783  40.5155983  58.3452988  45.0114708  55.0813179
  58.3391953  44.3453903  55.7687263  59.2699318  45.2328300  54.9704971
  21.5556259  41.2980499  63.9406548  21.2870235  40.5108147  63.4670067
  20.9516125  41.3496742  64.6814194  58.5516090  33.2778549  27.9510860
  58.7465096  33.2848740  27.0139637  59.4066582  33.1931343  28.3729248
  83.5249100  24.3800373  21.7013760  83.5783463  23.8409233  22.4905109
  83.7497330  25.2618828  21.9980831  23.0297203  43.9833031  62.3956413
  22.7514286  43.5024605  61.6161690  23.9057541  43.6469498  62.5844879
  39.4872971  70.6050262  51.6113510  38.7885132  70.0696030  51.2355156
  40.1917038  70.5680847  50.9642982   2.8413417  17.8019829   1.5671701
   2.7299113  17.5698090   0.6452645   1.9489274  17.8700600   1.9065726
  70.9649582  19.9323063   1.6739212  70.5748596  19.0582066   1.6716887
  71.5184479  19.9495659   0.8931630  82.8230438  35.0798073  40.3951035
  83.4898605  35.3149300  39.7498894  83.2648239  35.1691284  41.2395477
  45.7781067  44.5008202   5.3469825  45.9886398  43.5689049   5.4057016
  45.2590866  44.5791397   4.5465350  56.5249062  40.1025848  25.4585266
  56.9757919  39.9704247  26.2924747  56.1730232  39.2403564  25.2372265
  13.8867292  61.3126793   1.2608259  14.3544426  61.0250435   0.4767714
  14.2570038  62.1729393   1.4585183  62.3234520  46.4660454  14.2271414
  63.2680473  46.4954681  14.3791542  61.9778938  47.2086372  14.7225027
  74.2969055  57.7266197  37.5423164  73.4945831  57.8765869  37.0422974
  74.6765289  56.9378319  37.1551018  74.3305054  43.1438179  27.4414883
  74.8810425  43.9248428  27.4975224  74.9502563  42.4198380  27.3520813
  38.7422600  42.6523628   6.7434068  38.1287651  43.3467674   6.5032868
  39.0376129  42.2937584   5.9065080  31.2571964  60.4258728   6.3885870
  31.4012127  59.9525223   7.2079945  31.3575764  59.7611694   5.7071729
  55.2042313  17.6534786  27.8385963  55.4114761  16.8491058  27.3629246
  56.0517921  18.0776691  27.9725227  10.0943699  36.3189011  41.6456795
   9.3621101  35.9158478  42.1121292  10.8077574  36.3301201  42.2837906
  31.7431984  26.0366402  14.5679550  32.1647835  26.8954086  14.5997868
  30.9694958  26.1697979  14.0203371  84.1107635  46.1304932  57.9857063
  84.4633408  47.0033226  58.1591873  84.3569717  45.9486351  57.0787659
  60.9579926  11.9361067  13.1696711  61.4883423  11.2420244  13.5610943
  60.4404068  12.2811928  13.8971682  42.7701225  58.9858932  87.3511581
  42.7068901  59.6189270  86.6359634  41.9682007  59.1156197  87.8574371
  49.8840904  65.1577072  59.8936539  49.5154076  65.9626312  59.5297813
  49.7106743  64.4924011  59.2276802  53.1129303  66.8254547   7.6325145
  52.2589188  66.4223251   7.4763608  53.5428238  66.8147049   6.7773485
  77.6156158  43.5871048  80.6206360  77.5201950  44.4690475  80.9802246
  77.9996872  43.7219315  79.7542953   9.0977411  27.5240192   8.6394587
   8.3311729  27.3674259   9.1908960   8.7411528  27.9006596   7.8349590
  28.6282215  48.6372337  10.6698256  29.1816196  49.0279503   9.9935684
  29.2353306  48.1413689  11.2191610  47.4551277  54.2853622  85.0436630
  47.3082542  53.9584351  84.1560898  48.0261917  53.6322212  85.4480438
  72.3417435  13.6246290   9.7445297  72.9274979  14.3608093   9.5680189
  71.6007233  14.0141048  10.2086792  56.4298439  11.3007698  82.6146927
  57.2436447  10.9420147  82.2607727  56.4503365  11.0700645  83.5434494
  73.4052963  60.3749580  14.9484777  72.6209641  60.8253708  14.6351414
  73.1332550  59.9625702  15.7683306  22.7586651  42.5465622   6.6045313
  23.4460945  42.1290550   7.1235328  23.1687508  42.7167473   5.7565346
  82.1302109  51.7413788  34.9066277  82.7599487  52.4449921  35.0634308
  81.7696533  51.9312592  34.0405006  51.3010979  61.9306221   3.2044029
  51.5037689  62.7518196   3.6525030  51.6184883  61.2495422   3.7973809
   6.3352265   6.6040993  18.1299706   6.5120769   5.9596162  17.4446983
   6.9602809   7.3094282  17.9624882  84.9333344  18.5460110  83.8332138
  84.7751007  18.6914940  82.9004593  85.4708710  19.2903328  84.1039047
  79.8813782  14.2001009  66.0982590  79.0509949  13.7268991  66.1509552
  80.4000931  13.8552647  66.8250732  82.9798584  45.9354706  42.4934998
  82.9589233  45.4618721  43.3250656  83.8796234  45.8344574  42.1829262
  66.1638870  21.6789398  50.1440506  66.2748184  21.9865360  51.0436668
  66.7945633  22.1899109  49.6367226  49.2711487  28.8064079  79.1423645
  49.2379723  28.3975410  80.0072098  50.1240005  28.5522499  78.7898331
  36.7436371  14.1557522   7.5311875  36.3213806  13.4970112   6.9798341
  37.6143684  13.7989149   7.7064853  42.3939476  11.3913221  85.4854202
  43.0972672  11.5341206  84.8520279  42.5701485  12.0205498  86.1848907
  11.0300150  61.8396797  20.6416531  10.9296103  62.1175423  21.5521164
  10.9068918  60.8907394  20.6658726  54.8363075  53.9518318  78.8312683
  55.5334511  53.3963852  79.1801224  54.8860855  54.7537842  79.3514786
  23.7986641  35.5747261  65.8795166  24.2904472  36.3945503  65.9271698
  23.0186424  35.7926369  65.3693085  84.6778183  37.9679451  23.0723553
  84.3052521  38.8496361  23.0654831  85.4040298  38.0099373  22.4501896
  82.1110611  26.4905262  14.4865007  81.5358734  26.6534233  13.7389374
  81.5142288  26.3264923  15.2166491  59.3985252  64.9321518  64.8339539
  59.8758392  65.4658432  65.4692307  59.7973557  64.0646744  64.9021683
  76.2304535  71.7645721  59.4533424  75.5106735  71.1376648  59.5250359
  76.9509659  71.2598648  59.0760231  44.9599342  33.8541451  19.2130909
  45.0638046  33.7085686  18.2727451  45.5008316  33.1781082  19.6213017
   9.4689770  46.3745308  47.1593437  10.3969450  46.1883316  47.3023033
   9.0365858  45.5262146  47.2574883  18.0359840  48.8037376   8.9213800
  18.7357121  48.1964569   8.6809216  17.2858467  48.2409592   9.1132307
  68.3363571  39.6387596   0.1827875  68.3917007  38.8690071   0.7490466
  67.4434052  39.9615326   0.3039499  50.6420326  65.5215988   6.3941178
  49.7792320  65.8430405   6.6558189  50.6601295  64.6127777   6.6940160
  75.6413422  33.8877792  64.6326523  76.0713196  34.5611649  65.1598206
  75.2770844  33.2777634  65.2740784   6.0343814  18.3505459  31.2129116
   5.2850585  17.7640343  31.3165989   6.0752716  18.5228977  30.2722435
  22.2124538  68.2197723  17.1297932  23.1009178  68.4508438  16.8587360
  22.3349228  67.6177750  17.8638458  14.9470701   9.3763542  75.6964417
  14.2748146   8.7023849  75.5960922  15.2910681   9.2419157  76.5795212
  85.1413651  20.5953789  16.5190773  84.6243973  19.8023434  16.3773975
  85.1364517  20.7180786  17.4683666  58.2069893  11.8505392  55.9671898
  58.9995880  11.6506147  56.4652405  57.6800461  12.3859682  56.5603828
  10.2136126  16.3423500  26.7901344   9.3720818  16.2006607  27.2237015
  10.8043079  15.7115507  27.2017212  53.9860191   3.6700697  21.3322582
  53.5073128   4.4413896  21.6357994  54.8240509   3.7116640  21.7929134
  10.8502769  18.7195282  10.5814123   9.9581385  19.0386734  10.4455204
  11.2317762  18.6939659   9.7038956  78.7262650  44.7687607  30.4702320
  78.4113922  45.2570190  31.2309494  79.1021423  43.9688797  30.8378334
  24.1362820  61.4832802   6.3733249  23.1990318  61.3324051   6.4959183
  24.3773670  62.0805397   7.0814157  28.7628651  68.1962509  73.6534119
  29.2737083  68.9607925  73.3874283  28.6388149  67.6981888  72.8454666
  55.4745140  31.4595470  88.3106308  55.4692802  30.7657852  88.9701004
  56.3924332  31.5353775  88.0500412  67.6325226   6.2334075  61.9864922
  67.2972183   6.1183500  61.0973511  67.9877243   5.3761349  62.2213211
   2.7921145  49.8571854  55.4384384   2.4254200  48.9981194  55.6476593
   3.1664701  50.1652679  56.2637711  43.8270569  68.6894302  66.3879013
  44.3005295  69.0854950  65.6563339  44.4665833  68.1093750  66.8011551
  55.0179405  56.6729698  26.8255711  55.8883514  57.0581551  26.9268341
  54.4287071  57.2984161  27.2472916  52.4720612   8.8436823  84.7442093
  53.3066444   8.6564236  85.1739044  52.5951233   8.5471888  83.8424454
  31.7691975  50.5965004  72.5100250  32.5692978  50.6784058  71.9910278
  31.1007309  50.3294601  71.8790970  35.4822426  37.6010284  67.1108322
  34.7202530  38.1673431  67.2328720  35.9763565  37.6853065  67.9262924
  47.3209190  66.5919266  16.4647465  47.8645706  66.0248718  17.0116692
  47.6347580  67.4768143  16.6510620  14.9023399  59.5529442  18.3768120
  15.8207569  59.6809044  18.6142330  14.4958487  60.4070778  18.5232735
  10.5838900  31.4308643  77.8478470  10.4821835  30.8922005  77.0631638
  10.2402678  32.2880592  77.5961151  16.2000294  66.6508484  15.6798439
  16.2821484  65.8046722  16.1196976  16.9199944  66.6638336  15.0491991
  64.2652130   1.5350085  47.5860214  64.6094818   0.7157851  47.2302399
  64.5909424   1.5610170  48.4857178  47.0315285  20.9183350  54.9126320
  47.9175568  20.8284855  54.5617523  46.4602356  20.6580658  54.1900597
  59.0577087  29.1913757   8.0496874  58.3957405  28.7464943   8.5789413
  59.2728004  28.5647526   7.3588095  63.9652634  44.6529732   9.2237539
  63.3781281  45.0119934   8.5584650  63.7539635  45.1422386  10.0188656
   3.8509560  49.1854858  85.7510910   3.9076176  49.5619469  86.6293335
   3.2665546  49.7753563  85.2749023  86.3877411  53.7387924  82.8454971
  85.8792725  54.4187851  82.4035721  85.7298279  53.1506920  83.2163391
  18.0993443   9.7912807   1.1655400  17.2311382   9.4730387   1.4128661
  18.6560974   9.5738230   1.9131835  55.5861435  70.2971268  21.3402042
  55.8883476  71.1558990  21.0445251  54.7048874  70.2147903  20.9757271
  30.8262253  69.2762604  82.9687042  31.3440857  68.6406860  82.4746323
  31.2663689  70.1127930  82.8179550  82.2295990  24.8370705  57.9762383
  82.4666748  25.7393970  58.1903191  81.6424637  24.9156456  57.2243538
  83.1764069  45.0626488  19.4948063  84.0126953  44.6231041  19.6486034
  82.7147217  44.4911308  18.8812542  74.4599533   8.5048409  48.6546364
  75.0334549   9.2650747  48.7514648  74.0011368   8.4426899  49.4924049
  40.6252060  63.9259529  49.3322830  40.5836334  63.6765900  48.4090691
  41.1184845  63.2195015  49.7492142  45.6633492  42.0376587   2.6459227
  45.0605164  42.7697220   2.7759442  46.4991875  42.4511337   2.4299581
  78.0814362  28.3477879  62.0515556  77.5951996  28.7073650  62.7935181
  77.4462738  27.7979374  61.5927925  24.3255501  11.9476366  76.1240463
  24.9682541  11.2460823  76.2288666  24.1960430  12.0144348  75.1780014
  37.5691833  30.1627541  14.1137714  36.7046165  30.4810085  14.3735209
  38.1749802  30.5992775  14.7126780  23.2935791  58.1681023  17.6059780
  22.3522568  58.3402672  17.5835896  23.4159698  57.6050377  18.3703117
  86.5162888  44.0833054  44.2572250  86.8720627  44.4585190  45.0627518
  85.6462784  43.7690277  44.5032616   0.3304459  71.0705566   0.5425032
   0.4308256  71.9809113   0.2642554   0.6373999  71.0619812   1.4491109
   8.5314589  60.4876175  57.6271973   9.1273060  59.8513565  58.0226364
   9.0657501  60.9445801  56.9776230  12.8082113  57.3722954  24.9249935
  13.7394161  57.5381927  24.7781334  12.3624315  58.0784836  24.4572220
  79.6593704   5.4636707  25.9852371  80.3380280   5.2248130  26.6165924
  79.2763367   6.2669511  26.3377399   3.5448842  20.3637371  20.0965748
   4.3333268  20.6801376  19.6555748   3.5687695  20.7803307  20.9580345
  71.4315796  44.8286476   1.2637732  70.9119110  45.6183968   1.1138626
  71.0228577  44.4135780   2.0233083  19.1923008  19.6542244   1.3227007
  19.1038322  19.8263512   0.3852693  19.9853401  19.1230850   1.3948972
  85.5289841  62.8476677  46.7460938  85.5263596  61.8909264  46.7165146
  85.9966278  63.0610466  47.5535660   4.8547516  46.0590744  86.0840759
   5.2525330  46.7380943  86.6289978   3.9566534  46.3594360  85.9446716
   0.2483606  56.4541931  88.1314545   1.0305178  56.9887810  87.9947968
   0.3372532  55.7353172  87.5057220  51.1694145  68.7585297  79.3681259
  52.0914764  68.9980469  79.4612198  50.9462585  68.3377228  80.1983948
   3.0865645  24.6550808  81.7984619   3.0805871  24.3139324  82.6927872
   2.6232903  25.4906025  81.8577347  46.1801262  60.1677437  30.1130352
  46.9219437  59.7270660  30.5274544  46.4568558  61.0807724  30.0353603
   0.2813568  27.6897926  86.6837311   0.4774962  28.5018559  86.2164841
  -0.4787757  27.9025955  87.2251587  59.5714989  35.2214966  30.0892887
  59.9356766  36.0084152  29.6838665  58.7244835  35.1009865  29.6600189
  84.9368896  48.2393684  35.5336876  85.0093689  49.1117744  35.1465378
  85.8389664  47.9916077  35.7364426  54.5270805  11.1517048  11.8360920
  55.0366554  11.4802971  12.5767632  53.8831215  11.8388653  11.6647463
  55.0304794  19.8335552  88.2860870  54.9006996  20.7808189  88.3317032
  54.1594238  19.4650955  88.4335175  56.6296120  23.2152805  42.9760933
  57.1744041  23.9787369  42.7848587  55.7670975  23.5800762  43.1741524
  57.4616051  22.2603321  21.8796902  56.5224953  22.3894558  22.0124531
  57.8674011  23.0340157  22.2708092  65.5286179  22.2651634  23.4223042
  65.9703369  21.8827629  24.1805172  64.5993347  22.2444305  23.6508541
  68.8480530  53.4747162  61.5862465  67.9000778  53.3694077  61.5056839
  68.9754562  53.8328819  62.4647179  70.5685959  21.6312752  58.4866791
  70.8583832  20.7991104  58.1128387  70.4154968  21.4379616  59.4115715
  40.3941078   8.5445776  20.4264240  40.1813774   8.1709776  19.5712032
  40.9866676   9.2702236  20.2301064  12.1851149   6.2617202  81.2129593
  11.3505135   6.3387432  80.7506409  12.0225439   6.6589885  82.0685196
  76.8620758  61.9635277   9.0014668  76.4872513  62.8422318   9.0615683
  77.7930450  62.1111374   8.8349075  31.9076424  63.2027740  44.1193810
  31.7958355  63.8626900  44.8036652  32.8479424  63.2003403  43.9403305
  60.7071571  17.2690315  31.0356541  60.8985481  16.9457912  31.9160614
  61.3473816  16.8306732  30.4751320  56.4874725   7.9518180  30.8623390
  56.9628677   7.3524580  31.4376640  57.1728363   8.4413700  30.4075336
   1.0096421  31.3543301  39.0455017   1.9391974  31.4241886  39.2629356
   0.9959604  31.1885967  38.1028557   2.0165789  42.0153236  25.8597679
   1.4512887  41.4686890  25.3139935   1.6862564  41.8883476  26.7491474
  38.1618881  66.8684082  54.9019623  37.9766045  67.0953293  55.8132324
  38.4170647  67.6968384  54.4959717  62.5658455   5.0632997  53.4176674
  62.3650284   5.9506383  53.7152138  61.7632141   4.5682473  53.5817986
   8.1248360  66.9369354  54.8689270   7.4818807  66.2326431  54.7863998
   8.1469908  67.1324615  55.8056831  55.7145653  19.8642979  56.6471443
  56.0481110  20.5515594  56.0703850  54.8223038  20.1399841  56.8571396
  22.0807858  67.0419006  42.7340012  22.2911072  67.9546890  42.9310074
  22.9270763  66.5946884  42.7388725  11.6867456  45.0838852  53.6004677
  10.9027586  44.6971664  53.2105370  11.9174738  45.8025360  53.0117950
   9.9013100  61.3812370  34.8030281   9.0426235  61.7331810  35.0376015
   9.9601717  61.5048599  33.8556709  11.0807180  36.9812164  87.4237442
  10.4565239  36.4222412  86.9609680  11.9394732  36.6608849  87.1477737
  46.0950050  23.6004906  66.7603073  46.4148750  22.7418823  66.4833527
  46.8851662  24.1335793  66.8480301  78.0686035  11.2970934  15.5731468
  77.6554337  10.5441427  15.9957457  77.6052475  11.3885508  14.7405806
  56.4124794  47.5350037  34.8589935  56.5295677  47.6629028  33.9176331
  55.5854607  47.0590935  34.9350090   5.6667509  21.7134838  18.9320126
   5.7204471  22.6615047  19.0528641   6.2783542  21.5278435  18.2194748
   0.7663685  61.2479782  51.2729607   1.6344130  60.8497238  51.3371620
   0.2135338  60.5591888  50.9039421  55.9900208  34.6540337  44.9450645
  55.1631470  34.2929497  44.6254921  55.8638039  35.6024742  44.9174042
  33.7359314  59.7949562  20.3952503  33.2496529  60.3613663  20.9943695
  33.1207466  59.0956764  20.1743717  72.2235565  27.0190792  11.9890137
  72.2510834  26.1973648  11.4988508  72.7504883  27.6258907  11.4690590
  56.0778198  41.6424866  80.3204956  55.3625259  42.2328835  80.5571671
  56.7059860  41.7277184  81.0376892  70.8772049  65.3647537  74.9473877
  71.3113403  66.0246353  74.4067307  70.5671005  64.7093430  74.3224869
  75.5875778  47.6352615  17.6911049  75.4481430  47.0914993  18.4664192
  76.5062866  47.4947395  17.4620724  27.7453289   9.9543095  54.5037537
  27.4730206   9.4448185  55.2669716  26.9488449  10.4015913  54.2177773
  18.7415047  60.7639008  55.4377823  18.1186123  60.9550591  56.1389923
  19.1987667  61.5919609  55.2912827  55.7965317  61.9867020  80.3621597
  55.0046844  61.5871773  80.7221451  55.7464981  62.9034996  80.6327438
  78.5399475  31.8744736  19.3872681  78.6090775  32.5310402  18.6941776
  77.6620102  31.5076199  19.2829571  48.7536430  23.1684551   4.4297729
  48.8650513  22.8548412   5.3272505  49.1455421  22.4845581   3.8866944
  82.4277191  42.9391556  71.3554077  81.6105804  42.6684875  71.7740555
  82.8502121  43.5071831  71.9996719  18.7270203  38.7648773  87.9486389
  18.4182434  39.5430984  87.4846802  17.9790668  38.4895363  88.4787216
  86.0734863  46.7834625  62.5529900  86.7208939  47.4827728  62.6427193
  86.5918961  45.9792938  62.5248680  71.0867462  25.9064903  15.6817980
  70.4359207  25.2254524  15.5119600  71.8437576  25.4335060  16.0274181
   3.3202376  56.5203972  42.2958870   3.0309365  56.9995728  43.0723724
   4.2500749  56.3534813  42.4500732  13.9302702  63.6872406  44.9204559
  13.1951246  63.2811661  45.3796883  14.1658697  63.0561943  44.2403793
  69.2375793   3.7318747  21.4759693  70.0178070   4.2411156  21.6954060
  69.5554733   2.8335350  21.3856411  39.9520569  69.5040283  32.0044098
  39.4884338  69.6342850  32.8316422  40.7133522  68.9727249  32.2375946
  42.2161064  34.2681770   4.1679521  42.7708893  33.6158867   4.5956974
  41.8357620  33.8062363   3.4208393  50.0029716   0.4112686  22.4021358
  49.2448807   0.9201375  22.1147575  50.1496468  -0.2190495  21.6968575
  53.5191154   2.0708025  26.8291569  52.8652573   1.8280524  27.4847279
  53.8381386   2.9269273  27.1146488   3.8528743  68.7678146  19.0764599
   3.8946462  67.8115234  19.0776501   2.9995358  68.9707565  19.4596825
  68.8380356  43.9399376   6.7339683  68.1835861  44.3884048   7.2695146
  68.6403656  43.0097656   6.8432589  74.8761673  56.8361855  65.3524628
  75.2054214  57.5697594  64.8331375  74.0423279  56.6072845  64.9419250
  12.3997974  11.4065800  25.8833160  11.8571711  10.8686457  26.4598694
  12.7843952  12.0649881  26.4619465  16.9859829  37.4314728   6.9470901
  17.1461449  38.3733406   7.0059686  17.7491817  37.0872879   6.4830894
  59.9706383  21.2774811  58.8531761  59.5509491  22.1159573  59.0456581
  59.9384346  21.2069473  57.8991241  40.5584526  36.9313545   9.4779358
  40.6630974  37.0021706   8.5291119  41.3307686  36.4462662   9.7685347
  41.6049194  49.7572594  75.0478821  41.5471573  50.6949577  74.8645248
  40.7530098  49.4088821  74.7849960  86.2022018  39.7359772  18.8127747
  86.1509552  38.7825813  18.8809280  86.2600327  39.9061241  17.8725948
  65.5176926  11.5481281  65.7255783  66.2033463  11.0816202  66.2035675
  65.9916153  12.1676788  65.1707916  43.9965363  49.3817291  55.7017212
  43.5228310  49.7534828  56.4457855  44.6428795  48.7969208  56.0972824
  25.2229061  58.0999222  73.8934555  24.3044586  57.8506889  73.9962540
  25.5218868  58.2852058  74.7836838  58.6000977  14.6822300  46.6895294
  57.8467941  14.1174088  46.5170708  59.0248260  14.7818146  45.8375206
  63.0390434  52.4103012   6.0181298  62.2950783  52.1386223   6.5556583
  63.3439293  53.2219086   6.4238009  10.9386072   7.5495424   4.2572031
  11.3010712   7.8780928   3.4344597  11.0261765   6.5984135   4.1946173
   4.6082225  50.7217255  74.7383575   4.3168015  50.3252716  73.9173050
   4.3389854  51.6377945  74.6708069  18.4326477  42.1224747  23.2567043
  18.4620323  41.1659851  23.2344475  17.9501534  42.3287163  24.0572643
  75.7396164  23.5414219  28.7861691  75.1413574  24.2261581  29.0852623
  75.5537338  22.7952309  29.3561516  48.0370560  20.8568325  77.0688324
  47.7640648  20.8401337  77.9861298  47.8123398  19.9878712  76.7362061
  66.6328735   7.5750871  56.2342949  67.5207977   7.2672377  56.0524750
  66.0649261   6.9349842  55.8054199  36.5834389  64.0613480  47.4187469
  35.6520538  64.1453323  47.2145424  36.9645729  63.6597710  46.6379089
  51.5496597  35.6480484  69.5097961  51.7228241  35.1503906  70.3089066
  51.1456947  35.0150261  68.9162216   7.3042984  55.6178093  87.2027664
   6.9355969  56.0596008  87.9676895   7.7946844  56.3006325  86.7450485
  51.0635185  21.9817944   3.0208113  51.2462463  21.0425549   3.0466838
  51.9131622  22.3863602   2.8456943  48.6642761  69.8793335  86.1163788
  49.0360184  70.2433472  85.3129272  49.3544426  69.3154602  86.4655914
  72.3672943  69.3010864   0.2877078  72.6594162  68.4211121   0.5254762
  71.4878540  69.1735535  -0.0680266  74.3837585  66.1171799   8.8704395
  74.0888367  66.9648895   8.5378246  73.6135101  65.5527725   8.8042078
  64.5739441  60.6694145  27.9080276  63.6235886  60.6586952  27.7942543
  64.9105301  60.1795578  27.1577072  79.0039444  50.7362328  25.9971409
  78.5373764  51.5301704  25.7359772  79.7429428  50.6824150  25.3911572
   3.2252235  61.4409256   9.1178389   3.1973426  61.8821106   9.9668446
   4.1583896  61.3586006   8.9212294  58.4980621   8.7664709  17.0404625
  58.5840416   8.1934500  16.2785664  59.3098488   8.6365232  17.5307140
  42.2940979  17.6307011  86.0785294  42.3923264  16.9093056  86.6999588
  42.7896767  17.3524990  85.3083115  11.4791660  43.5181694  82.3667984
  10.7364988  42.9565086  82.1449585  12.0043087  43.5478477  81.5670624
  33.5675087   5.9884624  29.9009800  34.1964912   5.9981513  29.1795082
  33.9131393   6.6231842  30.5285950  12.0963831  35.4003067  10.8318338
  12.6804991  36.0729027  10.4816160  11.5115137  35.8749352  11.4225016
  50.4608078  40.8889046  14.8913183  49.6864433  40.7936211  14.3367805
  50.2753143  41.6568069  15.4318266   4.7922888  58.6113892  48.1892052
   5.7311277  58.6922379  48.0210495   4.4074526  59.3840256  47.7754860
  70.1900787  11.1992683  12.2710657  70.9097672  10.6652212  11.9347935
  69.6131210  11.3253641  11.5177746  44.2271996   3.0966396  74.8776703
  44.1706276   2.4293327  74.1937561  45.1024513   3.4704962  74.7757111
  10.8980742  36.1207123  55.3396187  10.3227587  36.6196327  55.9195557
  11.1564922  35.3579102  55.8569031  80.0226746  16.8027401  69.0117645
  80.5892487  16.8438206  68.2413559  80.0548859  15.8856754  69.2841415
  84.4498215  29.2717705  60.0934143  84.7357788  28.3584404  60.1103516
  84.6902771  29.5818806  59.2203445  67.3463669  68.6715088  68.7492599
  67.8405609  68.7626190  67.9345856  67.9227295  69.0358429  69.4210510
  30.1334591  15.4520063  83.0281448  30.0971165  14.6048460  83.4722519
  29.2239799  15.6402140  82.7965088  39.4802170   9.7298889  32.3462639
  40.0060921   9.4355364  31.6025906  39.2807007   8.9287205  32.8305702
   5.1089759  46.7393150  13.1573906   5.1975713  47.1970558  12.3214159
   4.2098384  46.9168472  13.4335537  64.0423431  40.5723610  47.8704300
  64.0399704  40.2794838  46.9591408  64.8733063  41.0368042  47.9705772
  31.5441380  51.7638092  38.1749344  31.5749760  52.0345078  37.2573242
  32.0283012  52.4447823  38.6419373  70.1727295  69.3004074  34.6851387
  70.5623093  68.4525681  34.4715500  70.8092041  69.7168732  35.2662506
  15.7157860  14.9326906  65.1681747  15.3989925  15.0718040  64.2756958
  16.6617661  14.8225813  65.0721130  13.1879921  11.4887733  23.1073952
  13.3957405  11.2714243  24.0161476  12.3792763  11.0101004  22.9255085
  78.4513321  10.3745565  79.9794159  78.5109482  11.1992035  80.4617386
  77.5280457  10.1289492  80.0381393  41.5248451  66.7575455  61.2779121
  41.6486549  66.9696732  62.2030640  42.1218605  67.3456421  60.8153648
   0.4696790  60.9772224  26.9838181   0.3106616  61.8643379  27.3062611
  -0.0708608  60.9079208  26.1968956  60.4228630  34.9959106  74.7580414
  60.6263924  35.9007301  74.9949265  59.9734306  35.0641632  73.9156723
  23.5629749   2.9629390   9.4054232  24.1293602   2.2170498   9.6031294
  22.7489662   2.5690236   9.0916538  26.4938850  64.8240967  34.3229904
  27.0710697  64.1266861  34.6339760  25.6427803  64.3998566  34.2140274
  82.8017426  39.3567238  48.8142319  83.1315460  39.1558189  47.9383926
  82.0043945  38.8334541  48.8957787  55.6921501  39.9998398  59.0730286
  55.4206543  39.1489944  59.4173927  56.4954948  39.8159065  58.5861702
  36.0227203   3.2436383   9.5062466  35.7098694   2.8039265   8.7156706
  36.9453392   3.4270461   9.3291264  25.9582291  58.7126350  60.0757713
  26.0851173  59.4427948  59.4699669  25.8967724  59.1244354  60.9376717
  61.4304047  19.9656525   3.4762568  61.2427940  20.8408737   3.1371047
  61.5079651  20.0870285   4.4225569  32.6923981  70.4704590  46.7665901
  33.5114441  70.0933838  47.0878525  32.0702972  69.7432251  46.7854195
  40.7572289  20.1848698  77.4945908  39.8559761  20.4639893  77.6560593
  40.8515778  19.3765907  77.9985886  84.6003342  25.4308834  30.0849590
  84.1507950  26.1777592  30.4803352  84.0940628  24.6694050  30.3679276
  30.9418430   3.1411006  82.2306061  31.8890553   3.1177812  82.0946732
  30.7567177   4.0488172  82.4714584  42.0582771   5.1534138  71.7602081
  42.1105957   5.5171380  72.6440659  42.7454109   5.6080971  71.2730331
  76.9903183  20.0314674  51.7985535  76.4975967  20.8437214  51.6815262
  76.9099045  19.8349094  52.7318993   1.7354362  -0.0297118  23.3554745
   1.9090855   0.8852085  23.5768299   2.6031363  -0.4172086  23.2406940
  71.3865891  66.0223999  85.2210388  71.0950241  65.4114609  85.8977737
  72.3053589  65.7972107  85.0748138  71.9051743  19.0151005  48.6373329
  71.7217255  18.8636265  47.7101669  71.0415268  19.0865231  49.0438232
  38.3191757  55.2279320  38.3348541  38.6018410  54.4795151  37.8093033
  39.1296539  55.6900177  38.5489540  52.1092110  22.5932426  87.5546494
  52.6976585  22.8840370  86.8579407  52.1727638  23.2761021  88.2224045
   9.8222580  56.5454216   1.9968951   9.1463995  57.0710373   1.5689063
   9.4505024  56.3271103   2.8515108  62.0059357  54.3035011  45.0805702
  62.0241432  54.5458221  44.1547279  61.0975418  54.4446411  45.3472710
  31.2840881  36.3579025  82.0838852  30.4608288  36.7846146  82.3213577
  31.9563713  36.8634186  82.5407410  26.1297112  57.5667648  41.5208092
  26.8282852  57.2382927  42.0867920  25.5278435  56.8280334  41.4298859
   4.4742818  66.2875748   7.5037684   4.6206512  67.1470718   7.1087093
   3.5218692  66.2058105   7.5533295  36.5763168  63.5303421  59.4435692
  36.3332863  63.0750999  60.2497444  35.8440895  64.1227798  59.2729988
  54.3533096  67.1554489  70.9298859  54.6244812  66.9902496  71.8328857
  53.3977928  67.1953430  70.9702377  57.8761597  46.9929619  26.4728832
  57.4338417  46.7754288  25.6523552  58.4443245  47.7304993  26.2504826
  12.2105837  45.4257622  69.8732986  11.6632710  45.4007416  69.0884094
  12.1020708  46.3141518  70.2127457  68.7538223  57.2689972  61.5447273
  69.0054321  57.1613388  62.4619713  68.2817154  56.4645195  61.3298645
  38.4161377  52.3763199  88.7176895  38.2140388  52.5512085  89.6368179
  38.8877029  53.1556778  88.4236450  70.0493240   5.6519642  13.3367500
  70.7921600   5.0929880  13.5647249  70.3545074   6.1615338  12.5861273
  32.6175575  68.4719772   1.7152158  33.3581390  69.0746384   1.6476034
  33.0160789  67.6236343   1.9094483   8.9381161  16.9970684  21.7330494
   9.8195047  17.1136551  22.0877247   8.4159508  17.6754494  22.1612701
   4.8443575  69.2458649  86.8058014   4.4157834  69.9226990  86.2819138
   5.3718996  68.7540588  86.1764679  43.9108200  58.3160133  54.8598099
  44.8473892  58.1338005  54.9364548  43.4913483  57.6442833  55.3974457
  18.4520435  10.2857637  60.4149780  19.1942234   9.6817169  60.3919983
  18.1646023  10.2774029  61.3279610  10.6678333  10.4426565  27.9341183
   9.9385786  10.2110748  27.3589745  10.2589111  10.9078627  28.6639118
  40.3094864  65.5549850   6.0753498  39.7252388  64.9131622   6.4790235
  40.3365631  66.2801437   6.6995664   5.5065246  58.2196808  76.8006973
   4.5689297  58.0559502  76.9023819   5.8692622  58.0865974  77.6764526
  10.4842186  39.2968903  20.6667366  10.8219833  38.4993401  20.2592278
   9.5884981  39.0750389  20.9210968  37.6819458  32.9551201  11.6660480
  37.0441666  32.8195839  10.9652653  37.1759338  33.3466797  12.3779907
  65.8351212  69.3888321  82.9253159  66.1553802  68.7804031  82.2593765
  64.9695892  69.6521988  82.6127167  28.2415066   0.6491440   9.8600283
  27.6395321   1.1471637  10.4130516  29.0427246   0.5806897  10.3792534
   0.3787639  56.7287827  69.6369400  -0.0302600  57.0625267  68.8384705
   1.1686594  57.2592850  69.7411728  14.7190685  57.7899017  52.6856537
  15.6220274  57.4723473  52.6781616  14.7946529  58.7219582  52.8900871
  58.7254448  57.5023537  66.9406052  59.3353500  58.1992874  66.6986771
  59.2454643  56.7003899  66.8889847  60.2835007  58.6463547  53.9752121
  60.0980835  58.0816422  54.7255135  59.4486198  58.7102089  53.5113945
  55.7120552  36.1673470  57.4088783  56.0398560  35.4065857  57.8884888
  54.8481674  35.8991280  57.0958557   2.7081189  10.5207376  17.0867920
   2.3063307  11.0369816  17.7855701   2.6954470   9.6218395  17.4155064
  48.4832878  47.6389961  82.1192627  48.9511490  47.6589966  82.9540863
  47.5690689  47.7994041  82.3531494  28.5755157  62.8448906  30.1687298
  28.5425301  62.6097603  29.2414455  29.0254803  63.6895638  30.1857777
  64.9520569   9.7525797  83.4372635  64.7215500   9.9877291  84.3360443
  64.2174377   9.2195301  83.1332397  74.7619476  63.4028893  75.3034897
  74.1749344  63.1038094  74.6090851  74.4284668  64.2675171  75.5431519
  17.4961815  32.1889839  62.1940193  16.6729450  32.4976463  62.5724945
  17.2421627  31.4555035  61.6339188  57.3962021  45.3902321  14.4423866
  57.0995064  44.5224724  14.7166071  58.1369553  45.2175217  13.8612776
  72.2089996  45.8680191  27.2503796  72.4421539  44.9422836  27.1804371
  73.0394363  46.3118095  27.4226112  79.2813492  62.2414284  44.8852005
  79.2190399  61.4728088  44.3181229  80.1320953  62.6262054  44.6744728
   0.3754556  32.8743324  43.0797844   0.2372873  32.0598755  42.5962601
   1.3093923  32.8728638  43.2895279   7.0116630  10.8280621  78.0403900
   7.1925077  11.2842951  78.8622055   6.9281592  11.5270233  77.3917694
  11.4934816   0.6132496  48.2953911  11.3944750   1.3076918  47.6441002
  10.6507158   0.5879428  48.7485313  78.8099518  43.7641869  71.8446732
  79.1801529  43.5667076  70.9843369  78.1136093  44.3963051  71.6664276
  35.3904152   2.2132564   7.1480446  34.9757271   1.3516054   7.1907220
  34.7591438   2.7599738   6.6802564  56.5902596  26.6401882  25.7733250
  56.6550941  26.5214520  26.7209167  56.2429810  27.5256996  25.6661034
   2.3534651   7.3314209   1.2815440   2.7102416   6.8854909   0.5133718
   2.4183171   6.6855693   1.9850363   1.5065602  29.1162148  55.2327118
   0.8113884  29.7736855  55.2591896   1.3077573  28.5279751  55.9611893
  76.9028244   5.0994391  26.5564747  76.5122528   5.6262827  27.2537003
  77.8106613   4.9725466  26.8320885  12.7411604  52.6076355  36.2131195
  12.2613773  53.3993416  36.4565086  12.5342655  51.9798431  36.9054375
  55.2352829  65.3707047  85.3240204  55.8820152  64.7822342  84.9345779
  54.3937645  64.9465561  85.1561508   2.7253466   9.8773975  34.8696861
   1.8211102   9.6085367  35.0318642   2.6706870  10.4544458  34.1079369
  42.5362701  37.4224167  60.5051880  41.6664848  37.7266998  60.2461243
  42.4459381  36.4722252  60.5773849  43.3749390   2.6622875  34.0900192
  43.3122292   2.4194775  33.1662521  44.2485695   3.0432391  34.1787605
  54.4760551  68.8222427  88.7429962  53.9515457  68.0318375  88.6149750
  54.1488953  69.4359283  88.0852814  74.9959259  52.7032356  87.1834869
  75.2615051  51.8445396  87.5126419  75.5230255  52.8309174  86.3947601
  19.1064320  61.4113503  30.6978970  18.5755749  60.7378578  31.1231384
  18.8305893  62.2297668  31.1106129  78.6088409  28.9960365  16.4386292
  78.2894135  29.5631905  17.1404362  79.0062790  28.2532597  16.8931141
  63.4704056  47.3765182  39.6625481  62.8603020  47.7879372  39.0503883
  63.6901779  48.0703125  40.2843056  28.9816246  65.8463364  58.6857719
  29.7813549  66.1081543  58.2295761  29.2823524  65.2562408  59.3768463
   8.7839279  13.4994717  74.5600815   8.2320747  13.1601505  73.8554230
   9.3739853  12.7760811  74.7716751  17.6058407  19.4536629  84.2578659
  16.6758118  19.4612770  84.4841843  17.9913425  20.1371250  84.8060455
  15.2558880   3.9027503  36.4963036  15.9365463   3.2829540  36.7585793
  15.4881268   4.1487818  35.6008873   5.1575475  18.9145546  81.0937195
   4.3054447  18.6675472  80.7343521   5.7715263  18.2925396  80.7033844
  34.6772690   8.9129181  64.7927017  35.2125740   9.1552553  65.5483093
  34.8591385   7.9827480  64.6587677  30.9044361  55.1814079  13.7373705
  31.7775707  54.9420242  14.0481176  30.3135242  54.5916672  14.2056208
  28.3209610  17.8082905  61.8824806  28.2643604  18.4226952  61.1506767
  28.0269279  18.3120365  62.6414375  66.3738556  30.9274635  55.8219833
  66.4955063  30.6441822  56.7281761  65.7911148  30.2701511  55.4417419
  57.6656265  23.9989834  82.0426483  58.0732422  24.5975723  81.4167328
  57.0599632  23.4775620  81.5158463   4.9124169   3.6743746  29.3429375
   5.5781064   3.7096994  30.0298443   5.2249722   4.2845135  28.6749020
  17.7725410  50.5471268  32.2525063  17.7086086  51.4130325  31.8495808
  16.8638687  50.2724113  32.3753052  36.3130035  10.4096661  34.8643417
  35.8459930  11.2398853  34.9585075  35.8684273   9.9653215  34.1424370
   8.4445963  26.6437168  19.4423332   7.7033877  26.1251926  19.1293221
   9.1856852  26.0382061  19.4229412   1.1540134  40.4998741  64.4576187
   1.5463002  41.2996407  64.8079300   0.6917378  40.7851677  63.6694946
  72.8605270   0.6987052  71.8165359  73.3104248   1.0919889  72.5642929
  73.5646439   0.4441121  71.2201920  22.8266888  58.7072945   0.3760525
  21.9799633  58.8288536  -0.0534986  23.3782978  59.4035873   0.0194908
   6.7679324   1.9121604  77.7845154   7.6406908   2.2894652  77.6742172
   6.7524400   1.1653786  77.1859283  48.9545708  67.2613831  69.6405869
  49.4027176  67.2867889  68.7951584  49.3456802  66.5162430  70.0966873
   2.3489687  44.9172401  35.8714371   2.5480630  44.3071976  36.5816803
   3.1948109  45.3022881  35.6422653  19.4883938  56.1050148  18.1633739
  19.7198906  55.2460365  18.5166416  20.2329311  56.6640053  18.3857002
  63.9618759  47.5171013  74.0112228  64.4264069  48.2973785  73.7085495
  63.0869865  47.8321877  74.2382050  15.9213696   2.1783984  73.9679718
  14.9928350   1.9528995  74.0245972  16.3055725   1.4799823  73.4380341
  71.4238129  26.3430290  40.7408600  71.3286057  25.9579201  41.6119843
  72.2462463  26.8309135  40.7832527  27.2398567  34.3229141  58.2246819
  27.7866440  33.7193108  58.7275887  26.3937721  34.3090668  58.6721001
  12.0382137  46.9057388  62.8310814  11.1396399  47.2231903  62.7415199
  12.2881670  46.6412811  61.9457474  57.3918343  51.1567612   0.7935081
  58.2671547  50.9407883   1.1150751  57.1333961  51.9262161   1.3008339
  11.5833540   4.3722539  65.0455093  12.1012354   3.5675642  65.0679855
  12.1909065   5.0392370  64.7257538  46.1746330  27.2682266  68.7773438
  45.9515533  27.6439018  67.9256744  46.8898087  26.6599541  68.5908966
  77.7276077  30.4769096  81.0648880  78.5593872  30.0699387  80.8224945
  77.9245529  30.9674721  81.8628845  84.5076828  69.0499344  30.1629314
  84.7532120  69.4507523  30.9967728  84.1555023  69.7731018  29.6440620
  18.7507191  60.5268478  78.6754074  18.7931843  61.0531998  77.8770447
  19.3211746  60.9832954  79.2938461  52.1179390   7.8378134  74.3272934
  52.5408173   6.9798470  74.2912292  51.1813774   7.6453032  74.2822952
  57.3382607  15.4450836  40.5009842  57.1335297  15.9844751  39.7371941
  56.7394753  15.7549267  41.1804581  67.1550140   6.4630961  59.3779488
  66.2491913   6.1939645  59.2253456  67.6412582   6.0973687  58.6390076
  11.2499456   2.6577802  24.5833111  11.7963247   3.1596088  23.9784393
  11.8199902   2.4828081  25.3320885  21.0157108  11.2156658   9.2441416
  20.7405949  11.1991291  10.1608038  20.8241138  12.1070328   8.9526148
  58.4765244  19.7003689  21.1792622  58.0877304  18.9985161  21.7012520
  58.2709732  20.5004902  21.6627750  81.6010666  16.6741734  28.0955982
  82.2717361  17.3482914  28.2051640  80.8984604  16.9364185  28.6904087
  63.1298714  52.6886444  66.0794678  63.0690918  53.5250778  66.5408936
  62.7755318  52.8691254  65.2087784  38.8799171  14.3663206   3.8022108
  39.0294380  14.9389458   3.0498967  37.9453201  14.4552526   3.9888952
   0.8533836  49.2824059  24.1369877   0.0076362  48.9905357  23.7967587
   1.2405770  48.4964943  24.5225410  66.4389954   7.7053351  23.3593636
  65.5971298   7.8072720  23.8033295  67.0897369   7.8030758  24.0544968
  64.1346588  49.4063492  41.3643837  63.7152519  50.2616310  41.4583054
  64.8716202  49.4326630  41.9746552  30.7303028  46.0451431  18.9927425
  29.9148750  46.2159500  19.4640522  30.7000027  46.6355476  18.2399216
  12.7722645  28.2930946  57.1010704  12.1291294  27.7362633  57.5398712
  12.4540119  28.3631496  56.2010498  78.2680130  45.0765877  61.0981407
  77.8355713  44.9899673  61.9476852  78.4941788  44.1796608  60.8519516
   7.5617018  66.9463120  74.0688858   7.7387123  66.7953949  74.9973907
   6.8716416  66.3195343  73.8516464  46.1006470  49.9372559  77.3339920
  45.9636612  49.3035736  76.6297760  46.9729843  49.7348099  77.6720276
  59.9659042  51.3048286  48.0102882  60.0931473  51.7859726  47.1926498
  60.3245316  50.4349136  47.8345871  18.1635666  24.2344475  78.5676575
  17.3401375  24.0103111  79.0012054  17.9033184  24.7851772  77.8292847
  56.1736374  61.6208191   6.3272033  55.8507957  60.7245140   6.4201927
  56.6964493  61.6051178   5.5255461  44.9866486  48.2458229  53.2638054
  45.4693222  48.2131729  52.4378586  44.0990410  47.9713097  53.0335236
  84.9513474  64.4761581  44.2294197  84.7909698  64.5730972  45.1680984
  84.5720596  63.6256027  44.0082169  31.8274593  70.6847076  51.0639458
  32.4964371  70.4809113  50.4103661  32.2933464  70.6586456  51.8997116
  30.4544716  42.4250717  42.9148750  30.5675335  43.2446213  42.4334297
  31.3279839  42.2210655  43.2489243  42.2749176  48.3031502  61.7140045
  42.0989876  48.6594505  60.8431854  41.6794205  48.7795448  62.2925034
  65.9369812   1.2996362   9.6001740  65.1786804   0.7502239   9.7985754
  65.6573105   2.1858170   9.8297424  61.3976746  36.5903282  49.4792862
  61.2315636  37.4203987  49.0324974  60.5454750  36.1549683  49.5004272
   2.7483892  59.9203911  83.2225571   2.0057092  60.0702858  82.6375885
   3.5182261  60.0186195  82.6622620  71.1552048  65.8045120  22.1854992
  71.1708984  65.2038956  22.9306431  72.0648193  65.8433762  21.8899956
  19.7905006  34.7105637   6.2843575  20.1530247  35.0261803   7.1121225
  20.4478569  34.0988998   5.9527202  27.1817284  20.5921574  61.6110954
  26.3946095  21.1304207  61.5277252  27.4685764  20.4460754  60.7096481
  48.5540810  15.1163473  83.7091522  49.3237076  15.6737690  83.8239746
  48.8016396  14.2814178  84.1064377  30.7354736   7.4391241  78.0498657
  31.3088188   6.8659658  77.5409470  29.8690662   7.0392380  77.9746246
  65.1577072  21.9234428  27.3712387  64.5732346  21.1881466  27.5555401
  65.7929153  21.5737057  26.7463989  43.9303665  64.6014862  56.5123634
  43.7985802  63.6934662  56.7850761  44.2240944  64.5383835  55.6035347
  39.4561272  55.3574753  12.4157629  39.5139046  54.4307289  12.1833086
  38.6048660  55.4441719  12.8447933  45.9994583  55.6829071  70.5060806
  46.3921165  56.0694389  69.7233582  45.3434219  56.3215790  70.7852631
  54.8014832  67.5422287   9.7054491  54.4799080  67.1429367   8.8971224
  54.0486298  67.5264511  10.2963734  77.7510910   1.7307118  26.1931572
  77.1238708   2.1471746  25.6020641  78.5677948   1.7027849  25.6947193
  49.0441551  24.6377335  64.3675461  49.6033974  24.2779541  63.6790466
  48.1774025  24.2741451  64.1865005  56.7160873  42.9838066  34.2410431
  55.8476524  43.2482224  33.9375038  56.8362656  43.4567680  35.0645065
  60.7333221  44.3423576  68.6863174  60.8822556  45.2151451  68.3225937
  61.5669098  43.8874245  68.5663147   8.6820393  24.1763058  60.4233551
   8.0689106  24.1969452  59.6885910   9.2949257  23.4744587  60.2042313
  29.9833546  55.3537369  30.5516777  29.7050838  54.4497795  30.6988621
  30.8680515  55.3941498  30.9148712  63.1750717  57.0175285  22.1894855
  63.9313049  56.4775658  22.4192352  63.1933975  57.7365265  22.8211002
   7.8954563  66.8936691  26.3883686   7.9220471  67.7423706  25.9465199
   8.0950298  66.2590027  25.7001820  16.0484295  60.3672943  52.6080475
  15.7577047  60.3742371  51.6960945  15.7825003  61.2205772  52.9507179
  29.6323986  27.4102077   7.9564633  30.0434990  28.2731590   7.9060283
  30.3597527  26.7932873   7.8752365  69.7823334  12.0600348  59.2974815
  68.9651718  12.4328241  58.9665756  69.6048584  11.1224089  59.3722725
  43.4646950  59.6681252  32.0647278  44.2697601  59.1641846  31.9457970
  42.7652092  59.0648460  31.8137112  64.0102463  52.6521873  36.1622086
  63.5682259  53.5012131  36.1589890  64.9373627  52.8644257  36.0543633
   2.6587033  54.8475418  60.2166710   3.4316099  54.8404236  59.6520500
   2.9619095  55.2454109  61.0327568  50.8977776  18.0463009  22.8093090
  51.2337990  18.8951225  22.5215168  51.2874756  17.9150028  23.6736755
  30.8287849  62.4017296  75.8959045  30.1654644  62.7358017  75.2920609
  30.6569824  61.4612999  75.9440079  18.4255428   3.9962533  80.4441147
  17.7518711   4.2232265  81.0851135  18.3690891   4.6860404  79.7828751
  23.5832443  25.7103462  12.9056435  24.5067482  25.8845615  12.7239285
  23.5931206  25.1556168  13.6856499  80.4232941  36.1231194  40.7694092
  79.9734497  35.4005432  40.3315086  81.3504639  35.8891106  40.7266426
  58.7753677  55.5380211   2.1185458  59.3494034  55.6786499   2.8715003
  59.3727989  55.4356651   1.3777145  71.7806320  23.6609383  64.3575745
  72.5791397  23.6820030  64.8850021  71.3726807  24.5139580  64.5064545
  19.9162598   1.4679947  77.3989716  19.1901588   2.0541713  77.1858826
  20.3324547   1.2861302  76.5563889  22.5348797  53.2461891  61.4807243
  22.9744625  53.5976944  62.2549591  23.2017174  53.2715492  60.7944908
  68.9257202  68.3340149  85.9349594  69.5674744  68.9812012  85.6424942
  69.3113708  67.9541016  86.7243729  65.4220123  49.7306252  32.6750755
  66.2177811  49.3606224  32.2928658  64.7180099  49.4294548  32.1007042
  40.6536026  21.7972794  74.8894577  40.4132080  22.6387310  75.2772751
  40.8074570  21.9946041  73.9655380  46.3573265   7.0315404  73.3228378
  46.2370148   6.8103681  72.3993454  46.0246506   7.9257231  73.4002762
  56.8093224  40.4166069  35.5894737  56.6742859  41.1812477  35.0297241
  56.7374306  40.7569008  36.4812508  60.4428253  39.6370544  31.3148003
  60.7133446  40.4670982  31.7073307  59.9947014  39.1726036  32.0216980
  44.6478233  66.0272598  70.1631546  43.8094521  66.4119797  69.9075165
  45.1256866  66.7467880  70.5756531  66.8717575  42.6494446  21.2730713
  66.1359177  42.1702881  21.6541004  66.8701859  42.3962593  20.3499641
  58.5075645  11.7422819   3.8210332  58.5628662  11.1819181   3.0469747
  59.3003578  12.2775469   3.7863617   4.6049562  15.2084837  88.4051895
   4.1169090  16.0027027  88.6225815   5.4072733  15.2709856  88.9234695
  21.4519558  63.5645103  15.7298174  22.3300304  63.9449425  15.7519302
  21.1811047  63.6402130  14.8148632  69.8003006  46.0993385  57.1216202
  68.8571320  46.1413269  56.9638596  70.1535339  46.8637314  56.6664619
  21.7079639  14.0793486   4.2040105  22.0683842  13.6926975   5.0020266
  20.8113842  14.3194256   4.4379797  62.9213638  61.1434669  12.2365055
  62.2548599  61.4250069  11.6098146  62.4485092  60.5867157  12.8551064
  12.9045887  22.8167648  53.0606422  12.1603928  23.4187565  53.0638924
  13.5150452  23.1871471  53.6981316  15.1055202  56.9328194  78.5245743
  15.1814709  56.8977776  77.5710373  15.7982721  57.5340805  78.7980881
  21.8403072  56.0829010  53.1035652  22.6309853  56.6217728  53.1296463
  22.0753040  55.2893715  53.5845184  80.6829834  65.9480362  43.5027428
  80.1667709  66.0963058  42.7104187  80.0633621  65.5659637  44.1242905
   1.2151041  47.8700371  41.8180466   0.5308052  48.2767258  42.3496208
   1.6564772  47.2670708  42.4162521  63.4398613  29.2077789  17.6761436
  63.7510223  28.6116905  18.3573856  64.1752167  29.8010578  17.5228481
   6.8717771  41.4506111  36.0152893   7.1086640  41.0380363  35.1846848
   5.9536710  41.6984863  35.9063377  20.3061771   9.1799383  74.8330917
  19.7229290   8.8158131  74.1671524  19.7436962   9.3161688  75.5955124
  34.0050545  14.9244165   1.7880821  33.4583321  14.3760386   1.2254020
  33.4788666  15.7090387   1.9421127  71.9433136  37.2715607  72.7137146
  71.3989639  37.1773186  71.9320221  71.5635986  38.0151787  73.1817703
  68.3107224  66.7844467  83.6842651  68.4598389  67.2898254  84.4833832
  69.0058441  67.0661163  83.0895309  22.9164696  60.6704369  77.4758682
  22.5242405  60.1100502  78.1454620  22.7319870  61.5619431  77.7715302
  38.7673569  25.6793880  78.2388840  38.9592934  26.6108627  78.3472748
  38.6801567  25.3472652  79.1323776  65.9883194  43.2049217  41.6492462
  65.3820648  42.6633301  41.1439095  66.8216782  42.7360497  41.6056519
  40.5781784  60.5600777   6.2214150  41.1516418  60.4273720   6.9762416
  41.1487541  60.9339790   5.5499430  78.5158386  29.4983597  49.5522766
  77.9118195  29.7313213  50.2573433  78.0868683  29.8118095  48.7560539
  73.2136536  67.7548065  29.3113098  73.3138733  66.8332748  29.0726490
  73.8615036  68.2127457  28.7757645   1.1066457  17.2124367  61.0298958
   2.0539432  17.3418789  61.0757713   0.7493456  17.8299713  61.6680336
  68.0385361  20.1790409  12.0024548  67.5822296  19.8981323  12.7956152
  68.5331726  19.4079857  11.7248926  73.7774582   5.6495271  50.0807495
  74.6371765   5.7077527  49.6639404  73.9344101   5.9039907  50.9900589
  81.6897812  15.3081512  83.8927689  81.5749741  14.4008980  83.6100235
  81.8518448  15.2469549  84.8341675  64.7771378   9.8825665  42.9727364
  65.2581406  10.2670450  43.7055702  64.2166901  10.5909872  42.6560783
  46.3484383  23.4356976  72.0134201  45.8461876  24.0974693  71.5379944
  45.6879234  22.9215736  72.4777832  57.1205711  22.2181015  35.3807907
  57.2807808  22.9408073  35.9876366  56.3127708  22.4602032  34.9279366
  81.3141937  53.7621574  66.5791702  82.2135925  54.0822945  66.5097046
  81.2335663  53.1195984  65.8742981  84.6511688  53.4210320  50.8081741
  84.7864685  53.4153099  51.7557487  83.8679199  52.8871994  50.6748390
  31.6244068  58.3415527  55.4219589  32.4164543  57.9675751  55.8080063
  31.7497807  58.2455597  54.4778748  42.8888397   2.0297062  31.4429512
  43.1974678   1.2357783  31.0063076  41.9576340   1.8712857  31.5978565
  74.9777298   0.1594998  84.6157684  75.4126282  -0.3607740  85.2913513
  74.0912704   0.2942553  84.9508362   4.5816464  63.2016563  80.7842331
   4.9858108  63.8891487  80.2548599   4.2616973  63.6562843  81.5634537
   8.8968630   2.8857312  54.1259956   9.2969446   3.2794001  54.9013596
   9.0312376   1.9447401  54.2387390  38.1170273   0.1232082  57.7435760
  38.7478828   0.7093582  58.1615295  38.0759659  -0.6372247  58.3234787
   3.0853102  21.5664730  12.3104343   2.3817465  22.2153740  12.2979383
   2.6951103  20.7981224  12.7271032  74.0457764  50.0267563  36.4645576
  74.6947403  49.9129829  37.1589127  73.4548187  49.2804108  36.5644112
  69.8331985  68.5602493  59.3558121  70.3137589  69.3784637  59.4816284
  69.4154053  68.3954544  60.2011070  29.7157497  52.1912346  49.6181297
  30.5042419  52.5315361  50.0408630  29.1382427  52.9507446  49.5415726
  69.9794693   4.0322585   1.1937815  70.3919220   4.8814397   1.3519027
  70.2736588   3.4839506   1.9211328  82.5309830  13.6918411   9.8854961
  83.0595856  13.9259977  10.6483688  82.7893677  14.3216724   9.2126083
  20.5116520  18.2535152  84.2732620  20.9154263  17.9252415  83.4698715
  19.6144981  17.9211521  84.2435379  20.2010632  69.6891785  64.6559830
  20.8329754  69.6736526  63.9371758  19.8843937  68.7878723  64.7159958
  41.8010941  29.6407261  61.4901810  41.7179337  29.8107414  62.4284859
  42.4851990  30.2428074  61.1973839   4.3893452  61.4803658  50.2139626
   5.2939916  61.4378052  49.9040680   3.9784303  62.1463585  49.6627502
  41.9777260  29.6205254   9.9789820  41.7269745  30.5396843  10.0711908
  42.7052269  29.5081863  10.5908251   5.1021237  54.6104431  52.3247643
   5.6419163  53.9415550  52.7460060   4.6001668  54.1324005  51.6646538
   4.3724022  63.6688118  69.8848267   4.9336677  64.3930664  70.1617203
   3.6170814  64.0931931  69.4778595  22.7573528  40.4693985  73.6720963
  22.5317745  40.1173439  74.5331421  22.3018913  39.8986816  73.0531693
  24.9178028  16.6771832   2.7806094  24.8407097  17.5461159   3.1746180
  24.1534290  16.1994686   3.1027188  46.4527512  18.1308079  72.2382965
  45.5341759  18.3763065  72.3486786  46.4330368  17.1831417  72.1049805
  64.2547379   7.5274506  70.3096771  63.3729782   7.4761677  70.6785889
  64.4728165   6.6232171  70.0837631   0.7096999  60.4830170  63.2637482
   0.5301631  60.6599236  64.1871643   1.3832031  59.8029747  63.2766991
  53.9269028  15.8627787  82.3176651  54.3687592  16.2639809  81.5693054
  54.3212128  16.2828655  83.0820465  40.9439468  48.9709778  22.1914825
  41.5300560  48.3902206  21.7062740  41.3935204  49.8160210  22.1955948
   6.2836971  42.2889366  62.5653610   5.7534208  42.0408401  63.3226509
   6.0417929  43.1985474  62.3912315  70.1927948  20.0972862  25.4787388
  70.9680328  20.1625900  24.9210949  69.7404480  20.9322891  25.3587894
   7.3308692  13.4159317  55.2506409   7.5700531  14.0744781  55.9028206
   7.6700521  12.5938826  55.6047897   2.3079591  24.3225594  25.9740677
   2.3360071  23.3657951  25.9671707   2.1198733  24.5501003  26.8846073
  14.2714310  20.0569687   5.8993855  14.4075794  20.4250984   5.0263591
  13.3584108  19.7695217   5.8983955  78.6054535  22.6746387  79.1663513
  79.4954147  23.0268612  79.1544495  78.0573349  23.3984280  78.8631516
  76.6897354  22.8167744   8.7345219  76.3459167  23.5707321   9.2136564
  77.6395493  22.8834152   8.8327370  32.2587967  22.7603168  78.8307343
  32.7816849  23.3779068  78.3194580  32.4622383  22.9712276  79.7419739
  34.6372337  51.8923912  38.7319870  34.9244156  52.7088814  38.3232079
  34.3345680  52.1534996  39.6017265   4.5999985   0.4968963  85.2018204
   4.0062003   1.2120539  84.9733810   5.3996911   0.6831646  84.7098541
  37.5173111  48.3088837  48.2439194  36.6241722  47.9746284  48.3264465
  37.5185928  49.1177254  48.7557869  52.4078331  25.2904549  85.7387161
  52.9969559  24.6832962  85.2909241  51.5391617  24.9022007  85.6342850
  53.8738670  59.6896973  77.4765320  54.8208427  59.8075752  77.4018631
  53.7718353  58.8614883  77.9454575  56.1787262  39.9387474  67.4389420
  55.9550552  40.7085304  67.9620438  56.7960014  40.2651787  66.7842331
  15.0920687  15.3322563  73.0806885  15.8155975  14.7151098  72.9717407
  15.0314980  15.7815466  72.2376556  84.4695511   3.7285175  54.6580200
  83.8922958   3.5233500  55.3934860  83.9659042   4.3409514  54.1218376
   5.5390043  57.5628319  57.0770874   4.7430735  57.7231102  57.5840721
   5.4675732  56.6488991  56.8016701  84.1568985  40.0127907  27.7776184
  84.1360855  39.4153633  28.5251999  83.5502777  39.6269073  27.1456852
  73.7977524  24.1084156  43.9537201  73.9285049  24.4125023  43.0555763
  74.1469650  23.2171993  43.9580765  72.3321533  27.0032902  67.6423645
  71.9760895  26.5026321  68.3763962  73.1828766  26.6006527  67.4680786
   1.9083648  44.7493324  67.1318741   2.5036368  44.0289917  67.3392181
   1.7591113  45.1856918  67.9706573  56.8653526   7.9608712  37.4867020
  57.8217278   7.9856977  37.5177498  56.5877953   8.6091270  38.1339722
   0.5142221  36.6067886  70.8749924   0.3898429  36.9120216  69.9763336
  -0.1613840  37.0614662  71.3780441   4.9612947  57.1620827  50.7561722
   4.3275509  56.4448090  50.7670898   4.5950127  57.7959518  50.1395035
  84.0817490  13.2417650   6.3759084  84.6228180  13.9384212   6.7475967
  84.0950241  12.5496588   7.0370021  51.4294701  26.3297710  61.5542183
  51.8360710  26.9125652  60.9129219  51.9491310  26.4486580  62.3492355
  41.7521095  36.6092262  23.4811287  42.2708435  36.1044502  22.8547516
  42.3754616  37.2241554  23.8678169  51.7635536  67.4072189  72.0826416
  51.6474152  68.2969437  71.7492676  51.8514519  67.5158310  73.0295868
  68.6023026  41.6996956  30.2581520  68.1739502  42.5362968  30.0769310
  69.1108246  41.8582993  31.0534382  24.3283939   8.4991302   2.1047049
  23.4943428   8.9653378   2.1616325  24.0825195   7.5782318   2.0168226
  85.7261429  24.9189167  55.9309578  85.0210342  25.3935318  56.3711777
  85.3530960  24.6645031  55.0869522  34.7300949  44.9268341  26.3921623
  35.0331116  44.4264641  27.1498165  35.2937737  45.7002678  26.3749218
  11.4050283  20.6986580   1.9240515  12.2890720  21.0637417   1.8864871
  11.3619509  20.2625618   2.7750494  13.0373259  50.0405655  34.5800781
  13.1284399  49.1907196  35.0109978  12.6901169  50.6178970  35.2600555
  78.6401138  67.7264023  81.4487457  78.3548355  66.8127594  81.4593735
  77.8352814  68.2300491  81.5704193  30.5639057   1.9443781  49.3760223
  31.1780338   1.8241501  48.6517105  30.7860680   1.2499197  49.9961853
  11.1041861  38.0358772   8.6990728  10.7887182  38.0923119   7.7971148
  11.2351370  37.0995865   8.8488703  34.6181564   3.4800220  53.8845253
  34.1936951   3.3208578  54.7275734  34.3659401   2.7312255  53.3442268
  41.6954994  37.2571220  50.9156265  41.6470184  36.7334175  51.7153854
  42.6080666  37.1837349  50.6362267  65.4772568  15.4366350  11.4233408
  65.4290619  14.7240515  12.0606270  65.0218124  16.1657047  11.8443594
  15.8104095  66.0949097  29.6046715  15.6930008  65.2654495  29.1415920
  15.2246733  66.0329742  30.3591976   0.5443640  16.1726685  74.2486343
   1.1113489  15.9173622  74.9763565   0.2008131  15.3454752  73.9110641
   4.8294663   3.7247901  42.5209656   5.6484237   3.5277486  42.0663071
   5.0898342   3.8726242  43.4301338  42.8432007  51.4189034  84.0229874
  42.7058182  51.0114174  84.8781586  42.3898735  50.8427544  83.4075394
  67.5593491  41.3460999   7.1157513  68.3978271  40.8843765   7.1139641
  67.3657150  41.4945755   6.1901751  13.6657352   7.7106266  29.9094944
  14.1869621   7.1213069  29.3642826  14.0986795   7.6929440  30.7630024
   6.5104299  50.2823677  28.5940323   6.0513496  50.6577263  27.8426437
   7.4251146  50.5336647  28.4658337  84.5446396   1.0397464  47.8249054
  84.3206482   0.1509449  48.1007500  83.7534637   1.3634084  47.3941956
  37.0311737  55.6644287  20.9618111  37.1975250  55.9814262  21.8495464
  36.3392258  56.2360497  20.6291065  74.1806564  54.1918221  12.4415541
  73.6823273  54.6399422  13.1249933  74.8174362  53.6600952  12.9190550
  78.7531204  14.7901878  45.1214180  79.5625000  14.3496685  45.3804207
  78.3309021  15.0213251  45.9487915  29.4968414  70.6171112  60.9091759
  30.0980740  70.4967499  61.6442032  29.6882458  71.4971008  60.5848045
  59.0876236  56.2683029  13.0821209  59.0399132  57.2185135  13.1872644
  59.9833031  56.0440712  13.3345222   2.2033980  22.7298222  15.4890051
   1.6404045  22.7437210  16.2630062   1.6866236  23.1622200  14.8091459
  43.6095047  61.7301445  29.5890312  44.3348083  61.4301529  30.1369076
  44.0271912  62.2495689  28.9020329  61.5385056  13.0865154  52.2553673
  60.7884979  12.8993893  52.8199043  61.5175743  12.3961744  51.5926247
   7.5327811  35.0884514  64.8432007   6.7280569  35.0883827  65.3615189
   8.0263338  35.8418579  65.1672592  75.5950317  62.1260643  25.3202839
  76.4469833  61.6900063  25.3363571  75.5469589  62.5258904  24.4519157
  59.8954773  28.8710194  21.7396126  60.5390892  28.1664848  21.8146191
  59.1483498  28.5688877  22.2560863  57.1421356  13.9692421  82.0474396
  56.4807663  13.4130898  82.4591675  57.1160545  13.7271643  81.1217270
   6.2362814  65.6332626  30.2682896   5.8673224  64.7716751  30.0739517
   6.8975177  65.4647751  30.9395657  15.9311657  24.9665871  55.1241264
  15.1723576  25.3846302  54.7170868  16.4045219  24.5669117  54.3944550
  59.9141922  66.8538208  43.1121979  59.9196396  67.8105164  43.1427307
  60.6823387  66.5935822  43.6205864  12.3893213  17.8783340   5.9668584
  12.9223490  17.5992737   5.2223868  11.9703465  17.0751057   6.2759166
  40.6720695  67.3201904  52.7303391  41.2903214  67.0235291  53.3981628
  41.0715179  67.0582047  51.9008598   1.7393417  68.7321548  83.9963226
   0.8045837  68.6124039  84.1640091   1.7975905  69.5827942  83.5613098
  13.7351503  17.9170914  67.8822708  12.7793016  17.9022179  67.9308853
  13.9634857  18.8448811  67.9397125  56.0837898  51.0392342  28.3798046
  55.6997490  50.9319344  29.2499943  56.4281273  51.9323540  28.3784351
  42.0535355  34.9846306  80.5692444  41.7843399  34.6204300  81.4125290
  41.5084229  35.7638130  80.4598846   1.8629059  14.1957722  48.0735741
   2.5243683  13.6664362  48.5191116   2.1814437  15.0948067  48.1542206
  68.6544189  43.3467674  65.6519318  67.8913422  43.9140892  65.7619171
  68.7923813  42.9605522  66.5168228   8.4519405  56.7850571   9.3317356
   8.9620905  57.5097237   8.9700241   8.4075851  56.9683304  10.2701788
  80.5817719  28.1018581   6.2652078  80.3595352  27.5403595   5.5225363
  81.0374298  28.8472271   5.8740158  29.8347759  69.4440994   1.6255476
  30.6429615  68.9693756   1.8197112  29.9895535  70.3274231   1.9602469
  78.6508255  48.0836029  79.5943985  77.7675705  48.4486046  79.5408325
  79.2246170  48.8489990  79.6284714  45.5161858  51.2946548  23.2700176
  44.7435455  51.3024750  23.8349934  45.1625824  51.3018837  22.3805542
  10.6291561  63.8973465   8.8077440   9.6816521  63.7836456   8.7333183
  10.7789412  64.0553589   9.7398539  45.2511559  51.2052879  42.3903046
  44.4624519  51.7122269  42.1974602  45.1156616  50.3711967  41.9406776
  30.0512028  45.1789398  42.2334900  29.9114532  45.5936508  41.3821869
  29.5195465  45.6935349  42.8407555  31.6860390  51.0489120  61.7411461
  32.5243568  51.0575371  61.2792130  31.7716541  51.7325859  62.4055977
  70.3267670  57.4619522  79.4004898  69.9497910  58.2508316  79.7900925
  71.2048035  57.4048042  79.7773361  51.5100708  53.5551567  62.0148506
  50.6099739  53.8552132  62.1414490  51.5911140  53.4333191  61.0689049
  37.3687515  11.8406668  61.7068977  36.7098160  11.5233593  62.3244362
  37.9840927  11.1128426  61.6182632  62.8985138  32.9613495  31.1090565
  62.8833694  32.2724686  30.4446430  63.8072510  33.2617798  31.1219082
  15.0179996  46.2707825  66.9960632  14.4126415  46.5873947  66.3255920
  15.8143682  46.0482330  66.5138779  43.6206818  18.2286682  77.3367920
  43.4383926  19.1683502  77.3362579  42.7900391  17.8236942  77.5863113
  71.4725571  53.7568321  37.6775742  71.1419144  53.6446953  38.5688248
  70.7118378  54.0478783  37.1747437  85.8771744  56.7135391  39.6234665
  86.5290222  56.5222321  40.2978058  85.9201813  57.6631737  39.5113220
  56.4111519  25.5997543  17.1207447  55.5873985  25.5593357  17.6065731
  56.2768059  25.0179119  16.3726521  50.5652351   2.4865124  86.1912918
  50.9297905   3.2817886  86.5797043  49.7170258   2.7582817  85.8407059
  82.0233536  29.7503262  72.9113922  81.6777420  28.8668156  72.7841415
  81.6784439  30.0222492  73.7618790  54.3515129   1.6743103  32.7897072
  54.1074371   2.1576610  33.5790291  55.2886696   1.5078427  32.8909836
  59.6071815  13.2541065  27.5634632  59.8345528  13.3090210  26.6352825
  59.1256065  14.0622158  27.7403069  35.1926003  35.8656006  10.8176794
  36.1282120  35.8359566  11.0176382  34.8080521  35.1845284  11.3694897
   1.1986998  43.6345901  41.3008842   2.0604346  43.9722023  41.5451431
   1.1428571  43.7812195  40.3566322  17.5709667  60.8381577  27.9134083
  18.4813976  61.1086388  27.7943058  17.5750465  60.3355141  28.7280045
   3.6734631  41.8598442   8.7236338   3.6267354  40.9977570   9.1369734
   4.0345769  42.4311829   9.4014263  82.5273819  68.5251312  23.8498154
  82.6386566  69.4337921  23.5702038  81.6937714  68.2561417  23.4638634
  12.5843019   3.9737895  36.6714554  13.4919224   4.1118894  36.9423523
  12.6401949   3.3280852  35.9670563  31.3800240   5.6373205  56.2614250
  31.1178646   5.3910589  57.1484756  31.7453785   6.5170689  56.3551826
  45.3102951  59.6604538  88.8758926  44.9458275  60.2669563  89.5205307
  44.5586014  59.3925781  88.3472824  17.0135078  23.1854496   1.3284314
  16.9847775  23.3278351   0.3823167  17.9233952  22.9481602   1.5074080
  62.3405571   5.4567995  44.1652336  62.8667755   6.2552791  44.1233406
  62.2254982   5.2946324  45.1015549  11.2719259  67.5915070  82.8075180
  10.5914650  68.2452698  82.6468735  11.5117188  67.2762833  81.9361038
  51.2027092  15.9841337  83.0175018  52.0960999  15.7575703  82.7591248
  51.1442299  16.9287510  82.8742905  66.4305420   9.3600798  35.2630844
  66.3343277   9.2666235  34.3153305  66.3922958   8.4639139  35.5972366
  30.6347713   8.2434368  58.5545845  30.9581261   8.0774918  59.4400978
  31.3666649   8.0081244  57.9843292  56.1459694  27.5717373  12.0399885
  56.1729431  27.5037098  12.9943876  55.8271217  28.4584980  11.8719931
  44.0368805   5.2197671  83.1830826  44.5306015   5.0153289  82.3889313
  43.1200981   5.1899347  82.9094849  70.9398193  13.3624096  22.4649067
  71.1904907  13.8466091  21.6781750  70.1377487  13.7905464  22.7642555
  24.7044201  48.8096046  31.9288712  24.8897858  47.8844032  32.0897255
  23.8367462  48.9494934  32.3080864  71.4620895   9.6839018   5.2246938
  71.9392471   9.9070454   4.4254684  71.2121353   8.7675095   5.1064610
  55.2347641   1.4732138  86.2937775  54.6855278   2.0921354  85.8126221
  55.3594856   1.8800379  87.1511993  37.5622292  19.9175777  85.6028366
  38.1986275  19.2124100  85.4846344  38.0685844  20.6361790  85.9815826
  25.8487873  28.5773716  78.7604904  25.3534641  28.8712025  79.5250473
  26.2623196  29.3719959  78.4231567  61.9126740  41.2801514  25.9397888
  61.9847755  40.3994255  26.3076973  61.2304535  41.7026062  26.4616451
  26.5873356  36.3558960  11.4162235  25.6735229  36.4241676  11.1396103
  27.0410328  35.9914207  10.6562567  82.2088776  59.4115829  88.7908859
  83.0885925  59.0364418  88.8308792  82.2932816  60.2658043  89.2144547
  65.1206436   0.4663405  23.4789028  65.2792053   0.5915102  22.5432644
  64.6014099  -0.3362576  23.5285683  56.5818977  20.4103947  79.8271713
  55.6415749  20.2721939  79.9408722  56.8244133  21.0039139  80.5379181
   3.0802674  27.2265663  77.6185455   3.6826296  27.0279675  78.3354492
   2.4212916  27.7991962  78.0110703  29.0991611  25.6010590  84.7089005
  28.3973846  26.0160580  85.2104111  28.6455956  25.1066017  84.0262451
  57.6686172  45.9276657  77.8981171  57.0251846  46.3176003  77.3063660
  57.6246071  44.9891777  77.7149811  83.4429092  67.3726120  62.7775116
  83.3351898  68.3228989  62.8172455  83.6736832  67.1201401  63.6715126
  86.2046051  54.1730728  17.6805325  86.0044785  55.0260086  18.0661278
  85.3613510  53.7213287  17.6475716  67.6413269  53.0509949  52.6349564
  68.2467957  52.5637550  52.0761757  67.8636780  53.9698524  52.4849625
  43.6727257  48.9338989  47.7892914  42.7677765  49.0448341  47.4977570
  44.1192207  49.7264099  47.4912949  77.7100143  55.1569672  12.5699358
  78.1923294  54.6582222  11.9104958  76.9888000  55.5591888  12.0858936
  40.6487999  27.6574535  14.9657650  40.6233368  26.7009220  14.9909115
  40.3779335  27.8809319  14.0753040  40.0887833  31.1070728   6.6748247
  39.2566109  30.9999943   7.1355357  40.4918404  30.2393456   6.7035594
  67.5583420   0.0272975  44.1591034  68.4824371   0.1746702  44.3605194
  67.1884995   0.9061147  44.0746841  60.9330139   6.2061725  31.0228310
  60.4316254   7.0188642  31.0889702  60.9751320   6.0264950  30.0835896
  39.5537262  65.6131516  33.0369301  39.2339516  64.7125702  32.9827461
  38.9322128  66.0535278  33.6165962  62.0201035   7.6202006  54.2240868
  62.0246391   8.3141193  53.5647812  62.7317085   7.8521109  54.8208008
  84.1690140  55.0160522  85.2934418  84.0595016  54.1511383  84.8982697
  84.0425110  55.6283035  84.5686111  42.2564850  56.1530609  83.6873550
  41.7060547  56.5895920  84.3375092  43.1219864  56.1132088  84.0942383
  10.4925203  51.7912712  20.4496593  10.8559179  51.2398872  21.1425877
  10.4678059  51.2231483  19.6796875  84.7451477   1.5772262  17.5288410
  84.1240997   0.8726612  17.3441200  84.3822021   2.0216751  18.2949810
  73.3283768  46.3699112  86.0191650  72.4129410  46.1044579  85.9311371
  73.3683243  46.8151093  86.8655930  41.0431633  47.4598770  51.2971954
  41.3596344  47.9675941  52.0443916  41.8385849  47.1667290  50.8526649
  46.2759247  23.0813713  58.7007828  46.5778198  23.3992786  57.8498878
  46.1214981  23.8756390  59.2121773  77.2718353  46.9318199  54.7302780
  76.4379349  47.3380547  54.4940300  77.7379150  46.8408928  53.8991737
  69.8247223  14.9503698  58.8634796  69.1720123  14.3709192  58.4704819
  70.3016891  14.3922138  59.4776382  73.7529221  66.3784103  39.8671303
  73.7151871  65.5562668  39.3783684  74.6400986  66.4034195  40.2256317
   8.2397270  34.0192566   9.1614552   7.4837518  33.7611198   8.6341066
   8.8801994  34.3344803   8.5237541  47.3056679  16.7279472   3.3773844
  46.5293617  17.2240524   3.1176634  47.6424217  17.1935501   4.1429200
  26.4523125  31.1634636  78.2225647  25.5341663  31.2122002  77.9563522
  26.6148796  31.9913673  78.6746445  50.1718979  27.2316990  18.0309849
  49.9296455  26.4898109  18.5851936  49.7097588  27.0762901  17.2072697
  48.2924805  34.0166817  83.1896057  48.1095505  34.0597305  84.1281815
  47.4421234  33.8387718  82.7877655  28.2352829  29.9664326  80.0283127
  27.7286758  30.4268436  79.3592834  28.6280994  30.6637230  80.5533981
  56.9691925  63.0438957  78.0472717  57.8025360  63.0618668  78.5178528
  56.3460274  62.6822662  78.6774445  84.8906174  29.6697235  86.1335907
  85.0167084  29.5036449  85.1993790  84.0883179  29.1968269  86.3547745
  37.6890678  15.3875132  85.6001358  37.1104813  16.1202240  85.8113251
  38.4936409  15.5700521  86.0854950  70.2267914  18.8102341  79.1816254
  70.2687759  18.6547012  78.2380829  69.3622437  18.4899635  79.4389267
  -0.0801301  38.8411331  16.3427162   0.4836326  39.4390945  15.8519554
   0.4872591  38.1016769  16.5606804  14.6526489  69.3644638   9.8198299
  13.7693348  69.7322998   9.8459711  15.1500015  69.9742584   9.2748318
  81.9852600  41.6469078  54.2631340  82.1076202  41.7477684  55.2071075
  82.4028854  40.8110352  54.0554390  62.0094414   4.6766195  88.4756546
  61.8735428   3.7947745  88.8222198  62.8011436   4.9872279  88.9149246
  12.0328140  20.3953133  12.6913977  11.5188122  19.9108925  12.0453548
  11.5032272  20.3677597  13.4882736  57.2251663   4.8460317  13.9996605
  56.9920235   4.8837504  14.9272671  57.3256149   3.9120550  13.8157320
  76.1526260  36.4175339  35.2295837  75.9588776  37.2361450  34.7728920
  75.3942337  35.8603516  35.0545921  16.0228996  25.4769821  67.4486465
  16.3262577  26.2018013  66.9019775  15.6764822  25.8987389  68.2349930
  48.0980377  59.0102234  17.7680130  47.2427940  59.0127602  17.3381462
  48.6886101  58.6193428  17.1240635  77.1908035  24.6986637  61.3368835
  76.4660645  24.3790112  61.8742943  77.2001190  24.1169109  60.5768127
  68.2286835  37.7642517   8.4967861  68.8459930  37.0354805   8.4330740
  67.9687653  37.7781410   9.4179163  16.8446388  16.7032166   7.8973269
  16.8697758  17.5423279   7.4374437  16.3386192  16.1297150   7.3217659
  32.0868340  48.2471390  41.5931091  32.3264885  47.3951759  41.2284737
  31.9495716  48.0786438  42.5253105  60.5272446  22.5085945  27.8030357
  59.7959061  23.0977669  27.6179638  61.2473640  23.0900326  28.0471458
  54.2946739  43.8932457  61.0624847  55.0471153  43.3016052  61.0672913
  53.5669785  43.3578377  61.3787575  12.0395422  45.8467140  47.3694153
  12.1332254  46.2049904  46.4867554  12.9339571  45.6389160  47.6397400
  10.1907692  41.8791084  57.6122513  10.5236330  40.9817009  57.6025124
  10.9603281  42.4180336  57.7954712  52.5224876   1.1409816  16.2180328
  53.2839813   0.7194976  15.8196497  52.8340645   2.0105262  16.4691143
  42.4685097  43.5807724  59.4633255  41.5491219  43.8266296  59.5658531
  42.8376541  43.6619720  60.3427429  34.3171349  41.8048058  75.5814590
  34.6027832  42.7102814  75.7029343  34.4831848  41.3859253  76.4259644
   6.3678927  19.8292809  50.4525604   5.6277704  19.5216389  50.9758263
   6.6272135  19.0679245  49.9335976  54.3345070  18.5378780  22.1707230
  54.5959930  18.7607651  21.2773151  55.1231537  18.6811943  22.6939144
  75.7933731   4.8234916  30.5152016  75.6281128   5.2876000  29.6945171
  75.6528244   3.9011536  30.3012638  51.2243729  12.7805080  32.7342377
  50.9995384  12.5434465  31.8345222  50.5628853  12.3424768  33.2697678
   8.0908175   1.3369803   8.9116440   8.2730694   1.5180675   9.8337193
   7.8147602   2.1800034   8.5520105  50.9129257  32.2917862  75.0260544
  50.9217224  31.3346920  75.0372009  49.9866104  32.5235901  75.0927277
  75.8664627   1.0263492  13.7816019  74.9544983   1.2769423  13.6341295
  75.8167267   0.1375755  14.1335106  48.0471954  31.2455254   0.6704304
  48.3913155  31.0436268   1.5405161  47.7832985  30.3970814   0.3144327
   2.4591990  68.6088104  15.4219599   1.9161451  68.1305923  14.7953577
   2.3943198  68.1016235  16.2311478  10.0956841  61.1981888  55.5561104
   9.9826326  61.1350594  54.6077080  10.2375889  62.1307182  55.7188530
  81.9902115  40.7836380  57.1285782  81.6971588  39.9502411  57.4970894
  82.9430923  40.7041817  57.0845337  70.3214645  34.0392265  47.3852959
  70.5046387  33.6753159  48.2514648  70.9651260  34.7396393  47.2787590
  80.3739319  50.4949646  72.7853241  80.5390701  50.5776634  71.8461075
  81.1666946  50.8366127  73.1988907  85.2184525  29.9728470  19.2474041
  84.3016205  29.7574368  19.0763950  85.6981888  29.1766968  19.0188694
  46.3778419  36.5755119  85.3498688  46.0090485  36.2795448  84.5176315
  46.6749039  35.7731438  85.7790451  42.4812355  43.1490974  10.4882746
  41.7638245  43.6922951  10.1619415  42.6849136  42.5597458   9.7620440
  69.6623459  12.7842417  15.3097696  69.6961288  13.3444862  14.5343885
  69.1163483  12.0434551  15.0464067  59.1905479  15.2383537   5.5751019
  59.3437233  14.8779087   4.7016892  58.2735863  15.0356960   5.7604141
  65.2596207  69.2091904  23.0361824  64.8755417  68.9944153  22.1861343
  66.1900330  69.3391571  22.8526573  72.4221573  30.4587154  88.7290955
  71.9573288  30.2562504  87.9171982  73.0740967  31.1120110  88.4753113
  81.9300690  23.9845886  83.4798889  82.4716187  24.5143414  82.8948135
  81.0666733  23.9781017  83.0666962  47.6202660  27.5163002  13.0094280
  47.7881546  26.6368923  12.6707706  48.2367935  28.0763435  12.5377493
   8.6402111   2.7082281  83.8164825   8.7326651   2.5263302  84.7516861
   8.4320583   3.6415296  83.7734451  61.9076805  62.1488419  41.8877106
  60.9637108  61.9902458  41.8895569  62.0945625  62.4718132  41.0062408
   8.2282095  71.6701584  54.1933060   7.9595413  71.2911301  55.0301971
   7.5886517  71.3377151  53.5634804  42.8594894  42.3269730  52.2886696
  41.9863701  42.6205406  52.5488777  42.8187523  42.2710953  51.3339691
  63.8934708  61.7842064  73.2554474  64.1744003  62.6704292  73.0275879
  63.8546219  61.3224754  72.4178772  47.4598885  44.4605179  82.6599503
  48.2940826  44.7015991  82.2571716  46.8539886  45.1492500  82.3865128
  78.1336441  71.0997772  82.6268921  78.5780487  71.2549667  83.4603577
  77.4640732  70.4467316  82.8304443  64.8586502  15.1985645  74.4510803
  64.3917542  14.5297537  74.9520111  65.7841415  14.9875937  74.5743484
  63.5819206  19.1356983  39.6032829  64.3515472  18.6014175  39.4071846
  62.8943558  18.7813187  39.0394554  66.6201553  57.3627930  29.2487659
  66.7414856  58.0154724  29.9383488  67.5005188  57.2111244  28.9049664
   1.6873399  10.6866255  41.3047028   2.0421400   9.8831425  40.9242249
   1.3069925  11.1556845  40.5620384  79.9611511  41.1180840  35.7377548
  79.5054932  41.5795975  35.0337563  80.4088745  41.8087425  36.2263947
   2.9050038  58.8182602  15.9995813   2.0800478  59.2397041  15.7586145
   3.4820814  58.9767303  15.2525206  48.5976143  13.5317268  86.4466629
  49.1198654  12.8739433  86.9057999  47.8777657  13.0361748  86.0561829
  11.3504858   3.4220250   7.1686082  10.6853790   4.0400672   7.4717393
  12.0098000   3.4202504   7.8625345  81.2544174  54.2136383  15.8785677
  81.5393143  54.3392868  16.7837067  80.2998962  54.2738304  15.9173679
   3.1013570  59.6949387  31.6086884   3.3898928  58.7909508  31.7343254
   3.7260287  60.2177887  32.1113243   9.0202045  51.7449265  17.2865734
   9.8908606  51.6178398  16.9096947   8.4300880  51.2916451  16.6844711
  60.9840393  25.9215622  41.4197617  61.3249893  25.1297531  41.8357277
  60.1234856  26.0501289  41.8186989  11.8474808  45.5755348  41.0659904
  12.7870569  45.6568146  41.2297668  11.7846937  44.9714394  40.3261528
  21.6039810  68.8003922   7.0597348  22.4822998  69.0033875   6.7378945
  21.0607452  68.7727203   6.2721047  86.3594284  65.5625687  42.0547333
  86.0246429  65.0166168  42.7661324  87.1334686  65.0963516  41.7389374
  74.3513489  32.9255333  24.1909084  73.8133163  33.0099602  23.4037457
  73.8126831  33.2959862  24.8900738  15.7722101  64.0621719  75.7103882
  15.3334112  64.8685989  75.4395218  16.3148632  64.3230820  76.4544830
  40.4724388  69.8402939  54.2184982  40.3560677  68.9196320  53.9838257
  40.4654655  70.3036804  53.3809662  60.9131889  13.7176952  67.3340073
  61.5532875  13.3752365  66.7101212  61.0700378  14.6619034  67.3441162
  23.2943668  53.7379875  73.1433182  24.1187973  53.5921440  72.6793365
  22.9778786  54.5780182  72.8110352  27.3440075  47.0017242  65.7327423
  28.0169945  46.8887062  65.0615158  26.7392254  47.6431923  65.3599167
  50.9873734  17.5224056  71.7232895  50.0978355  17.8004894  71.5050583
  51.4373436  18.3305702  71.9695129  56.0678749  32.9114571  47.4133377
  55.9967194  33.4900169  48.1725731  56.0925179  33.5041008  46.6620712
  23.0158939  67.7075500  64.4853897  22.1485367  67.5391922  64.8535995
  22.9427242  67.4416122  63.5687943  36.5998459  53.5603905  51.3106728
  36.0280876  53.1962662  51.9864960  36.8193054  54.4360619  51.6289101
  57.1472588  41.7679710  82.7381592  57.1303444  42.6707764  83.0557861
  57.3194733  41.2423973  83.5194092  36.6899986  61.2865143  63.8119164
  37.5915222  60.9730225  63.8840942  36.1570435  60.4919548  63.8413696
  59.1741867   1.9270574  16.1760693  59.5346603   1.2461429  15.6080513
  59.7900276   1.9800916  16.9069328  78.5662308  16.1844254   6.5707669
  77.8029556  15.6488094   6.3545165  79.1082611  15.6182222   7.1201711
  61.3940811  12.3904572   8.1503773  61.7980499  13.0059347   8.7621193
  60.4618073  12.4156065   8.3659410  27.3401833   1.1197550  13.5719614
  27.9798965   1.5417435  14.1454821  27.3258438   1.6661644  12.7861738
  38.9351997  17.8092690  70.2370071  38.0040436  17.9163818  70.0428238
  39.3226051  17.5317554  69.4068604  79.9655914  15.4388199  76.8489532
  80.9076691  15.4156313  77.0168228  79.7268753  16.3602276  76.9502106
  82.6279373  30.6710815  78.0184937  83.3024216  31.2504921  78.3728790
  82.4096375  30.0858784  78.7438278  69.3805847  58.2624969  38.0400314
  69.0719681  58.1939621  37.1365433  68.9274673  57.5571976  38.5020599
  72.4241714   7.1487308  75.3569489  73.0288162   7.6977797  75.8561325
  71.5550461   7.4698424  75.5972290  36.8123665  54.7048569   5.4301586
  36.1257935  55.3717613   5.4210362  36.3857689  53.9172935   5.0925312
  45.3865433  69.4766388  11.2926798  44.9475136  69.5305634  12.1415472
  46.3020706  69.6810303  11.4831247  68.8528519  53.7215195  33.6520004
  68.8244476  52.7659531  33.7001572  69.0528793  53.9092827  32.7349586
  13.7336111   4.5302253  61.7779465  13.2674208   5.3413906  61.9802094
  14.1194410   4.6843567  60.9156189  35.2585564  57.0584831   7.5449953
  35.8885956  57.7401123   7.7787828  35.1534233  57.1443024   6.5974641
  68.0771484  29.1544876  67.1358185  67.3031540  29.2987309  67.6802063
  68.7309113  28.7995911  67.7382126  20.8139172  33.4819527  83.0102997
  20.5366344  33.0358391  83.8105087  20.8851776  34.4027596  83.2618408
  55.1798325  49.8138275  26.2502670  55.5652466  50.2407417  27.0154018
  55.9071388  49.7237816  25.6345158  72.5642853  25.5418510  34.8844872
  72.6890564  26.4685440  35.0891876  72.7402267  25.0886288  35.7090263
  54.8117790  17.8395157  38.2564621  53.8715897  17.7560825  38.4155769
  54.8913841  17.8722267  37.3031387  80.2491074  14.5212193  16.5819416
  80.1292343  13.6149006  16.8655796  80.3383102  15.0170860  17.3958168
  17.0097237   2.2387846  57.3877373  17.4796143   1.7022951  58.0261803
  17.2748146   3.1365011  57.5878944  37.4017525  18.8304100  10.2771559
  37.5305023  18.0907097   9.6834402  37.3942299  18.4382229  11.1502905
  50.0133057  11.4753771  87.9237900  49.6108398  11.7630129  88.7432556
  50.3250923  10.5893564  88.1081467  19.2830181   5.9054532  25.3127022
  19.9227428   6.6075563  25.1942329  19.0892429   5.6056170  24.4245682
  10.2945509  32.5778656   3.0833268  10.8527222  32.9001923   3.7909873
  10.4891891  31.6420670   3.0320725  18.6095104  10.7505322  71.1925125
  19.1211662  11.4994249  71.4984512  17.9716415  10.5955963  71.8891830
  21.6362095  33.4486847  75.5781937  21.1923275  33.4212914  76.4258041
  21.9847965  32.5648575  75.4617004  10.7824745   7.8773651  82.9326477
  10.0233212   7.3663526  83.2133408  10.4684992   8.3793144  82.1805191
   5.4040246  11.3941498  57.6508827   5.2598095  11.9226742  58.4358025
   6.2483668  11.6926584  57.3129349  83.5165024  64.5919418  26.0929623
  82.6004410  64.5449371  25.8193531  84.0076218  64.6627655  25.2744179
  55.4330368  58.2573013  65.5069275  55.6550751  58.5690842  66.3842697
  56.2720375  58.2157784  65.0480347  35.9173241  59.0391273  66.2439728
  36.1846428  58.7973633  65.3572235  36.4344482  58.4696808  66.8136597
  27.9414272   0.8696882  18.2677383  27.0514717   0.5730022  18.4579735
  28.3576317   0.1205577  17.8413486  46.8202782  24.2566319  11.5259600
  46.9807396  23.4275188  11.0753422  47.5258484  24.8311882  11.2288218
  83.3131332  35.9426537  69.6928253  83.4521790  35.2771797  69.0189972
  83.3197098  35.4547272  70.5163040  76.0198364  54.1901779  31.5682316
  76.9151001  54.3413429  31.2651081  75.4739532  54.6909065  30.9620056
  78.8934021  40.8849792  88.1157379  78.8268204  41.0173416  87.1700745
  79.2658234  40.0081673  88.2092209  57.9056435  24.7071838   5.9713182
  57.6705284  24.7239246   6.8990421  57.0796967  24.8594551   5.5121264
  45.5326843  50.8879051  16.1120472  46.4402122  51.0217476  15.8387127
  45.1461868  50.3634644  15.4107523  11.5412769  54.5373497  87.5508652
  10.6338062  54.2357063  87.5091324  11.6650753  54.7987251  88.4633255
   0.8556606  40.0261040   9.5830355   1.0159563  39.3216972  10.2110043
   1.5723268  39.9527740   8.9527617  61.5910988   9.0138683  82.9926453
  61.4713135   9.9625273  82.9487152  61.6960983   8.7432184  82.0805283
  80.1819916  66.5290298  47.4568100  80.8513794  66.8775558  46.8680191
  80.4781189  65.6411362  47.6572723  61.5226631  68.2281494  36.5851822
  62.0925674  67.8966293  35.8912544  60.6354942  68.0669785  36.2639542
  15.3207378  66.2741318  85.7086105  14.4654465  66.0905228  86.0971909
  15.4000282  67.2274017  85.7435837  83.2869492  40.3861694  22.8074131
  83.5703125  40.6394119  21.9288864  82.3949814  40.0604820  22.6867962
  52.4505272  69.7069702  33.8032990  51.9396820  68.9081497  33.9342575
  51.8807220  70.4096298  34.1160622  51.2563705  56.5398941  52.9527740
  51.7551651  57.1112366  52.3688164  51.2544594  55.6900749  52.5122795
   4.5619054  34.6878738  69.9087830   3.7491765  34.2477379  69.6598129
   5.1206021  33.9870338  70.2448044  11.6778145  17.5067787  22.6566200
  12.3146458  17.2298832  21.9978294  11.5480013  18.4398365  22.4869633
  60.5526199  38.8488998  77.7556152  59.6239624  39.0692253  77.6828995
  60.7860985  38.5075378  76.8923721  15.4139023   1.1381797  88.0717239
  14.6412382   1.5482395  88.4604034  15.8195877   0.6587905  88.7941055
  44.3088837  36.8480835  14.5779352  43.5962906  36.9296570  13.9440689
  44.9318810  37.5301018  14.3270197  68.0439682  38.4800491  61.4798164
  67.5009155  38.9410973  60.8404655  67.4195557  37.9930992  62.0176125
   9.1620378   5.8828602  15.1296301   8.8998384   5.0610871  14.7146931
   8.8621912   6.5623865  14.5258360  37.5385017   9.2341814  57.3491592
  36.8743401   9.6378365  57.9078979  37.1342545   9.2012167  56.4821358
  17.2855034  47.6927490  71.1024170  17.4019871  48.2599716  71.8646011
  16.5290356  48.0592194  70.6445007  18.2963657  61.4123611  41.7155457
  18.0392265  60.5315781  41.4429054  19.2514553  61.3774033  41.7685890
  68.1647263  68.5420227  41.7218208  68.1551056  68.0894089  40.8784447
  68.7872086  69.2591782  41.6016769  44.5734444  32.0488548   7.5250654
  45.4147797  32.3513985   7.1832199  44.1247864  32.8486633   7.7993598
  52.1653252   4.8657546  87.3552704  51.8584023   5.7703381  87.2939606
  52.0697556   4.6426439  88.2811890  65.3617706  27.5129032  20.2842560
  65.3025665  28.4577637  20.4255505  65.9866791  27.2108498  20.9434071
  68.5486450  34.7581024  40.0297356  68.6191101  34.5793762  40.9674568
  67.6101532  34.7123833  39.8470535  66.2932129  15.9873486  61.6199074
  66.2098236  15.4083538  60.8622513  65.9791946  16.8362103  61.3083687
  24.9340286  58.1658058  28.6029282  25.6815720  58.3284988  29.1782055
  25.1192608  57.3155708  28.2041588  10.1140146  12.1886683  17.1037388
   9.2407932  12.1894255  17.4958038  10.4895315  11.3454084  17.3569813
  24.1057034  24.2563496  63.2781105  24.5776291  24.9892483  62.8826637
  24.2437344  24.3625107  64.2193375   2.9423785  47.0095139  81.0980453
   2.7513478  46.8629913  82.0244751   2.6192110  47.8934898  80.9237518
  32.4193954  52.2009354  44.4332962  32.3416634  52.2003746  43.4792557
  31.9517574  51.4136734  44.7121620  37.8633385  50.6949463  27.8422508
  37.2319908  51.3889885  28.0318165  38.6548462  50.9560623  28.3129559
  77.8844147   1.1443911  61.4031029  77.7128143   0.9356813  62.3213768
  77.1618423   0.7366596  60.9257393  67.8479691  18.3977203   8.5501881
  66.9401474  18.1238518   8.6809101  68.2563705  17.6627254   8.0927782
  79.6091309   6.0185146   9.8438005  78.9521179   5.6271286   9.2681437
  79.8229446   5.3258948  10.4689350  49.8470535  17.4208546  15.7135305
  49.0038986  17.0149803  15.9149895  49.6228867  18.3001003  15.4087257
  66.7707596  65.4978485   6.8396783  66.1871109  66.1868820   7.1572051
  66.4706650  65.3218689   5.9479342  15.0257721  38.4819908  51.1111107
  14.3150053  39.1204185  51.0523491  15.5341597  38.6152458  50.3111000
  76.0622101  48.6814499  45.6934395  75.9977036  49.3085365  44.9731407
  76.7534790  48.0768814  45.4234848  74.0389099  35.6839104  86.9976501
  73.6022568  35.1789970  87.6836777  73.4030075  36.3564987  86.7537384
  23.4512405   3.5413716  13.4301090  22.5779781   3.5733333  13.8207817
  23.3901558   4.1071582  12.6604433  79.4466171  29.9448109  85.7543564
  80.1944046  30.5302639  85.6348267  79.7257080  29.1169014  85.3633270
  51.9666290  45.5192604  67.1217422  52.4051094  46.2865791  67.4894257
  51.3417549  45.2541656  67.7966385  36.3201103  24.6398621  77.6987076
  36.2456017  23.8180618  78.1838150  37.1531334  25.0132542  77.9866104
  84.5507431  41.9690895  25.1728458  83.6518402  41.7977448  25.4536533
  85.0479813  41.2141037  25.4874496  12.4040270  31.6623249  55.3552246
  12.6086388  31.9505730  54.4656830  11.4697695  31.4554214  55.3310089
  18.3058929  66.0004578  13.2780409  19.2135162  65.8731766  13.5541763
  18.2203045  65.4711227  12.4851255  20.9320679  29.9438248  13.3555269
  20.7540665  30.0643158  12.4227734  20.0929127  29.6705399  13.7261543
  50.2386551   9.2953424  46.9959564  49.8244629   9.6740398  47.7713699
  51.1777878   9.3781910  47.1614799  41.6379929   2.2633910  65.7952576
  41.2140312   2.8992081  66.3716507  41.0637245   2.2125843  65.0311508
  45.8348579  44.6078758  42.1843529  46.7667770  44.5339203  42.3900032
  45.7949524  44.5504150  41.2297134  10.3008595  11.3259697  75.2348938
   9.8167906  10.8588676  74.5539246  11.2191687  11.1202908  75.0598679
   1.4249040   2.3848388  20.0145206   0.8209803   1.9184088  20.5924053
   0.9305584   3.1489635  19.7179260   1.2800635   9.8754015  62.9759102
   0.5772175  10.5157576  63.0862923   0.8323438   9.0296316  62.9546623
  58.9968529  35.1369629  16.8648357  59.4265404  35.6463013  17.5519886
  58.9680901  34.2448082  17.2104721  56.5295219  43.7400742  25.1150150
  55.9225464  43.1281700  24.6986179  56.3284035  44.5862465  24.7153034
  50.1077118  64.9126053  71.4447708  50.6169434  64.5275192  70.7315903
  50.7034912  65.5413666  71.8521347  86.0224609  28.3550606  45.5524139
  86.6883545  29.0179844  45.7350464  86.1280670  28.1596622  44.6213379
  45.4396477  59.1607704  83.1510391  45.2454185  60.0883789  83.2854004
  45.8752289  59.1281891  82.2993164  21.8753910  54.4586830  75.2037582
  22.4146328  55.2443657  75.1134720  22.3753586  53.7728729  74.7611160
  70.3120499  24.0974197  70.8903122  69.5818253  24.4299927  70.3683929
  70.0671005  23.1956234  71.0976562  82.0109863  20.6310120  31.8011265
  81.7733765  20.5156288  30.8810940  82.8245087  20.1368446  31.9021893
  14.0891581  14.4623413  59.0199356  14.8085680  14.1468019  59.5668526
  13.5388174  13.6917591  58.8800812  86.1966705  42.4708099  49.3435135
  86.3337784  43.4061394  49.1931992  85.4822159  42.2353096  48.7516212
  51.5609131   1.7586750  67.2615585  50.7179718   2.1675587  67.4577560
  51.6115761   1.0145454  67.8615036  63.6011620  29.6540489  48.3945465
  64.2516708  29.7014351  47.6939583  62.7608604  29.7609024  47.9487801
  82.0370102  56.3457413   1.4362465  82.6522217  56.9277000   0.9900813
  82.0253448  55.5529709   0.8999511  54.5552063  43.7001114  13.4207125
  53.9517632  44.3253479  13.0192585  54.1112366  43.4185410  14.2206125
  42.2300873  46.8102264  34.2303352  42.7963829  46.0528564  34.0822258
  42.8347855  47.5453224  34.3313484  79.0352402  46.8032875   2.1698940
  78.9217377  47.0207405   3.0951304  78.2702255  46.2702103   1.9535445
  48.6730156  61.9140854  18.1168880  48.0345840  61.7040825  18.7984581
  48.4059677  61.3829117  17.3667068  82.6167984  34.2326889  57.4858170
  83.2368317  34.0498619  58.1917648  81.7936172  33.8456459  57.7838249
   8.8590612   3.4894359  17.7665844   9.4226818   3.1443567  17.0741367
   9.2175798   4.3561687  17.9575577  25.8092575  68.0783005  13.0265989
  26.2619419  68.6642990  13.6331539  26.3873005  67.3191299  12.9506626
  61.5029259   0.2579808  52.9162216  61.2493095  -0.6645548  52.8872681
  61.1777840   0.6217239  52.0926895  22.2064037  20.5888996  67.9556732
  21.8791180  19.7081928  68.1386261  23.0567646  20.6241970  68.3937073
  70.7644806  42.2165146  82.6217880  69.9989929  41.7088470  82.3524475
  70.7009277  43.0296974  82.1208649  79.6331253  38.6531334  37.0662231
  80.0155563  38.7091141  37.9419212  79.6875992  39.5452499  36.7236023
  59.2512856  49.9705353  18.9195747  59.6180305  49.3714943  19.5698662
  59.8826180  50.6884613  18.8723164  26.7155437  59.7515144  25.2037849
  27.0339947  60.4863014  25.7280979  26.5599823  60.1257095  24.3365993
  51.5471115  59.0794907  66.8655014  52.0734634  58.3958855  66.4509277
  50.8243484  59.2281227  66.2557831  75.0617752   3.0129020  21.8541508
  75.1419678   2.5741901  22.7011051  74.1191483   3.0499861  21.6919270
  42.2454758  66.4121857  36.8689232  41.6836205  67.0777588  36.4719849
  43.0284386  66.4003677  36.3184090   5.7297587  10.6602049  16.1700611
   6.1547766  11.1724920  16.8579235   4.9736390  10.2615490  16.6008606
  41.7610397  64.1162796  52.7455330  41.8080444  64.6935577  51.9834480
  41.1904755  64.5773468  53.3604317  44.9724426  59.9990044  70.2738571
  45.5807610  60.7261658  70.1418991  44.1310806  60.4197083  70.4509277
  55.3454399  65.1802139  13.4697437  54.9207115  65.2080154  14.3271036
  55.9786797  65.8976440  13.4927721   5.1400552  -0.1847280   6.0930729
   4.7902961   0.6990621   6.2062793   5.5160785  -0.1825707   5.2128267
  81.6891327   7.2857094  16.8719482  81.2055588   6.4724860  16.7268238
  81.0273819   7.9068418  17.1761150  51.4768562  11.6591568  51.1025887
  50.9935570  10.8329954  51.1131554  50.8946266  12.2715063  50.6528473
  52.0088310  69.7658844  49.0674515  51.6925011  69.4714890  49.9215584
  52.0935059  68.9627686  48.5535698  66.9666443   8.3874035  17.5621166
  67.6163788   8.4160023  18.2644424  66.3947525   9.1354189  17.7342911
  27.2913189  20.3794479   0.9092754  27.9880257  20.6855450   1.4899073
  27.7236271  20.2467937   0.0656270   0.4031852  26.0525627  66.2623062
  -0.4145073  25.6661034  66.5757675   0.8786573  26.2863731  67.0594788
  44.0075150  57.0693779  79.6102371  43.7459564  56.4072838  78.9703522
  44.8607750  57.3755569  79.3029327  67.0315857  59.3536377  89.3969421
  67.1742249  59.0078697  88.5158463  67.4518356  60.2136040  89.3876953
  15.1846886   4.7887220  51.8443413  14.6444874   4.3349404  52.4912567
  16.0599747   4.8038683  52.2314796  64.5931854  22.6135349   4.3045745
  64.4257965  22.1490364   3.4845419  65.5417786  22.7408867   4.3183856
  18.8219643   0.7905377  58.8519402  19.1026325   1.1372383  59.6988487
  18.4570484  -0.0708121  59.0547829  21.5595341  20.4949932  30.3324108
  21.6039581  19.5680809  30.0976944  20.9278507  20.8677902  29.7174053
  28.4861832  42.9923897  75.2567444  29.1672745  43.5367317  74.8617325
  28.8300037  42.7686081  76.1215820  38.3042221  68.8586655  25.8806591
  37.9450493  67.9801712  25.7562466  37.7753754  69.2363205  26.5834599
  11.1459675   6.0769649  67.2667389  11.2919741   5.2932029  66.7369919
  11.0977926   6.7905154  66.6305389  38.9170799   3.4707482  10.1649017
  39.6598740   3.4496980   9.5615368  38.7320518   2.5498652  10.3492126
  72.4124451  63.1488266  41.5450783  72.5682144  63.9012833  42.1158485
  71.6398315  62.7226410  41.9161110  60.3472557  24.8094597  44.7999611
  60.8390656  24.4651394  44.0544395  61.0176811  25.1479034  45.3934364
  84.3527985  27.8133736  21.8075924  84.2922058  28.5029297  22.4687080
  83.4657516  27.7406845  21.4553261  86.1051483  13.4663210  86.6972580
  85.6582870  13.5733061  85.8575592  85.4896393  12.9673271  87.2342682
  18.9850368  44.1054764  32.0978813  18.4327869  43.7365608  31.4085674
  18.8211098  45.0476723  32.0575523   0.6157170  23.5715580  32.2380142
   1.2272680  24.1291847  32.7189407   1.1364590  22.8104115  31.9816628
  66.2061768  57.4996529  80.1103668  65.6537628  57.9138756  79.4474182
  66.8782654  58.1530113  80.3043900  52.3254318  22.5260544  49.8146324
  53.2753563  22.6230602  49.7477951  52.0447502  22.3002071  48.9278183
  74.7792892  39.1410065  83.6951599  75.0930634  39.3143120  84.5827103
  75.4648514  39.4909630  83.1261520   3.7220283  53.7294312  48.2098656
   3.3690867  52.9408035  47.7978897   4.6558299  53.7117233  48.0002670
   8.0187464  48.2752533  75.5474701   8.6898222  48.9528389  75.6297150
   7.7870383  48.2791138  74.6187439   3.0446217  27.8452740  18.9913883
   3.6499057  27.5444088  19.6691380   2.6437991  28.6322727  19.3604488
  48.6263847  54.8683319  66.1808624  49.1996307  55.0450554  66.9267807
  47.8029823  55.3027573  66.4033813   2.0188551  56.5208511   9.6925011
   1.6478734  55.7087250   9.3474560   2.4407516  56.9311600   8.9375954
  75.9121246   7.8281665  45.1155472  76.2611237   8.7043257  45.2791748
  75.1632614   7.9728107  44.5371742  43.8736038  47.8829651  50.2761002
  43.9163628  48.3423462  49.4374275  43.6109428  46.9913063  50.0476685
  30.9353542  32.0712166  88.6255341  30.7695484  31.6272755  87.7938766
  30.6171455  32.9634933  88.4883423   6.7208443  43.4454994   6.6985216
   6.9292130  44.3716049   6.5754719   6.0379868  43.4407043   7.3692784
  74.5315247  14.5085192  15.4190845  74.2747345  13.5974874  15.5615997
  75.4589920  14.5355358  15.6542597  40.3198395  49.8234558   6.7306628
  40.7837639  49.5311813   7.5152521  40.7761688  50.6222343   6.4661899
  15.2694225  13.4304466  23.8946838  15.6215086  12.7577248  24.4775314
  14.5027113  13.0218506  23.4928913   7.4255247  16.8446903  14.9793806
   6.9807620  16.8963604  14.1333618   8.1271343  16.2080765  14.8426428
  15.8398333  11.8022280  69.5398331  14.9298353  11.8813763  69.2537003
  15.7801046  11.5424871  70.4591827   4.4892135   6.3938107  49.3568039
   4.4778900   6.2474833  50.3026848   5.4131269   6.5293360  49.1464500
  35.0656853  38.1270065  87.4186325  34.8735619  37.2269592  87.6817627
  35.7713585  38.4021950  88.0038986  73.5769119  69.3573227  39.2331352
  72.6277008  69.4496689  39.1512909  73.7050095  68.4574890  39.5333443
  12.7720165   0.9359444  74.4892883  12.4117327   0.7548751  75.3574142
  12.8614769   0.0740827  74.0825653  18.6287937  57.1838150   0.9859796
  18.7892246  56.2702179   0.7496880  17.7528725  57.3685951   0.6470858
  58.3984833  60.0206985  50.5287094  58.7215881  59.5590477  49.7549438
  59.0592575  60.6915436  50.7006836  84.0092392  40.5047188  31.2204514
  83.1253815  40.5223274  31.5874901  84.0336685  39.7063599  30.6929531
  37.5003242  56.2036972  85.3878708  37.0455284  56.1580048  86.2288818
  38.3801155  56.5100975  85.6076813   3.9441261   0.6458914  37.4971199
   4.3245363   1.3856275  37.0235062   3.1914299   1.0175323  37.9570808
  20.0269737   2.5256269  60.4886818  20.4240894   3.2277544  59.9733658
  20.0992126   2.8237228  61.3954086  67.2160416   8.7321081  31.4518909
  67.3483505   7.8710093  31.0553627  67.9264526   8.8145456  32.0880852
  57.8426018   8.5738649  22.6038513  56.9564056   8.4563799  22.9460258
  57.7549362   8.4385262  21.6603317  63.1085854   9.1204100  88.9432755
  62.8186226   9.7180214  88.2540665  62.6607132   9.4282236  89.7312469
  35.1500320  24.8260002  88.4221039  35.7830391  24.6521645  87.7254562
  35.1641273  25.7773743  88.5266037  25.0632133  22.1401806   4.7592931
  25.6324825  22.3033676   4.0072727  24.3406067  22.7585793   4.6513419
  17.9267635  61.3754807  58.1505356  18.8644485  61.1959114  58.2193375
  17.6515026  61.5589790  59.0487518   5.7390141  21.6385822   4.3221741
   5.1210599  20.9449940   4.0913076   5.2182517  22.4413433   4.2974067
  19.9824638  34.9847717  24.1857185  19.9119015  34.3680077  23.4571209
  20.1110630  35.8360329  23.7673244  55.5220757  48.3245010  88.7680893
  56.3918228  48.6270790  89.0292816  55.2957458  48.8685532  88.0137558
  71.1394501  20.1628952  19.8934841  72.0857468  20.2067108  20.0307465
  70.8164291  19.6302071  20.6202126   9.4849701  52.7123947  11.6581373
   9.8578873  53.4075394  12.2002974  10.2364922  52.1755219  11.4067135
  40.8210983  22.4155312   3.2814631  41.3625221  22.6557388   2.5295393
  41.0507278  23.0547619   3.9559150  82.5514755  15.4449978  72.6303406
  83.4779816  15.6757612  72.5627441  82.1539688  16.1829071  73.0926285
   5.6645784  25.2616997  51.3044128   5.8707414  24.3490810  51.5065422
   5.4666953  25.6563206  52.1537361  54.4812088  71.0636063  28.2732449
  54.3701859  71.6707458  27.5416088  55.4251137  70.9106140  28.3164062
  58.1915932  35.6462975  59.7855568  58.2921066  34.8813019  60.3520470
  58.6264076  36.3546715  60.2602997  84.0599899  14.6936445  12.1491165
  84.4230042  14.0409784  12.7478485  83.2397308  14.9660482  12.5604725
  24.9501324  44.2551308  84.8269882  24.4260635  44.3205528  84.0286713
  24.3111839  44.0885162  85.5199661  53.4523087   7.9836173  16.4233494
  54.1543846   7.3600392  16.6090164  53.7875595   8.5133553  15.7000122
  28.5892868  16.3866272  58.6772537  28.9075241  16.7410812  59.5075073
  28.3036366  17.1547604  58.1826782  79.6991653  71.1237030  54.3405151
  78.9784775  70.6194916  53.9628830  79.3466873  72.0081253  54.4394341
  46.7444839  47.3209686  61.8898277  47.3376961  46.8699875  61.2890358
  47.2355347  47.3838768  62.7090607  45.0243340  12.2293062  73.2921906
  45.5472908  12.7660208  72.6966400  44.8776817  12.7902002  74.0538483
  64.8682251  46.7055931  33.6284981  65.1343613  46.6309433  32.7120743
  63.9204178  46.5725937  33.6142464  48.2896004   6.8275537  28.8727837
  49.0288315   6.2284746  28.7685051  47.5581245   6.3820410  28.4453564
  35.1827278  43.9350090  67.9928589  35.6044350  44.5858040  67.4317322
  34.5810852  44.4423637  68.5377045  39.9061089  65.8868866  64.3229218
  40.8253365  66.0591812  64.1190414  39.8008118  64.9465942  64.1780472
  45.8911095   0.8039306   0.2102654  44.9344940   0.8074022   0.2435574
  46.1617966   0.6594423   1.1169531   8.0409117  18.0785389  45.6621132
   7.7308197  17.9229355  44.7700005   7.9378185  17.2347355  46.1021118
  74.2965088  56.1902084   5.3228855  74.5132370  55.2688522   5.4656062
  75.1269531  56.5957680   5.0736499  61.6040344  66.1003647  17.3412457
  62.1116257  65.4163513  17.7779522  60.7708168  65.6806030  17.1272717
   5.0622168  67.9065933  26.8677273   4.5584006  67.2028122  27.2764969
   5.9753327  67.6841125  27.0492535  59.2012672  44.6691971  47.8016968
  59.5299034  43.9413414  47.2740097  59.0018730  44.2776337  48.6520767
  33.3036270   5.8491211  66.4288483  32.5565834   6.0202799  65.8553772
  34.0407715   5.7243352  65.8311234   9.2779274  53.2636604  43.5137596
   9.4051132  53.4118996  42.5766983   9.1060638  52.3248367  43.5865746
  22.8743172  70.0953522  67.7680588  23.0237751  69.1607132  67.6254120
  23.5390530  70.5286484  67.2326965   9.0140047  38.0835037  39.9959679
   8.4280024  38.6726532  40.4710884   9.3609877  37.4972343  40.6683693
  44.0241547  51.0778694  38.2740593  44.3406410  51.3433189  39.1375465
  43.1278038  50.7797699  38.4287262  62.8292236   4.6339526  40.0562439
  63.4415131   4.3903613  40.7505074  62.1266251   3.9868853  40.1186295
  72.8191605  51.4439888  16.1508846  73.4607773  50.7376633  16.2261677
  72.0637589  51.0371437  15.7265263   3.2475822  23.3830280  70.8204269
   3.5679381  23.6868801  71.6697083   2.2951479  23.3689575  70.9147873
   2.0857806  30.3860817  15.1850929   1.7596395  29.6856327  15.7501030
   2.9553638  30.5873814  15.5308323  43.9410706  57.3012772  71.7984619
  44.4768906  57.8450737  72.3758850  43.4168434  56.7648048  72.3931198
  56.5035019  11.1133480   5.7241406  56.5414505  10.1889791   5.4785109
  57.2060699  11.5241060   5.2202463  25.2522831  50.7624359  48.7049370
  25.4806709  51.6867981  48.6068306  25.3506985  50.3967934  47.8258171
  33.4290657  65.0487900  65.4760132  34.0775642  64.6809082  66.0763016
  32.5966072  64.6740036  65.7637253  62.6273193  36.0846748  31.4840527
  62.8348389  35.8943901  32.3989067  62.8955269  35.2981377  31.0090179
  28.4703426   1.4363323  40.1973534  28.3816338   2.3889709  40.1683197
  29.1492672   1.2392267  39.5520325  66.7923584  45.1276321  66.1680145
  66.8106232  45.0134048  67.1181946  66.9685974  46.0590630  66.0353165
  49.2539253  33.8994598  63.3562622  48.8368683  34.0339966  62.5052643
  49.1996765  32.9551277  63.5029564   5.0509377  62.0600166  88.3270035
   5.3894591  62.2702980  87.4567032   5.6175170  62.5440598  88.9277725
   3.1603074  63.3041878  63.2943344   3.5328548  62.5322380  63.7204018
   2.5194318  63.6382866  63.9219398  68.1489182  34.1545792  85.8226776
  68.5638580  34.8665276  85.3356628  68.6145554  33.3675995  85.5396957
   2.2915008   9.3724165  68.0144653   1.7275205   9.6372356  67.2878113
   2.1101358   8.4397898  68.1308517   7.2539568   2.4381492  64.2417297
   7.3425059   3.0153253  65.0001907   8.1074791   2.4770598  63.8102036
  76.9928131  37.0559845  14.4967413  76.1166382  36.9834518  14.8752708
  77.4242935  36.2347069  14.7324457   7.9183555   0.6775510  74.7764359
   8.7812977   0.9990400  74.5152664   7.3604331   1.4552951  74.7681656
  75.5319595  20.1490784  73.9527359  75.2904053  21.0511246  73.7425079
  76.4221802  20.0543594  73.6139679  45.3929482  43.1506767  20.7063847
  45.9184647  43.4717865  19.9736137  44.9046173  43.9177971  21.0052013
  30.7113647  42.5350151   4.9743934  30.9059124  42.6804466   5.9002624
  30.9280910  43.3655663   4.5507789  38.2398262  36.0829163  88.2308578
  38.4533882  35.9410820  89.1530838  37.7817917  36.9233093  88.2175751
  32.9134865  41.6209259  63.1278496  32.2760849  41.1486855  63.6635132
  33.3171844  40.9445763  62.5839615  54.9759903  59.8556480  23.3618031
  55.0378036  60.1353493  24.2751369  54.8696251  60.6692238  22.8688354
  64.3095398  32.8672256  13.2260551  64.1354065  32.9874458  12.2925367
  64.8182449  33.6385460  13.4760818   6.1618061  50.9263802  43.2474594
   5.8118730  51.5069351  43.9232788   5.6568532  50.1185684  43.3407021
  16.4319382   6.8373761   8.9635620  17.1545372   7.3721232   8.6347351
  16.7878647   6.4050565   9.7398672  68.9342346  60.7322540  75.7460480
  69.1703110  60.5328789  74.8400955  69.7732620  60.8250771  76.1973190
   1.5293130  13.8913164  30.4078846   1.0007654  13.9509182  31.2036953
   2.3748026  14.2670822  30.6532001  51.8099670  71.0951614   7.7878041
  51.7072182  72.0209579   8.0081882  51.9041481  71.0847168   6.8353057
  69.6640854   1.5454421  49.9900055  69.3455124   0.6512444  50.1130943
  69.6186905   1.6878550  49.0445480  51.8746414  39.5436554  75.8484268
  52.5399857  39.9033012  75.2617340  51.8552971  40.1499176  76.5889053
   8.1054554  55.7110519   4.7323618   8.7525940  55.0314026   4.5438976
   7.2722144  55.2422066   4.7784667  36.6968040  58.1281738  79.8644943
  37.0590820  57.8625031  80.7097244  37.4531288  58.1584053  79.2785873
  21.2101517  62.3378067  66.1129913  20.3661327  62.2346497  66.5525589
  21.3840351  61.4806061  65.7241440   0.6702207  45.5461731   2.1486135
   0.7023726  46.2703438   2.7737355   1.2341989  44.8741302   2.5313873
  41.4939880  46.1767616  73.9353943  41.2248230  46.1279907  74.8526764
  42.4273987  45.9650764  73.9481049  47.5773582  68.9003372   2.9987526
  48.2902374  68.3075714   3.2368081  47.7883720  69.7202377   3.4453647
  16.3320713  28.9006329  72.4663696  16.6518040  29.1946735  73.3193283
  16.7299252  29.5052929  71.8400040  71.2779846  36.3826599  34.2744370
  70.5978012  36.2207985  34.9281807  70.8778000  36.9975433  33.6596184
  57.4625168  60.8322105  59.8065948  56.7355347  60.9582748  59.1968079
  58.1186867  61.4730606  59.5327644   5.9308820  16.9643555  52.9992790
   5.2242737  17.5461178  52.7191238   5.6476164  16.0929298  52.7224922
  58.9753494  60.7063560  76.0847473  59.6510506  61.2864990  76.4355927
  59.1648712  60.6570663  75.1477890  35.0198021   5.3536711  79.7196198
  34.8297005   6.1651626  80.1903381  35.9321823   5.1600614  79.9348068
  53.9387131  54.2720833  48.6970711  53.4180450  55.0466423  48.4844894
  54.8466377  54.5631142  48.6121864  74.7931519  29.0794201  88.3274307
  75.2797089  29.7716312  87.8798447  74.0584183  29.5322876  88.7413177
   0.5971256  34.0403175  63.4113503   0.0072005  34.1416855  64.1583099
   0.8797271  34.9316444  63.2066536  12.0313292  44.1593781   4.2132268
  12.9668674  44.0671959   4.0329409  11.7139635  43.2602844   4.2977262
  73.8207092   6.6669559  82.1497955  74.4214935   7.2513003  82.6122131
  73.5018082   6.0681443  82.8250427  72.5610428  70.6683121  47.8143234
  73.4180984  71.0941391  47.8331146  72.2891235  70.6367416  48.7315445
  12.5835772  -0.0343372  54.1199417  11.8463984  -0.4474090  53.6703072
  12.7445984   0.7701007  53.6268044  76.8391724  21.0490093   4.0412068
  76.1577301  20.3767948   4.0416455  77.1178055  21.1081982   4.9550395
  20.6192608  57.5856171  38.8725128  20.3802261  58.2265091  38.2029190
  21.5757790  57.5590477  38.8480072   8.1213560  27.8646317  79.4293518
   7.8398895  28.2113056  78.5826950   8.4558687  28.6273079  79.9012146
  82.3005753  19.4909439  83.2274628  81.5649109  19.5268974  82.6161270
  82.7529221  20.3259048  83.1072464  72.6827698  41.7126656  56.9139633
  73.5056686  41.2613983  56.7257385  72.9341507  42.6281509  57.0361481
  51.1424713  41.8507042  89.3455276  50.9777794  40.9711914  89.0055771
  51.4356499  42.3508682  88.5838776  10.0364008  30.7981396  67.5464630
   9.1609268  30.8450642  67.1623077  10.3748446  29.9471684  67.2680130
   7.9505548  64.4814606  31.9541569   8.8107080  64.4678802  31.5344143
   7.8527026  63.6058044  32.3281593  42.1980629  34.6449852  64.6497421
  41.4972191  35.1667976  65.0405884  42.9707489  34.8487129  65.1766968
  15.3092422  35.8320656  16.9544907  15.3855019  34.9017410  16.7425709
  15.9673300  35.9776154  17.6341743  22.5274315  35.3942184  68.4113235
  23.1723366  35.3999901  67.7040100  22.2641602  36.3099365  68.5028839
  32.8296738  69.2304611  72.3189163  33.2420349  68.3993301  72.5543060
  33.0433502  69.8176804  73.0440063  44.6266060  37.2911186  73.2132492
  43.7519417  37.5080452  73.5359497  45.1587982  37.2036934  74.0040436
   7.4832783  63.8907776  62.8691063   8.4336529  63.9943161  62.9170647
   7.3220878  63.5665207  61.9830437  51.5283661  56.8762054  41.2143517
  51.2824974  56.6745644  42.1171913  51.0104446  57.6499176  40.9921761
  79.6863098   3.7838585   1.4380721  80.0032120   3.0975723   0.8508626
  79.1582870   3.3188162   2.0870419  79.2096252  60.3929672  16.0041485
  78.6246338  60.0523300  16.6808949  79.3509064  59.6521912  15.4146385
  77.9954529  49.4711189  53.0426102  78.3805389  48.6005135  52.9426765
  77.2106857  49.4502029  52.4949570  50.2478523  63.7386971  27.3385620
  50.7611618  63.7881622  28.1449738  49.8830376  62.8537483  27.3407631
  12.0268641  71.6000595   0.9452929  11.1558189  71.2691269   0.7262160
  12.1640539  71.3305359   1.8534586  36.9996948   1.4463905  55.3289986
  36.7571793   1.5103172  56.2527580  37.2961578   2.3266494  55.0977325
  51.0418587  20.1099815  87.5255814  51.3319855  21.0221176  87.5174561
  51.4899750  19.7228012  88.2775879  16.8926773  39.3153191   1.3926182
  16.1429539  39.7208748   1.8281299  17.4897499  39.0882645   2.1054869
  82.6194153  26.3868008  73.3051682  82.7997818  25.6200752  72.7612610
  83.2452698  27.0459442  73.0050430  13.9710388  38.8654823  88.0846786
  13.1485338  38.7787895  88.5665512  14.1685915  37.9776611  87.7863922
   5.4931421  40.3224869  16.4845371   6.2171326  40.8485947  16.1450024
   4.7963457  40.4275169  15.8367128  79.9741821   8.8516121  52.0430679
  79.3394089   8.4707689  52.6499062  79.7796555   9.7888136  52.0499725
  71.3725128  18.9306774  42.4825020  71.0348053  19.1623039  41.6173210
  70.8327866  18.1904526  42.7599869  75.7554779  39.1887627  86.7104187
  74.8617401  39.0691261  87.0315933  75.9056396  38.4386711  86.1350479
  26.7395420  41.0256119  74.0759735  27.3753071  41.6739388  74.3788071
  25.9273758  41.5200043  73.9655457  38.3421097  52.1340752  48.7387543
  38.1106262  51.2084961  48.6616325  38.0618629  52.3783607  49.6208076
   7.1396232  49.4948502  57.8730431   8.0555077  49.7571564  57.7803955
   7.1515131  48.5432014  57.7708092  85.9440765   0.0554743  51.9676437
  85.8946762   0.7730927  52.5991592  86.2935562   0.4591738  51.1732101
  55.9121742  38.6464386  72.2502899  55.4790993  38.0815086  71.6103439
  55.7366753  39.5356026  71.9423676  13.9512691  41.9550972  83.0515137
  14.2718782  42.7350121  82.5985489  13.0148869  41.9315720  82.8543625
  17.3347664  66.8384323   5.9037776  17.0509243  66.5048676   6.7548943
  16.7975807  66.3639603   5.2693143  11.5594578  54.5770111  28.1382465
  11.3406658  55.0196342  27.3182201  10.8094759  54.0077744  28.3106709
  75.8963852  26.6289291  29.8306751  75.3579025  27.0730171  29.1756535
  75.5438004  26.9236507  30.6703491   3.4951038  11.9172716   5.2167726
   3.5913339  10.9649220   5.2180939   4.3785357  12.2474957   5.3802714
  82.1323853   9.9215775  31.4272079  83.0603180   9.7378979  31.2807980
  82.0241394  10.8347397  31.1614094  64.6502914  51.9729195  48.2884979
  64.2189178  52.2434654  47.4779739  63.9815178  51.4783859  48.7622185
  51.9986382  23.0302486  18.2738094  52.4522438  22.3174629  18.7237091
  51.9913025  23.7473717  18.9077740  69.2020264  11.5951519  85.9878082
  70.0542831  11.1594162  85.9820404  69.3242645  12.3676748  85.4359970
  50.8123512  51.7570992  21.2888947  51.4689445  51.5338058  21.9486332
  50.5160217  52.6339111  21.5330715  81.2596512  23.0209560  79.0395126
  81.2512283  22.7521114  79.9581451  81.9731445  22.5164356  78.6488419
  64.7621078   8.9070654   3.1596704  63.8387871   9.0549479   2.9551156
  65.0704422   9.7482061   3.4967804  42.8340149  40.0685692  37.2931976
  43.6310883  40.0774384  36.7632675  42.4046516  40.9005394  37.0939331
  71.3981934  15.0427847  39.4282761  70.8479385  14.6258574  40.0913124
  71.9041061  15.6952362  39.9126244  34.1881905  66.6056137  47.7868881
  34.2704887  66.2192078  46.9150238  33.2762756  66.4500198  48.0327225
   1.1943096  12.6955214  52.9005661   0.4106187  12.1506863  52.9727859
   0.9590511  13.3702936  52.2637253   4.0172701   1.1556041  45.3024101
   3.8640757   0.8413497  46.1934814   4.4053998   2.0229487  45.4177399
  44.4699783  53.1840897  26.7720566  44.8515587  53.9199219  27.2507820
  45.0317574  52.4400673  26.9889927  80.7923584  16.4861317  31.9614773
  81.7220993  16.2630024  31.9164276  80.6883469  17.2058620  31.3390617
  64.6684875  48.2541542  66.9337234  63.9555168  48.8924179  66.9108505
  65.1746140  48.4319077  66.1409607  77.7244949  20.4888229  43.0268517
  77.3339539  19.6589203  43.3006592  78.4074020  20.2384167  42.4046211
  23.3501148   5.9327016  53.6470184  24.0635910   5.9286189  54.2851181
  23.3254089   6.8323712  53.3211136  19.8425884  11.4693518  11.6592102
  19.5085258  10.9706392  12.4048109  19.8279896  12.3798485  11.9541922
  73.9063721  37.1356430  33.8753242  73.0013275  36.8582344  34.0173531
  73.9141998  38.0612869  34.1189575  22.1122684  46.9315376  46.2945061
  21.7675610  46.2757072  46.9005547  22.5684834  46.4222794  45.6246147
  31.0469704   2.2439322  16.2367954  30.7914276   3.0597107  15.8061724
  30.2217655   1.8627139  16.5366974  81.1676178  62.9926605  85.2117691
  81.4337921  63.1910133  86.1095734  80.5455475  62.2705727  85.3003693
  48.0494652  27.4915752  86.4606781  48.1941261  27.7517414  87.3704147
  47.4357147  26.7591076  86.5157394  49.0107117  42.5184708  49.5778084
  49.4761696  41.9651871  48.9505501  49.5910378  43.2675552  49.7131958
  70.9887543   7.9730043  29.7343121  71.6815186   7.5833740  29.2009315
  70.6912994   7.2595940  30.2989330   6.3368883  55.2279243  13.5415983
   6.5172710  55.9538994  12.9443960   7.0938387  55.2056580  14.1270580
  67.9681168  10.0815296   2.4805973  67.1381912  10.5044651   2.2601979
  67.7455368   9.1562624   2.5834074   8.2347651  58.9005089  61.1635284
   8.8156166  58.3337288  60.6559830   8.7823315  59.6462135  61.4091530
  41.7136688  30.3779793  64.0229568  42.5629578  30.7237988  63.7484627
  41.7519455  30.3802013  64.9793930  22.0543385  56.0570564  69.3052673
  22.4897118  56.2577286  68.4767685  22.1106434  55.1045074  69.3808517
  56.0400276  11.1988678  54.2675819  56.4330063  11.4449997  53.4301949
  56.7826614  11.1177769  54.8660393  26.0057220  56.1181602  64.7507553
  26.6640587  55.4252739  64.6985092  25.9715271  56.4832230  63.8665657
  49.4729614   3.5094571  42.3730774  49.7953453   2.6103873  42.3100204
  49.0076828   3.5389879  43.2090645  18.4934692  55.3467674  26.6599655
  17.7572193  55.7137108  26.1705570  18.1233253  55.1155624  27.5118885
   9.6482944  62.1203613  49.3066101   9.6979074  63.0749474  49.2562370
   9.2997665  61.8534241  48.4560204  31.5362759  44.1497650  88.9316711
  31.6271954  44.6972237  88.1517639  30.7972679  44.5301170  89.4064713
  11.2912531  56.2611618  21.6090565  12.2431211  56.1967430  21.5314026
  10.9555435  55.6498260  20.9534683   9.0930986  70.8694153  17.2317009
   8.1830797  70.6517258  17.0299397   9.5484295  70.7965622  16.3928947
  16.0013866  55.1611938  84.8217087  16.0447540  54.4574661  85.4691010
  15.1780195  55.0094109  84.3577499  31.0821190  51.9708176   7.2641182
  30.4703808  52.0754585   6.5353808  31.7096653  51.3161011   6.9579129
  39.6319923   0.4354112  75.4886703  39.1602707   1.1379602  75.9360428
  39.9895058  -0.1012987  76.1960373   5.7457504   4.6117764  59.9455147
   5.6727901   4.6609292  60.8986626   6.4049487   5.2686911  59.7215652
  86.1069183   4.6405311  44.0291481  86.6581802   3.8658934  43.9183159
  86.3199387   4.9627771  44.9049377  22.2604828  62.6256332  51.1402588
  21.4466801  62.1266251  51.0699043  22.2905827  63.1489029  50.3393097
  51.4841614  34.3615494  58.4182587  51.8301125  33.7225647  59.0413551
  50.7158089  34.7297363  58.8544998  27.1510563  51.8405800  18.4392376
  26.6646347  52.4722900  17.9095535  27.1923695  52.2385826  19.3087883
   4.8753991  49.7681427  79.1334686   4.8443818  49.1444969  78.4079742
   4.5123529  50.5760384  78.7705154  76.2374496  21.6875820  54.2512703
  75.5932236  21.8380699  54.9430504  75.8077316  21.9945164  53.4529152
   2.3806331  21.7011852  77.6991577   1.7293756  21.0025463  77.7624054
   2.6116226  21.8962307  78.6073608  55.3205414  33.5751686  75.1179886
  55.7364235  34.0015640  75.8672943  54.7688446  32.8954239  75.5050430
  58.4230385  21.2193680  61.1889000  59.1286659  21.2328453  60.5422592
  58.0997314  22.1200790  61.2094154  62.8690262  37.3387489  25.5112076
  63.7553024  37.6726913  25.6498585  62.9755516  36.6354256  24.8707237
  33.1790695  50.1555557  76.8957214  33.5148354  49.3875732  76.4334488
  33.5055885  50.9005547  76.3911514  36.4683151  66.2849960  78.7897949
  36.5540657  66.8245010  78.0037842  37.3542519  66.2438354  79.1498718
  65.8393555  30.6031284  17.2016582  66.4613342  30.7982159  16.5007153
  66.3872070  30.4397030  17.9693737  58.2086563  70.9344482  25.3597107
  57.9838982  70.6200867  24.4839878  57.7161102  71.7496109  25.4552975
  45.6113396  21.3371887  14.9829950  45.3060684  21.9213676  14.2888927
  44.8174706  20.9063778  15.2998600   4.1642909  41.8833694  35.7831764
   4.0473113  42.3606491  34.9617424   3.9478421  40.9765587  35.5662155
  49.0863609  50.0219994  17.7194176  48.9571762  49.0908279  17.5392513
  48.2793236  50.4386406  17.4171944  33.5146370  62.2526398  74.9803619
  33.2890472  61.4058723  74.5952301  32.6782990  62.6110344  75.2775497
  49.8847237  22.6538639  66.0955048  49.8962212  23.2987137  65.3882065
  50.7329102  22.2146568  66.0329971  85.2838974  14.0704622  54.5395927
  85.4964981  14.7863131  55.1384163  85.8713226  13.3600502  54.7974358
  13.2461920  45.8982697  16.3799000  13.2081852  46.3571167  17.2190933
  12.4759026  46.2071342  15.9029427  17.2785759  33.5265694   5.1665058
  16.8326397  32.9479637   5.7850461  18.0855198  33.7799797   5.6146736
  66.5496140  22.3627052  78.0397491  67.2736664  22.6447239  77.4807816
  65.7628250  22.6427994  77.5720444  57.2374992  71.1644745  57.4162941
  56.7109985  71.8201523  57.8735924  58.0636024  71.6097031  57.2277145
  75.1081161   6.8746676   6.2897353  75.7528839   6.4174747   5.7498446
  74.3118210   6.3498468   6.2078304  83.0293884  34.4836540  83.0562057
  82.5261459  34.3606873  83.8610992  83.6679306  35.1625633  83.2743225
  14.1395359  44.2076721  64.7951813  13.4624739  44.7844429  65.1489487
  14.1190786  44.3651466  63.8512459  62.8499374  41.7234001  72.9358749
  62.1825943  41.0695877  73.1442337  62.3568802  42.4664917  72.5881119
  66.2640228  45.2165604  70.7658234  66.6375885  46.0745430  70.9671707
  65.5426788  45.1176109  71.3871994  56.4972115  19.0817966  60.7566261
  56.5270424  18.6395435  61.6050072  57.3215790  19.5660038  60.7098160
  64.3456116  50.0296898   3.1603627  65.2737198  50.1118164   2.9410436
  64.2274933  50.6005249   3.9195926  73.0030060  29.5990086  67.6129837
  72.1791153  30.0669041  67.7490463  72.7635345  28.6734772  67.6607132
  58.1086693  32.9495010   1.5814097  59.0412674  33.1199760   1.7134538
  58.0810356  32.1067467   1.1283772  17.6423206  67.8130646  18.5633354
  18.4148331  68.0079193  18.0327816  17.5214386  66.8679047  18.4723225
   2.1418712  70.4802856  60.1746979   1.9006165  70.7310562  61.0664024
   2.2898529  71.3115845  59.7238426  29.7512264  28.8310223  56.7557640
  29.5852356  29.6117783  56.2274666  30.4401073  29.0961876  57.3651581
  82.9766693  51.1070671  11.8243389  83.0299149  50.4255333  12.4943457
  82.3440704  50.7702522  11.1898241  48.7497215  50.2411194  12.7756968
  49.0110664  50.7195320  11.9888964  47.9446259  49.7884521  12.5244141
  17.4392605  58.1066208  78.6430359  18.2962780  57.7938271  78.3533554
  17.5586739  59.0475845  78.7717133  30.2384205  59.5053978  57.5796967
  29.4283772  59.0499535  57.3502808  30.8515797  59.2687607  56.8838005
  73.8118362  14.8786383  19.8560295  74.0229416  15.6433821  19.3204594
  72.9610901  14.5852699  19.5298557  80.6645355   6.2625628  35.8673096
  80.7292023   6.3919001  36.8135223  79.7506104   6.0186172  35.7208214
  42.1691093  51.7161636  26.9325447  42.7896042  51.1126747  26.5238628
  42.6940880  52.4849052  27.1554070  41.7134399  29.9559135  87.4878464
  42.2191353  30.4285812  86.8267212  42.3735542  29.5355492  88.0390015
   9.5826025   2.7526598  77.6527481   9.5671558   3.4405639  78.3181610
  10.0834475   2.0424738  78.0540237  47.7352676  20.5920200  79.6527405
  47.0954514  21.1069107  80.1444321  48.5622826  20.7348919  80.1130219
  21.3920612  33.0556183  12.3720808  21.2254238  32.5082588  13.1394529
  20.8429050  32.6782303  11.6848831  68.0341797  14.7383537  19.2650032
  67.3557205  14.3115749  19.7882462  67.6313248  14.8623257  18.4056034
  18.1196175  47.2383194   3.4987371  18.2814884  46.7132034   4.2824979
  17.6784477  48.0233421   3.8233016  55.4462700  59.7742538  30.0152893
  56.2051735  60.2858047  29.7349014  55.8027992  59.1355705  30.6327019
  14.4005146  63.4931755  35.7629967  13.6310997  63.3608780  36.3168259
  15.1440334  63.3232803  36.3413963  22.4928989   1.2498952  27.0077095
  21.5383015   1.3173226  27.0283909  22.7276897   1.4516172  26.1019421
  77.7795105  22.5208664  24.5090981  77.9701309  21.8409157  25.1552887
  77.0323715  22.9951973  24.8738232  22.8922443  69.2499466  44.4600029
  23.7459602  69.3606186  44.0414886  22.2965641  69.7832565  43.9337120
  25.0733681   2.9629753  37.6897964  25.8785000   3.4694848  37.7967758
  24.3840027   3.6225162  37.6122704  64.3095703  53.1138611  87.2212830
  63.4799118  52.8798828  86.8051605  64.0633469  53.4057693  88.0990067
  49.1605148  57.8937416   9.6570034  49.0584793  57.7748909  10.6012993
  49.3248787  57.0126190   9.3210793  32.8049850  58.9566078  50.2298088
  32.1245766  58.9118805  49.5580406  33.5689087  58.5461044  49.8246689
  65.4388580  49.0802345  47.5423088  64.9906769  48.5101242  46.9175339
  65.0053024  48.9073792  48.3779984  21.4066467  66.6845932  32.9941521
  21.3880253  67.3047028  33.7230873  22.2437325  66.2298965  33.0878296
  75.2973175  16.6049061  65.7544479  76.1026917  16.9143639  65.3399277
  75.4171524  16.7977734  66.6843262  30.0339642  36.7904282  73.3383026
  29.3824043  37.4338455  73.0595245  30.8692265  37.1510162  73.0407410
   6.2642498  38.7466583  65.5883865   6.4892583  37.9536514  66.0749512
   6.1424704  38.4482002  64.6870956  53.7258949  44.8176880  57.4548759
  53.8879509  43.9378242  57.7951851  54.0789070  45.4025841  58.1253281
   5.6260948  27.0031204  53.5365448   5.7068744  27.8917332  53.1900253
   4.7369952  26.9633484  53.8888969  84.3207397  10.0581570  47.5593224
  84.9574432   9.3988523  47.2833595  83.6662216   9.5662565  48.0551758
  53.8060799  20.3808975  70.6761169  54.3161621  20.7183456  69.9397888
  54.0760765  19.4659805  70.7552185  17.6729259  40.6870346   4.5767765
  17.0300560  41.0325584   3.9574525  18.2966137  40.2071609   4.0318303
  77.0316849  44.7157059  42.7713699  77.5534821  44.4071999  42.0305710
  77.2152863  45.6539001  42.8194580  71.9747162  26.1086121  70.2365036
  71.3824921  25.3748703  70.4012070  71.6530685  26.8082905  70.8050308
  35.0253754  31.5246353  81.9210892  35.2206917  31.9905834  82.7340927
  34.1191750  31.7599487  81.7219391  77.0236816  28.4089375  42.2077179
  77.1984024  27.5978470  42.6850433  76.1059952  28.6050034  42.3964958
  62.4171753  36.2612953  66.6391678  62.1156273  36.8439522  65.9421692
  63.2046318  35.8496170  66.2832718  43.5047531  55.4466476  22.5570202
  43.4509888  56.3999138  22.6250439  44.3033905  55.2870789  22.0540771
  67.7005539   2.0500009  31.5496883  67.2147293   2.6625934  30.9974728
  68.4697876   1.8171555  31.0297966  18.4550209  40.4979515  72.2360611
  18.0752354  39.6198349  72.2059174  18.3994713  40.7514305  73.1574173
  57.8798981  62.7038345  34.2843246  58.2711639  63.3445702  33.6905212
  57.3786430  63.2297096  34.9075661  63.3084221  32.3506088  78.6987228
  63.9134140  32.8538780  79.2436447  62.4856720  32.3544464  79.1879044
  52.7075539  10.0016537  87.0616989  52.4460144  10.9220266  87.0889511
  52.4595757   9.7080469  86.1850357  78.3984833  43.7334938  76.4947510
  77.9640579  43.8416214  75.6486893  79.0969925  43.1011009  76.3262482
   2.5639243   6.5903320  27.9307003   2.6597471   5.6486106  28.0728645
   3.1395757   6.9907179  28.5822754  62.2990685   5.2449965  34.9768944
  61.3879929   5.3280368  35.2584534  62.3894997   5.8813434  34.2675858
  38.8224754  19.9055233   6.4117470  38.7922745  20.0297813   5.4631271
  37.9045143  19.9081669   6.6829953  43.1057892  15.2598162  78.1612244
  43.4362640  14.4020271  78.4280930  42.4822273  15.0688667  77.4605560
  69.2174149   7.6297941  19.4819183  68.9968414   6.7752028  19.1114388
  70.1430283   7.5581198  19.7149963  86.6677246  56.5905914  23.1289291
  85.9387054  56.0242653  22.8758640  87.4432068  56.1554871  22.7746162
  48.4611015  59.5238609   3.2647996  48.6145287  60.3291817   2.7706816
  49.2793007  59.0337105   3.1839793  24.0770340  51.3341637   5.1042523
  24.3428650  50.6317482   5.6977000  23.4564152  51.8556976   5.6132345
  51.5806007  21.1370239  82.8184586  51.6723213  20.2542858  82.4598618
  50.7692947  21.4687176  82.4337540  86.2448654  49.8037987  79.5876770
  86.0469513  48.9175453  79.8903656  85.4055634  50.2625313  79.6246414
  79.0850601  30.0225601  68.6932144  79.4823914  30.7729263  69.1351547
  79.6266708  29.2772770  68.9529266  78.0008774  53.9415665  29.6693993
  78.2940140  53.1936989  29.1488285  78.8096161  54.3708344  29.9485092
   2.6773376  30.3440666  82.2686920   2.9317420  30.5899677  81.3792877
   3.4876769  30.0330887  82.6722717  19.3100758  12.8202782  68.7124023
  18.7300053  13.0278091  69.4449921  19.0438423  11.9430113  68.4371643
  50.6926231  44.3193092  78.5059280  50.4305420  44.5285110  79.4024658
  50.0291214  43.7006111  78.2006226  63.2959290   7.6478224  56.8350372
  62.4473190   7.8923979  57.2041855  63.8097076   8.4550571  56.8602486
  76.3354645  29.7367535  18.7371540  76.0134506  28.9235592  18.3482437
  76.2039719  30.3964367  18.0561543  70.1087265  33.3139496  65.2560425
  69.9990158  32.5390511  64.7049255  70.1084366  32.9735718  66.1506805
  19.9030380  27.5673504  65.2245178  20.3720932  27.9531040  64.4846420
  20.1209660  28.1313305  65.9665909  82.4653473  27.2656021  66.7846603
  82.8701706  27.3678360  65.9233246  81.6188278  26.8567486  66.6044388
  32.5612297  50.8274498  54.3389549  33.4799881  50.6070290  54.1855736
  32.5111504  51.0052681  55.2781601  77.4667969  15.7423058  20.6014805
  77.0491180  14.8823757  20.5535831  76.9054031  16.2488956  21.1883678
  30.3479862  54.2153130  76.6906281  29.8098392  54.1916428  77.4818726
  30.2498169  53.3434105  76.3080292  42.3379250  59.8206291  44.6230392
  42.9170647  59.2392960  44.1302071  41.5269623  59.3221054  44.7232933
  84.4284897  56.0746193  74.9787598  84.3685303  57.0147705  75.1483231
  84.3756714  55.9992371  74.0259933  67.0014801   5.0138388  84.4052353
  66.2512970   5.3260217  83.8992691  67.4029465   5.8096581  84.7541275
  59.2181969  12.2327662  79.2099075  59.6119232  12.3573275  78.3463745
  58.7120094  13.0312309  79.3597794  80.6259460  61.8187103  76.4234009
  80.3526993  61.8386192  77.3405533  80.8395538  60.9006081  76.2569962
  46.2697182  13.0415201   2.9280713  46.5730171  13.4295950   3.7488263
  46.8523483  13.4053202   2.2614226  38.9327164  48.8913994  38.1609154
  38.1284637  49.1994896  38.5786362  38.6580505  48.6161652  37.2862511
   7.1523266   6.5419464  86.9670410   7.7200184   7.1911416  86.5517044
   7.3920093   6.5717802  87.8932648  81.3641815  23.6747494   8.7037849
  82.1076736  23.0721817   8.7229433  81.2493439  23.9425182   9.6155663
  65.3470230  30.5332794  20.6509819  64.4072495  30.7043610  20.5894642
  65.6661377  31.1744843  21.2860069  64.0178299  65.3509903  38.3281059
  64.4836502  65.2684784  39.1602325  64.4440842  66.0857086  37.8868294
  50.8828239  70.1146927   0.8170973  50.3042145  70.5321960   0.1790244
  51.7620087  70.3945694   0.5622745  17.2571144  55.2012138  62.0745583
  16.6892071  55.8865662  62.4267044  16.8470783  54.3829422  62.3547897
  52.3561172   8.1108475  25.5697021  51.4457703   8.3824749  25.6868038
  52.3086548   7.3662586  24.9700642  64.9889908  45.0055008  31.0476265
  64.6377945  45.0177040  30.1572628  64.2777328  44.6504211  31.5807972
  86.7450232  71.5732667  89.1046339  90.0000000  90.0000000  90.0000000
